 Gaussian 09, Revision D.01,
 Gaussian 09:  ES64L-G09RevD.01 24-Apr-2013

 -------------------------------------
 # td=(NStates=1) CAM-B3LYP/6-31G(d,p)
 -------------------------------------

 --
 TD
 --
 Symbolic Z-matrix:
 Charge =  0 Multiplicity = 1

                         Standard orientation:
 ---------------------------------------------------------------------
 Center     Atomic      Atomic             Coordinates (Angstroms)
 Number     Number       Type             X           Y           Z
 ---------------------------------------------------------------------
      1         12           0       -7.212124    0.607665    0.013053
      2          6           0       -4.864171   -1.998782    0.468106
      3          6           0       -4.865246    2.880126    1.078388
      4          6           0       -9.428508    3.153884   -0.375797
      5          6           0       -9.469455   -1.782783   -0.827421
      6          7           0       -5.074418    0.394989    0.656068
      7          6           0       -4.365587   -0.759999    0.708591
      8          6           0       -2.920844   -0.349740    1.130287
      9          6           0       -3.072746    1.072729    1.701075
     10          6           0       -4.382861    1.551886    1.101948
     11          6           0       -2.893175    1.193883    3.222062
     12          6           0       -1.935552   -0.728233    0.092678
     13          6           0       -0.497380   -0.584702    0.560119
     14          6           0        0.483702   -0.795116   -0.571083
     15          8           0        0.369780   -1.169930   -1.745127
     16          8           0        1.836904   -0.516874   -0.160393
     17          7           0       -7.100246    2.667428    0.326001
     18          6           0       -6.130939    3.359039    0.856123
     19          6           0       -6.368188    4.789192    0.717653
     20          6           0       -7.671008    4.890613    0.337487
     21          6           0       -8.133930    3.559105    0.089456
     22          6           0       -5.534354    5.930194    1.204980
     23          6           0       -8.601756    6.076506    0.188571
     24          6           0       -8.421378    7.198976    0.844918
     25          7           0       -9.163478    0.694433   -0.524568
     26          6           0       -9.860629    1.818631   -0.661968
     27          6           0      -11.238920    1.557783   -1.122947
     28          6           0      -11.206694    0.192067   -1.219456
     29          6           0       -9.928252   -0.410368   -0.912113
     30          6           0      -12.304007    2.465438   -1.307784
     31          6           0      -12.330073   -0.693917   -1.809795
     32          6           0      -12.402337   -0.868643   -3.335749
     33          7           0       -7.237218   -1.364659   -0.226882
     34          6           0       -8.275100   -2.217563   -0.563314
     35          6           0       -7.940242   -3.601313   -0.489634
     36          6           0       -6.545979   -3.527754   -0.138434
     37          6           0       -6.189366   -2.219565    0.013403
     38          6           0       -8.632643   -4.868008   -0.756164
     39          6           0       -5.279045   -4.329794    0.212969
     40          8           0       -5.167138   -5.529471    0.145372
     41          6           0       -4.235326   -3.287552    0.546749
     42          6           0       -3.669520   -3.611497    1.884308
     43          8           0       -4.011893   -3.228213    2.948182
     44          8           0       -2.696111   -4.666645    1.782015
     45          6           0       -2.365687   -5.280858    3.021234
     46          6           0        2.842480   -0.781132   -1.189970
     47          6           0        4.194148   -0.580485   -0.539817
     48          6           0        5.202942    0.217674   -0.895931
     49          6           0        5.166864    1.156572   -2.073869
     50          6           0        6.457625    0.222567   -0.148833
     51          6           0        7.710907   -0.089960   -0.874323
     52          6           0        9.021299   -0.117874   -0.183312
     53          6           0       10.273586   -0.504614   -1.000517
     54          6           0       10.269056   -2.020340   -1.401582
     55          6           0       11.479461   -0.315351    0.050193
     56          6           0       12.892004   -0.231731   -0.763288
     57          6           0       14.047505    0.010249    0.168172
     58          6           0       15.392411   -0.152290   -0.445514
     59          6           0       15.649523   -1.753493   -0.757966
     60          6           0       16.445452    0.400921    0.428955
     61          6           0       17.878624    0.478738   -0.305334
     62          6           0       18.809517    1.204550    0.709770
     63          6           0       20.178955    1.347576    0.234825
     64          6           0       20.342310    2.294251   -0.989922
     65          6           0       21.260555    1.998793    1.202257
     66          1           0       -4.093290    3.572149    1.469294
     67          1           0      -10.046376    3.949505   -0.716294
     68          1           0      -10.347434   -2.474138   -1.081850
     69          1           0       -2.639077   -1.072002    1.810348
     70          1           0       -2.123052    1.643941    1.348302
     71          1           0       -1.976717    0.510738    3.690593
     72          1           0       -3.052067    2.410194    3.482804
     73          1           0       -3.818542    0.543434    3.782826
     74          1           0       -1.927200   -1.725545   -0.432240
     75          1           0       -2.081502   -0.117284   -0.687047
     76          1           0       -0.379692    0.359299    1.041870
     77          1           0       -0.359304   -1.310947    1.291744
     78          1           0       -5.970053    6.788331    0.559930
     79          1           0       -5.654273    6.065770    2.284258
     80          1           0       -4.498317    5.772884    0.870928
     81          1           0       -9.479749    6.168151   -0.649516
     82          1           0       -9.099805    7.958550    0.550093
     83          1           0       -7.786477    7.223215    1.750926
     84          1           0      -12.128901    3.246475   -1.870200
     85          1           0      -13.160984    1.994332   -1.705462
     86          1           0      -12.538821    2.951517   -0.469502
     87          1           0      -12.484924   -1.551597   -1.201374
     88          1           0      -13.257683   -0.297191   -1.515521
     89          1           0      -13.456860   -1.319536   -3.563695
     90          1           0      -12.572666    0.192085   -3.860529
     91          1           0      -11.789750   -1.706047   -3.771312
     92          1           0       -9.017367   -4.848875   -1.815853
     93          1           0       -7.946594   -5.577416   -0.796132
     94          1           0       -9.525225   -5.193373   -0.298265
     95          1           0       -3.609511   -3.526074   -0.256835
     96          1           0       -2.000682   -4.619832    3.889092
     97          1           0       -3.276623   -5.628158    3.573907
     98          1           0       -1.618099   -6.015769    2.853823
     99          1           0        2.704709   -1.905414   -1.522998
    100          1           0        2.609622   -0.058244   -2.106568
    101          1           0        4.151588   -1.108201    0.366000
    102          1           0        4.133176    0.921552   -2.377921
    103          1           0        5.374296    2.160084   -1.806666
    104          1           0        5.747840    0.868782   -2.802315
    105          1           0        6.773144    1.248843    0.163585
    106          1           0        6.338894   -0.408578    0.747257
    107          1           0        7.477871   -1.137902   -1.323753
    108          1           0        7.756849    0.547746   -1.783053
    109          1           0        9.319406    0.835587    0.254447
    110          1           0        8.767933   -0.807413    0.802068
    111          1           0       10.343471    0.149855   -1.911937
    112          1           0        9.309372   -2.192313   -1.961772
    113          1           0       11.143659   -2.384521   -1.965123
    114          1           0       10.178412   -2.595715   -0.476154
    115          1           0       11.413506    0.548357    0.666902
    116          1           0       11.467492   -1.232435    0.790423
    117          1           0       13.158099   -1.282829   -1.257469
    118          1           0       12.910148    0.609315   -1.416165
    119          1           0       14.083974    1.070980    0.551143
    120          1           0       13.668696   -0.638963    1.130100
    121          1           0       15.260259    0.373049   -1.424051
    122          1           0       15.587922   -2.215700    0.253384
    123          1           0       14.992977   -2.070204   -1.622549
    124          1           0       16.739931   -2.006492   -1.152746
    125          1           0       16.155138    1.547309    0.728470
    126          1           0       16.422352   -0.080318    1.490624
    127          1           0       18.203407   -0.507512   -0.452876
    128          1           0       17.896438    0.960400   -1.282553
    129          1           0       18.519914    2.337406    0.949272
    130          1           0       18.736918    0.680888    1.595911
    131          1           0       20.488202    0.465345   -0.041624
    132          1           0       20.049637    3.347597   -0.742692
    133          1           0       21.420771    2.439603   -1.299994
    134          1           0       19.599771    2.181984   -1.969954
    135          1           0       21.233431    1.410679    2.149838
    136          1           0       22.149447    1.973992    0.809195
    137          1           0       21.121450    3.087420    1.481217
 ---------------------------------------------------------------------

 SCF Done:  E(RCAM-B3LYP) =  -2932.68854602     A.U. after   17 cycles

 Excitation energies and oscillator strengths:

 Excited State   1:      Singlet-A      2.1173 eV  585.58 nm  f=0.1863  <S**2>=0.000
     240 -> 243        0.28501
     241 -> 242        0.63994
 This state for optimization and/or second-order correction.
 Total Energy, E(TD-HF/TD-KS) =  -2932.61073757
 Copying the excited state density for this state as the 1-particle RhoCI density.

 The electronic state is 1-A.
 Alpha  occ. eigenvalues --  -46.84455 -19.25133 -19.24551 -19.22595 -19.21939
 Alpha  occ. eigenvalues --  -19.21312 -14.41399 -14.39599 -14.39193 -14.39116
 Alpha  occ. eigenvalues --  -10.40221 -10.39921 -10.36066 -10.32411 -10.32034
 Alpha  occ. eigenvalues --  -10.30692 -10.30469 -10.30463 -10.29463 -10.29355
 Alpha  occ. eigenvalues --  -10.29309 -10.29095 -10.28976 -10.28859 -10.28661
 Alpha  occ. eigenvalues --  -10.28657 -10.28445 -10.28367 -10.28083 -10.27803
 Alpha  occ. eigenvalues --  -10.27676 -10.27214 -10.27081 -10.27005 -10.26859
 Alpha  occ. eigenvalues --  -10.26738 -10.26718 -10.26707 -10.26564 -10.26267
 Alpha  occ. eigenvalues --  -10.26251 -10.26246 -10.26161 -10.26000 -10.25982
 Alpha  occ. eigenvalues --  -10.25929 -10.25840 -10.25719 -10.25709 -10.25509
 Alpha  occ. eigenvalues --  -10.25431 -10.25317 -10.25213 -10.25201 -10.25144
 Alpha  occ. eigenvalues --  -10.25018 -10.25002 -10.24999 -10.24799 -10.24538
 Alpha  occ. eigenvalues --  -10.24525 -10.24469 -10.23737 -10.23528 -10.23164
 Alpha  occ. eigenvalues --   -3.13434  -1.88150  -1.87640  -1.87632  -1.17898
 Alpha  occ. eigenvalues --   -1.15331  -1.12429  -1.09381  -1.06870  -1.05307
 Alpha  occ. eigenvalues --   -1.04310  -1.02865  -1.02221  -0.95051  -0.91875
 Alpha  occ. eigenvalues --   -0.91599  -0.90441  -0.89793  -0.89240  -0.89001
 Alpha  occ. eigenvalues --   -0.88836  -0.88223  -0.87808  -0.87635  -0.86270
 Alpha  occ. eigenvalues --   -0.85004  -0.84796  -0.84370  -0.83517  -0.82696
 Alpha  occ. eigenvalues --   -0.81646  -0.80980  -0.80519  -0.79479  -0.78999
 Alpha  occ. eigenvalues --   -0.78385  -0.77764  -0.76612  -0.76281  -0.75983
 Alpha  occ. eigenvalues --   -0.74633  -0.73975  -0.73681  -0.73132  -0.72540
 Alpha  occ. eigenvalues --   -0.71929  -0.70502  -0.69570  -0.69421  -0.68168
 Alpha  occ. eigenvalues --   -0.66639  -0.66014  -0.65177  -0.64908  -0.64682
 Alpha  occ. eigenvalues --   -0.64027  -0.63636  -0.62798  -0.62701  -0.62236
 Alpha  occ. eigenvalues --   -0.61204  -0.60766  -0.60393  -0.60280  -0.59699
 Alpha  occ. eigenvalues --   -0.59382  -0.58831  -0.58683  -0.58361  -0.56975
 Alpha  occ. eigenvalues --   -0.56498  -0.55599  -0.55277  -0.55090  -0.54904
 Alpha  occ. eigenvalues --   -0.54261  -0.54149  -0.54080  -0.53384  -0.53249
 Alpha  occ. eigenvalues --   -0.52869  -0.52476  -0.52275  -0.51999  -0.51713
 Alpha  occ. eigenvalues --   -0.51476  -0.51260  -0.50868  -0.50857  -0.50621
 Alpha  occ. eigenvalues --   -0.50457  -0.50307  -0.49971  -0.49900  -0.49777
 Alpha  occ. eigenvalues --   -0.49437  -0.49303  -0.49263  -0.49016  -0.48754
 Alpha  occ. eigenvalues --   -0.48425  -0.48165  -0.47998  -0.47848  -0.47685
 Alpha  occ. eigenvalues --   -0.47394  -0.47014  -0.46874  -0.46608  -0.46175
 Alpha  occ. eigenvalues --   -0.45968  -0.45800  -0.45628  -0.45574  -0.45006
 Alpha  occ. eigenvalues --   -0.44903  -0.44695  -0.44535  -0.44440  -0.44256
 Alpha  occ. eigenvalues --   -0.44254  -0.44122  -0.43865  -0.43705  -0.43595
 Alpha  occ. eigenvalues --   -0.43148  -0.43013  -0.42635  -0.42460  -0.42290
 Alpha  occ. eigenvalues --   -0.41987  -0.41845  -0.41824  -0.41462  -0.41394
 Alpha  occ. eigenvalues --   -0.41348  -0.41195  -0.40853  -0.40338  -0.40265
 Alpha  occ. eigenvalues --   -0.40174  -0.40023  -0.39417  -0.39243  -0.39077
 Alpha  occ. eigenvalues --   -0.38517  -0.38269  -0.38162  -0.37800  -0.37428
 Alpha  occ. eigenvalues --   -0.37308  -0.37151  -0.36895  -0.36852  -0.36761
 Alpha  occ. eigenvalues --   -0.36272  -0.36030  -0.35360  -0.35112  -0.34976
 Alpha  occ. eigenvalues --   -0.34834  -0.34736  -0.34555  -0.34507  -0.33940
 Alpha  occ. eigenvalues --   -0.33234  -0.33076  -0.32756  -0.31166  -0.30529
 Alpha  occ. eigenvalues --   -0.29337  -0.29332  -0.28749  -0.28035  -0.23315
 Alpha  occ. eigenvalues --   -0.21652
 Alpha virt. eigenvalues --   -0.06404  -0.03563   0.01763   0.04047   0.04779
 Alpha virt. eigenvalues --    0.05634   0.06049   0.06626   0.06705   0.06924
 Alpha virt. eigenvalues --    0.08994   0.10086   0.11160   0.11422   0.11948

 Mulliken charges:
               1
     1  Mg   0.826351
     2  C    0.102153
     3  C   -0.199615
     4  C   -0.157317
     5  C   -0.193573
     6  N   -0.661989
     7  C    0.317039
     8  C   -0.150705
     9  C   -0.142646
    10  C    0.323471
    11  C   -0.279379
    12  C   -0.192341
    13  C   -0.266685
    14  C    0.606609
    15  O   -0.469322
    16  O   -0.519259
    17  N   -0.665205
    18  C    0.324584
    19  C   -0.022262
    20  C    0.029983
    21  C    0.272716
    22  C   -0.371536
    23  C   -0.081661
    24  C   -0.231810
    25  N   -0.717884
    26  C    0.298696
    27  C    0.063210
    28  C   -0.049477
    29  C    0.282769
    30  C   -0.375603
    31  C   -0.238710
    32  C   -0.299194
    33  N   -0.756572
    34  C    0.325410
    35  C    0.055627
    36  C   -0.058553
    37  C    0.301898
    38  C   -0.381931
    39  C    0.368383
    40  O   -0.441955
    41  C   -0.314167
    42  C    0.628423
    43  O   -0.434620
    44  O   -0.490690
    45  C   -0.076916
    46  C    0.022439
    47  C   -0.134349
    48  C    0.127721
    49  C   -0.344795
    50  C   -0.216616
    51  C   -0.178475
    52  C   -0.152576
    53  C   -0.062027
    54  C   -0.305730
    55  C   -0.185262
    56  C   -0.175064
    57  C   -0.161175
    58  C   -0.049089
    59  C   -0.315587
    60  C   -0.171707
    61  C   -0.188058
    62  C   -0.146883
    63  C   -0.047786
    64  C   -0.310191
    65  C   -0.318012
    66  H    0.077521
    67  H    0.084523
    68  H    0.100105
    69  H    0.107445
    70  H    0.097990
    71  H    0.107365
    72  H    0.096872
    73  H    0.095718
    74  H    0.127842
    75  H    0.125556
    76  H    0.144551
    77  H    0.155213
    78  H    0.122796
    79  H    0.131641
    80  H    0.114554
    81  H    0.090106
    82  H    0.099780
    83  H    0.115086
    84  H    0.124917
    85  H    0.115552
    86  H    0.133332
    87  H    0.099207
    88  H    0.101577
    89  H    0.084969
    90  H    0.103862
    91  H    0.115115
    92  H    0.115769
    93  H    0.157603
    94  H    0.136627
    95  H    0.182338
    96  H    0.100771
    97  H    0.119996
    98  H    0.125581
    99  H    0.116122
   100  H    0.110875
   101  H    0.096284
   102  H    0.091514
   103  H    0.120625
   104  H    0.133083
   105  H    0.087916
   106  H    0.089041
   107  H    0.077099
   108  H    0.083262
   109  H    0.090773
   110  H    0.062075
   111  H    0.088622
   112  H    0.096844
   113  H    0.104747
   114  H    0.103649
   115  H    0.098200
   116  H    0.084222
   117  H    0.082303
   118  H    0.097735
   119  H    0.077503
   120  H    0.058522
   121  H    0.085408
   122  H    0.110639
   123  H    0.106133
   124  H    0.080286
   125  H    0.068103
   126  H    0.089137
   127  H    0.106268
   128  H    0.103379
   129  H    0.066358
   130  H    0.096809
   131  H    0.097080
   132  H    0.096953
   133  H    0.096264
   134  H    0.063457
   135  H    0.086726
   136  H    0.117289
   137  H    0.094292
 Sum of Mulliken charges =   0.00000

 Dipole moment (field-independent basis, Debye):
    X=             -1.0987    Y=              4.5282    Z=              0.4474  Tot=              4.6810
 Quadrupole moment (field-independent basis, Debye-Ang):
   XX=           -326.8499   YY=           -389.6885   ZZ=           -398.4627
   XY=            -22.2958   XZ=             12.1842   YZ=             -0.7268

 Normal termination of Gaussian 09 at Wed Jul  3 04:53:23 2019.
