 Gaussian 09, Revision D.01,
 Gaussian 09:  ES64L-G09RevD.01 24-Apr-2013

 -------------------------------------
 # td=(NStates=1) CAM-B3LYP/6-31G(d,p)
 -------------------------------------

 --
 TD
 --
 Symbolic Z-matrix:
 Charge =  0 Multiplicity = 1

                         Standard orientation:
 ---------------------------------------------------------------------
 Center     Atomic      Atomic             Coordinates (Angstroms)
 Number     Number       Type             X           Y           Z
 ---------------------------------------------------------------------
      1         12           0       -7.057860    0.608819    0.065097
      2          6           0       -4.981974   -2.045880    0.662609
      3          6           0       -4.715766    2.794624    1.278971
      4          6           0       -9.288896    3.188871   -0.453202
      5          6           0       -9.535303   -1.661821   -0.918149
      6          7           0       -5.162280    0.391746    0.767978
      7          6           0       -4.448324   -0.804831    0.958482
      8          6           0       -2.914732   -0.453544    1.268566
      9          6           0       -2.973209    0.988788    1.769090
     10          6           0       -4.372635    1.448487    1.263476
     11          6           0       -2.753226    1.082051    3.328125
     12          6           0       -1.945784   -0.641432    0.125938
     13          6           0       -0.476218   -0.428139    0.482795
     14          6           0        0.515869   -0.484493   -0.625801
     15          8           0        0.226771   -0.982252   -1.748905
     16          8           0        1.659938   -0.326486   -0.305153
     17          7           0       -6.996015    2.651993    0.348579
     18          6           0       -5.915874    3.405781    0.838058
     19          6           0       -6.235940    4.790425    0.808860
     20          6           0       -7.567321    4.853654    0.348785
     21          6           0       -8.058103    3.478888    0.059579
     22          6           0       -5.265232    5.770361    1.140725
     23          6           0       -8.392293    6.038619    0.200993
     24          6           0       -8.189048    7.209397    0.890952
     25          7           0       -9.134416    0.803995   -0.581170
     26          6           0       -9.870134    1.861475   -0.748535
     27          6           0      -11.163083    1.622851   -1.201310
     28          6           0      -11.161481    0.188270   -1.391858
     29          6           0       -9.936320   -0.272413   -1.001102
     30          6           0      -12.302285    2.579700   -1.257365
     31          6           0      -12.326991   -0.597434   -1.797996
     32          6           0      -12.225294   -1.049567   -3.275594
     33          7           0       -7.224958   -1.348846   -0.143435
     34          6           0       -8.286567   -2.115788   -0.619054
     35          6           0       -7.946807   -3.555431   -0.601771
     36          6           0       -6.609325   -3.532046   -0.031857
     37          6           0       -6.240728   -2.223615    0.200869
     38          6           0       -8.583099   -4.811757   -0.977450
     39          6           0       -5.463298   -4.422448    0.273780
     40          8           0       -5.375848   -5.563713    0.203489
     41          6           0       -4.267840   -3.436462    0.622742
     42          6           0       -3.613717   -3.777298    1.997188
     43          8           0       -3.836636   -3.100454    2.989580
     44          8           0       -2.830112   -4.809333    1.791552
     45          6           0       -2.255480   -5.512144    2.984713
     46          6           0        2.732466   -0.525945   -1.290071
     47          6           0        4.170587   -0.432192   -0.624293
     48          6           0        5.150153    0.224151   -1.023063
     49          6           0        5.077220    1.157219   -2.316143
     50          6           0        6.471732    0.414896   -0.315536
     51          6           0        7.664026   -0.087806   -1.139625
     52          6           0        8.934165   -0.050845   -0.267743
     53          6           0       10.148083   -0.614336   -1.042555
     54          6           0       10.048892   -1.983918   -1.478073
     55          6           0       11.394254   -0.343119   -0.103070
     56          6           0       12.780043   -0.623368   -0.770572
     57          6           0       13.836240   -0.259122    0.224860
     58          6           0       15.308517   -0.211624   -0.458892
     59          6           0       15.702049   -1.717356   -0.885576
     60          6           0       16.287408    0.456782    0.438998
     61          6           0       17.774921    0.530446   -0.099745
     62          6           0       18.722940    1.294112    0.853323
     63          6           0       20.246058    1.348361    0.276504
     64          6           0       20.252223    2.250700   -1.002166
     65          6           0       21.095338    1.963980    1.424713
     66          1           0       -4.179638    3.492732    1.846715
     67          1           0      -10.023799    4.008742   -0.579921
     68          1           0      -10.286693   -2.361247   -1.304415
     69          1           0       -2.440158   -1.150008    2.074294
     70          1           0       -2.175432    1.579278    1.174319
     71          1           0       -1.851502    0.977411    3.871206
     72          1           0       -3.080852    2.046711    3.745070
     73          1           0       -3.430605    0.421291    3.872359
     74          1           0       -1.973603   -1.548495   -0.460864
     75          1           0       -2.199508    0.103134   -0.602395
     76          1           0       -0.556054    0.516905    0.665961
     77          1           0       -0.051182   -0.973456    1.479937
     78          1           0       -5.567714    6.703008    0.685323
     79          1           0       -5.306755    5.996445    2.277228
     80          1           0       -4.263692    5.481764    1.004671
     81          1           0       -9.202657    5.974109   -0.312141
     82          1           0       -8.789964    8.049639    0.505019
     83          1           0       -7.310860    7.171857    1.783796
     84          1           0      -11.968987    3.372627   -2.018152
     85          1           0      -13.272971    2.231907   -1.530864
     86          1           0      -12.380672    3.053867   -0.141972
     87          1           0      -12.285117   -1.478615   -1.173347
     88          1           0      -13.231502   -0.176831   -1.582437
     89          1           0      -13.124853   -1.595431   -3.740972
     90          1           0      -11.879095   -0.239892   -3.955054
     91          1           0      -11.232052   -1.899950   -3.380190
     92          1           0       -8.933615   -4.816849   -2.194739
     93          1           0       -8.101599   -5.613917   -0.626829
     94          1           0       -9.513435   -4.627194   -0.518827
     95          1           0       -3.339067   -3.443454   -0.063058
     96          1           0       -1.416589   -4.971364    3.369961
     97          1           0       -3.149575   -5.642371    3.738247
     98          1           0       -1.819884   -6.364223    2.552436
     99          1           0        2.375920   -1.567463   -1.633805
    100          1           0        2.620755    0.233865   -2.100500
    101          1           0        4.318723   -0.964860    0.416542
    102          1           0        4.176547    1.103932   -2.781884
    103          1           0        5.556722    2.152315   -1.972652
    104          1           0        5.663893    0.768717   -3.074893
    105          1           0        6.654397    1.381543    0.104626
    106          1           0        6.481564   -0.276776    0.531911
    107          1           0        7.445320   -1.193947   -1.582595
    108          1           0        7.549604    0.507840   -1.983324
    109          1           0        9.061155    1.184517    0.040126
    110          1           0        8.880490   -0.701981    0.659394
    111          1           0       10.181023    0.036459   -1.905197
    112          1           0        9.056286   -2.059092   -1.877507
    113          1           0       10.863368   -2.387788   -2.212586
    114          1           0       10.200340   -2.841302   -0.649084
    115          1           0       11.360596    0.578369    0.306774
    116          1           0       11.230489   -1.122634    0.801973
    117          1           0       12.847619   -1.753414   -1.127087
    118          1           0       12.877523   -0.058467   -1.680456
    119          1           0       13.790783    0.639248    0.696989
    120          1           0       13.658689   -1.248884    0.797900
    121          1           0       15.056197    0.414977   -1.403777
    122          1           0       15.851550   -2.181000    0.118494
    123          1           0       15.042896   -2.246178   -1.628061
    124          1           0       16.714741   -1.650444   -1.144711
    125          1           0       15.873117    1.488329    0.739376
    126          1           0       16.178208   -0.161175    1.341618
    127          1           0       18.237436   -0.453724   -0.284962
    128          1           0       17.797055    1.041195   -1.039243
    129          1           0       18.261825    2.237953    1.187035
    130          1           0       18.805719    0.680586    1.831936
    131          1           0       20.483768    0.401996   -0.018367
    132          1           0       19.781819    3.184432   -0.831921
    133          1           0       21.141518    2.544292   -1.409832
    134          1           0       19.738401    1.709883   -1.868687
    135          1           0       21.018679    1.280327    2.293663
    136          1           0       22.111692    1.888071    1.082494
    137          1           0       20.773215    2.991713    1.797422
 ---------------------------------------------------------------------

 SCF Done:  E(RCAM-B3LYP) =  -2932.68586062     A.U. after   17 cycles

 Excitation energies and oscillator strengths:

 Excited State   1:      Singlet-A      2.1687 eV  571.70 nm  f=0.1380  <S**2>=0.000
     240 -> 242       -0.13054
     240 -> 243        0.30150
     241 -> 242        0.60328
     241 -> 243        0.12762
 This state for optimization and/or second-order correction.
 Total Energy, E(TD-HF/TD-KS) =  -2932.60616211
 Copying the excited state density for this state as the 1-particle RhoCI density.

 The electronic state is 1-A.
 Alpha  occ. eigenvalues --  -46.83082 -19.27570 -19.27133 -19.20553 -19.20302
 Alpha  occ. eigenvalues --  -19.17343 -14.41436 -14.38710 -14.38568 -14.37463
 Alpha  occ. eigenvalues --  -10.38803 -10.37603 -10.34545 -10.34353 -10.32685
 Alpha  occ. eigenvalues --  -10.31516 -10.31018 -10.29590 -10.29013 -10.28939
 Alpha  occ. eigenvalues --  -10.28787 -10.28759 -10.28039 -10.27886 -10.27784
 Alpha  occ. eigenvalues --  -10.27760 -10.27726 -10.27644 -10.27307 -10.27277
 Alpha  occ. eigenvalues --  -10.27227 -10.27041 -10.27013 -10.26985 -10.26839
 Alpha  occ. eigenvalues --  -10.26747 -10.26497 -10.26315 -10.26313 -10.26280
 Alpha  occ. eigenvalues --  -10.26233 -10.26147 -10.25908 -10.25832 -10.25704
 Alpha  occ. eigenvalues --  -10.25671 -10.25662 -10.25560 -10.25555 -10.25532
 Alpha  occ. eigenvalues --  -10.25438 -10.25330 -10.25243 -10.25211 -10.25181
 Alpha  occ. eigenvalues --  -10.25121 -10.24893 -10.24875 -10.24749 -10.24565
 Alpha  occ. eigenvalues --  -10.24484 -10.24288 -10.24262 -10.24246 -10.23646
 Alpha  occ. eigenvalues --   -3.12166  -1.86872  -1.86406  -1.86350  -1.23556
 Alpha  occ. eigenvalues --   -1.17994  -1.15056  -1.08849  -1.05141  -1.03402
 Alpha  occ. eigenvalues --   -1.02639  -1.01804  -1.00726  -0.92348  -0.91723
 Alpha  occ. eigenvalues --   -0.90629  -0.90232  -0.89183  -0.89060  -0.88485
 Alpha  occ. eigenvalues --   -0.87725  -0.87600  -0.87544  -0.86418  -0.86021
 Alpha  occ. eigenvalues --   -0.85086  -0.84244  -0.83418  -0.83323  -0.82117
 Alpha  occ. eigenvalues --   -0.81845  -0.81314  -0.80010  -0.79809  -0.78442
 Alpha  occ. eigenvalues --   -0.77508  -0.77124  -0.76488  -0.76077  -0.75958
 Alpha  occ. eigenvalues --   -0.75314  -0.74870  -0.74420  -0.73782  -0.72080
 Alpha  occ. eigenvalues --   -0.71474  -0.70241  -0.69143  -0.68919  -0.67411
 Alpha  occ. eigenvalues --   -0.67006  -0.66136  -0.64641  -0.64556  -0.64101
 Alpha  occ. eigenvalues --   -0.63968  -0.63544  -0.63168  -0.62935  -0.61686
 Alpha  occ. eigenvalues --   -0.61287  -0.60674  -0.60254  -0.59664  -0.58765
 Alpha  occ. eigenvalues --   -0.58445  -0.58220  -0.57829  -0.57267  -0.56390
 Alpha  occ. eigenvalues --   -0.55885  -0.55633  -0.55049  -0.54888  -0.54777
 Alpha  occ. eigenvalues --   -0.54436  -0.53945  -0.53657  -0.53456  -0.53224
 Alpha  occ. eigenvalues --   -0.52871  -0.52578  -0.52481  -0.52040  -0.51813
 Alpha  occ. eigenvalues --   -0.51570  -0.51185  -0.50924  -0.50794  -0.50585
 Alpha  occ. eigenvalues --   -0.49957  -0.49751  -0.49525  -0.49419  -0.49287
 Alpha  occ. eigenvalues --   -0.49152  -0.48914  -0.48683  -0.48488  -0.48380
 Alpha  occ. eigenvalues --   -0.48065  -0.47916  -0.47424  -0.47357  -0.47011
 Alpha  occ. eigenvalues --   -0.46837  -0.46534  -0.46279  -0.46053  -0.46019
 Alpha  occ. eigenvalues --   -0.45870  -0.45689  -0.45353  -0.45071  -0.44962
 Alpha  occ. eigenvalues --   -0.44926  -0.44707  -0.44493  -0.44406  -0.44028
 Alpha  occ. eigenvalues --   -0.43995  -0.43958  -0.43793  -0.43648  -0.43303
 Alpha  occ. eigenvalues --   -0.43088  -0.43068  -0.42466  -0.42297  -0.42101
 Alpha  occ. eigenvalues --   -0.41871  -0.41840  -0.41550  -0.41460  -0.41312
 Alpha  occ. eigenvalues --   -0.40971  -0.40835  -0.40734  -0.40403  -0.40270
 Alpha  occ. eigenvalues --   -0.39830  -0.39645  -0.39514  -0.39253  -0.39187
 Alpha  occ. eigenvalues --   -0.38822  -0.38449  -0.38376  -0.37928  -0.37531
 Alpha  occ. eigenvalues --   -0.37420  -0.37230  -0.36902  -0.36598  -0.36242
 Alpha  occ. eigenvalues --   -0.36216  -0.36128  -0.35934  -0.35453  -0.35324
 Alpha  occ. eigenvalues --   -0.34925  -0.34870  -0.34695  -0.33217  -0.32971
 Alpha  occ. eigenvalues --   -0.32671  -0.32000  -0.31819  -0.30603  -0.30160
 Alpha  occ. eigenvalues --   -0.29623  -0.28354  -0.26237  -0.25955  -0.22730
 Alpha  occ. eigenvalues --   -0.21204
 Alpha virt. eigenvalues --   -0.05378  -0.03797   0.02325   0.04300   0.06596
 Alpha virt. eigenvalues --    0.07118   0.07244   0.07448   0.07811   0.08053
 Alpha virt. eigenvalues --    0.08573   0.10821   0.11032   0.11757   0.12145

 Mulliken charges:
               1
     1  Mg   0.816866
     2  C    0.057564
     3  C   -0.205085
     4  C   -0.181367
     5  C   -0.152720
     6  N   -0.656394
     7  C    0.301504
     8  C   -0.133206
     9  C   -0.136207
    10  C    0.340461
    11  C   -0.335340
    12  C   -0.193869
    13  C   -0.245762
    14  C    0.557039
    15  O   -0.545427
    16  O   -0.382980
    17  N   -0.734402
    18  C    0.298866
    19  C    0.064627
    20  C   -0.030648
    21  C    0.367897
    22  C   -0.402069
    23  C   -0.043132
    24  C   -0.257195
    25  N   -0.669960
    26  C    0.307000
    27  C    0.010896
    28  C   -0.001836
    29  C    0.258900
    30  C   -0.362698
    31  C   -0.231241
    32  C   -0.291398
    33  N   -0.760309
    34  C    0.283377
    35  C    0.027911
    36  C   -0.060041
    37  C    0.327809
    38  C   -0.355509
    39  C    0.386265
    40  O   -0.407919
    41  C   -0.335240
    42  C    0.614957
    43  O   -0.475676
    44  O   -0.450287
    45  C   -0.092529
    46  C    0.003007
    47  C   -0.166767
    48  C    0.156400
    49  C   -0.358506
    50  C   -0.242258
    51  C   -0.182941
    52  C   -0.159999
    53  C   -0.052797
    54  C   -0.296473
    55  C   -0.158066
    56  C   -0.190492
    57  C   -0.154457
    58  C   -0.065770
    59  C   -0.322894
    60  C   -0.181121
    61  C   -0.185227
    62  C   -0.176909
    63  C   -0.057944
    64  C   -0.315859
    65  C   -0.308222
    66  H    0.079074
    67  H    0.090005
    68  H    0.096513
    69  H    0.111255
    70  H    0.104338
    71  H    0.120278
    72  H    0.100829
    73  H    0.133420
    74  H    0.126428
    75  H    0.111414
    76  H    0.132500
    77  H    0.111760
    78  H    0.129839
    79  H    0.108192
    80  H    0.126167
    81  H    0.077599
    82  H    0.108970
    83  H    0.099491
    84  H    0.111121
    85  H    0.120334
    86  H    0.102995
    87  H    0.105530
    88  H    0.108100
    89  H    0.097861
    90  H    0.119018
    91  H    0.051919
    92  H    0.104860
    93  H    0.153385
    94  H    0.135047
    95  H    0.156504
    96  H    0.137809
    97  H    0.143021
    98  H    0.145393
    99  H    0.148419
   100  H    0.134273
   101  H    0.082989
   102  H    0.105947
   103  H    0.111768
   104  H    0.130916
   105  H    0.114155
   106  H    0.097539
   107  H    0.082786
   108  H    0.109373
   109  H    0.060973
   110  H    0.096783
   111  H    0.092145
   112  H    0.101546
   113  H    0.100464
   114  H    0.077560
   115  H    0.097265
   116  H    0.060488
   117  H    0.079199
   118  H    0.088647
   119  H    0.090721
   120  H    0.087451
   121  H    0.062881
   122  H    0.096070
   123  H    0.109188
   124  H    0.107395
   125  H    0.082556
   126  H    0.095853
   127  H    0.092685
   128  H    0.105293
   129  H    0.089413
   130  H    0.071995
   131  H    0.098852
   132  H    0.105808
   133  H    0.104308
   134  H    0.087466
   135  H    0.098555
   136  H    0.102368
   137  H    0.102734
 Sum of Mulliken charges =   0.00000

 Dipole moment (field-independent basis, Debye):
    X=              4.6131    Y=              2.7523    Z=              1.2666  Tot=              5.5191
 Quadrupole moment (field-independent basis, Debye-Ang):
   XX=           -347.7241   YY=           -381.8758   ZZ=           -396.7329
   XY=             -9.7776   XZ=              4.9590   YZ=             -6.6152

 Normal termination of Gaussian 09 at Tue Jul  2 17:41:38 2019.
