 Gaussian 09, Revision D.01,
 Gaussian 09:  ES64L-G09RevD.01 24-Apr-2013

 -------------------------------------
 # td=(NStates=1) CAM-B3LYP/6-31G(d,p)
 -------------------------------------

 --
 TD
 --
 Symbolic Z-matrix:
 Charge =  0 Multiplicity = 1

                         Standard orientation:
 ---------------------------------------------------------------------
 Center     Atomic      Atomic             Coordinates (Angstroms)
 Number     Number       Type             X           Y           Z
 ---------------------------------------------------------------------
      1         12           0       -7.124529    0.640045    0.009522
      2          6           0       -4.828158   -2.000384    0.589866
      3          6           0       -4.778395    2.850712    1.178415
      4          6           0       -9.343491    3.176692   -0.410580
      5          6           0       -9.586420   -1.772030   -0.849508
      6          7           0       -5.049989    0.416994    0.796590
      7          6           0       -4.276154   -0.738000    0.799062
      8          6           0       -2.996872   -0.370686    1.171436
      9          6           0       -2.988884    1.068525    1.671994
     10          6           0       -4.330059    1.508735    1.208109
     11          6           0       -2.940404    1.124611    3.257214
     12          6           0       -1.925294   -0.722640   -0.027202
     13          6           0       -0.434640   -0.431955    0.415142
     14          6           0        0.483974   -0.807221   -0.632049
     15          8           0        0.240801   -1.135743   -1.796075
     16          8           0        1.793643   -0.573280   -0.250018
     17          7           0       -7.009152    2.680187    0.210484
     18          6           0       -5.964227    3.372174    0.768119
     19          6           0       -6.376325    4.738260    0.792667
     20          6           0       -7.530578    4.827971    0.304620
     21          6           0       -8.061350    3.486841    0.091969
     22          6           0       -5.327331    5.847908    1.193575
     23          6           0       -8.440429    6.167657    0.082265
     24          6           0       -8.418709    7.167114    0.870984
     25          7           0       -9.102944    0.636941   -0.635063
     26          6           0       -9.817626    1.816097   -0.628962
     27          6           0      -11.195313    1.544248   -1.118127
     28          6           0      -11.175177    0.198003   -1.303293
     29          6           0       -9.891070   -0.454403   -0.925487
     30          6           0      -12.346445    2.506482   -1.234035
     31          6           0      -12.433715   -0.641761   -1.616510
     32          6           0      -12.457991   -0.769645   -3.188191
     33          7           0       -7.308739   -1.448520   -0.127720
     34          6           0       -8.362062   -2.260895   -0.455869
     35          6           0       -7.925517   -3.609799   -0.464449
     36          6           0       -6.561734   -3.623838   -0.090708
     37          6           0       -6.216078   -2.201049    0.174072
     38          6           0       -8.757932   -4.790052   -0.894060
     39          6           0       -5.341201   -4.402470    0.239019
     40          8           0       -5.107759   -5.634630    0.242368
     41          6           0       -4.168838   -3.343551    0.549289
     42          6           0       -3.545549   -3.661042    1.845046
     43          8           0       -3.771814   -3.207043    2.974728
     44          8           0       -2.787692   -4.760284    1.673929
     45          6           0       -2.179402   -5.122634    2.897683
     46          6           0        2.675207   -0.901108   -1.244757
     47          6           0        4.083510   -0.555911   -0.686475
     48          6           0        4.982869    0.383036   -1.131970
     49          6           0        4.959760    1.221331   -2.282204
     50          6           0        6.340694    0.483864   -0.305969
     51          6           0        7.672906   -0.101119   -0.953089
     52          6           0        8.934876    0.049364   -0.124705
     53          6           0       10.202667   -0.513209   -0.899084
     54          6           0       10.196642   -1.934351   -1.215796
     55          6           0       11.382786   -0.176893    0.064130
     56          6           0       12.731652   -0.462698   -0.685104
     57          6           0       13.990052   -0.165671    0.197995
     58          6           0       15.400611   -0.239388   -0.490278
     59          6           0       15.657292   -1.655292   -0.847785
     60          6           0       16.433630    0.301777    0.489100
     61          6           0       17.813978    0.586388   -0.093872
     62          6           0       18.784542    1.347812    0.878553
     63          6           0       20.202920    1.343879    0.211215
     64          6           0       20.340084    2.060794   -1.068665
     65          6           0       21.187698    1.985365    1.229527
     66          1           0       -3.907216    3.578068    1.568707
     67          1           0      -10.083181    4.166537   -0.239909
     68          1           0      -10.412742   -2.594171   -1.160019
     69          1           0       -2.765325   -0.994026    1.859458
     70          1           0       -2.216439    1.541855    1.107234
     71          1           0       -1.865684    0.901247    3.434564
     72          1           0       -3.464931    2.061535    3.702756
     73          1           0       -3.460083    0.339698    3.934531
     74          1           0       -2.001795   -1.815589   -0.335036
     75          1           0       -2.089689   -0.242597   -0.987846
     76          1           0       -0.217752    0.457801    0.694423
     77          1           0       -0.168076   -1.241330    1.278758
     78          1           0       -5.588774    6.792039    0.599065
     79          1           0       -5.515336    6.081475    2.307860
     80          1           0       -4.302430    5.327567    0.949161
     81          1           0       -8.994638    6.129273   -0.777275
     82          1           0       -9.120871    8.070428    0.941365
     83          1           0       -7.783418    7.098847    1.763658
     84          1           0      -11.964529    3.287913   -2.012925
     85          1           0      -13.292916    1.984289   -1.695041
     86          1           0      -12.193446    2.890311   -0.242742
     87          1           0      -12.397536   -1.553271   -1.019492
     88          1           0      -13.310703   -0.099737   -1.309964
     89          1           0      -13.239490   -1.535125   -3.412359
     90          1           0      -12.634430    0.023824   -3.775550
     91          1           0      -11.468348   -1.167508   -3.501378
     92          1           0       -8.636927   -4.704492   -2.025984
     93          1           0       -8.160547   -5.644171   -0.408741
     94          1           0       -9.734776   -4.609884   -0.490195
     95          1           0       -3.507795   -3.664096   -0.262754
     96          1           0       -1.593037   -4.161584    3.222774
     97          1           0       -3.013134   -5.117677    3.848531
     98          1           0       -1.608473   -5.923096    2.637556
     99          1           0        2.523907   -1.931124   -1.262631
    100          1           0        2.528167   -0.445690   -2.301046
    101          1           0        4.462388   -1.050489    0.142597
    102          1           0        3.910272    1.342150   -2.869818
    103          1           0        5.169343    2.435304   -2.030897
    104          1           0        5.857670    1.085592   -3.005102
    105          1           0        6.293649    1.643077   -0.082751
    106          1           0        6.190802   -0.010991    0.700331
    107          1           0        7.452045   -1.252751   -1.111265
    108          1           0        7.925797    0.313313   -1.875607
    109          1           0        9.000438    1.195341    0.050217
    110          1           0        8.702165   -0.559697    0.900278
    111          1           0       10.322696   -0.145687   -1.854943
    112          1           0        9.194837   -2.293094   -1.723734
    113          1           0       10.921493   -2.577844   -1.898017
    114          1           0        9.794580   -2.544209   -0.446465
    115          1           0       11.494107    0.795566    0.643943
    116          1           0       11.471837   -0.695697    1.114144
    117          1           0       12.790606   -1.521272   -0.950290
    118          1           0       12.932622    0.309018   -1.598681
    119          1           0       13.923086    0.741567    0.780252
    120          1           0       13.902070   -0.904486    1.057066
    121          1           0       15.409808    0.475881   -1.404536
    122          1           0       15.620433   -2.352125   -0.031313
    123          1           0       14.954725   -2.156510   -1.793269
    124          1           0       16.654056   -1.792273   -1.283180
    125          1           0       16.135253    1.318184    0.875735
    126          1           0       16.646932   -0.404385    1.386519
    127          1           0       18.374450   -0.386784   -0.452043
    128          1           0       17.689929    1.075686   -0.983296
    129          1           0       18.613170    2.537083    0.866459
    130          1           0       18.676859    0.933076    1.846471
    131          1           0       20.511728    0.266502    0.166716
    132          1           0       19.986151    3.114775   -1.080152
    133          1           0       21.363518    2.077326   -1.577163
    134          1           0       19.611369    1.543257   -1.775875
    135          1           0       21.122096    1.566205    2.211865
    136          1           0       22.249973    1.832450    0.815931
    137          1           0       20.972250    3.151812    1.242888
 ---------------------------------------------------------------------

 SCF Done:  E(RCAM-B3LYP) =  -2932.61782748     A.U. after   18 cycles

 Excitation energies and oscillator strengths:

 Excited State   1:      Singlet-A      2.1021 eV  589.81 nm  f=0.2347  <S**2>=0.000
     240 -> 243        0.23419
     241 -> 242        0.65496
 This state for optimization and/or second-order correction.
 Total Energy, E(TD-HF/TD-KS) =  -2932.54057677
 Copying the excited state density for this state as the 1-particle RhoCI density.

 The electronic state is 1-A.
 Alpha  occ. eigenvalues --  -46.85458 -19.26168 -19.26023 -19.21622 -19.20871
 Alpha  occ. eigenvalues --  -19.19852 -14.42087 -14.39685 -14.39611 -14.39307
 Alpha  occ. eigenvalues --  -10.39544 -10.38727 -10.35659 -10.31989 -10.31306
 Alpha  occ. eigenvalues --  -10.31179 -10.30736 -10.30368 -10.30170 -10.29927
 Alpha  occ. eigenvalues --  -10.29454 -10.28878 -10.28699 -10.28617 -10.28564
 Alpha  occ. eigenvalues --  -10.28531 -10.28483 -10.28458 -10.28446 -10.28427
 Alpha  occ. eigenvalues --  -10.28308 -10.27947 -10.27876 -10.27658 -10.27623
 Alpha  occ. eigenvalues --  -10.27572 -10.27561 -10.27530 -10.27506 -10.27415
 Alpha  occ. eigenvalues --  -10.26779 -10.26713 -10.26643 -10.26553 -10.26338
 Alpha  occ. eigenvalues --  -10.26183 -10.26170 -10.26057 -10.26008 -10.25990
 Alpha  occ. eigenvalues --  -10.25950 -10.25925 -10.25746 -10.25738 -10.25575
 Alpha  occ. eigenvalues --  -10.25562 -10.25488 -10.25482 -10.25425 -10.25396
 Alpha  occ. eigenvalues --  -10.25273 -10.24936 -10.24685 -10.24543 -10.24475
 Alpha  occ. eigenvalues --   -3.14188  -1.88929  -1.88427  -1.88324  -1.19138
 Alpha  occ. eigenvalues --   -1.18755  -1.09316  -1.08415  -1.08189  -1.05908
 Alpha  occ. eigenvalues --   -1.04707  -1.03114  -1.01811  -0.92534  -0.90852
 Alpha  occ. eigenvalues --   -0.90626  -0.90045  -0.89402  -0.89238  -0.88968
 Alpha  occ. eigenvalues --   -0.88293  -0.88023  -0.87571  -0.87548  -0.86722
 Alpha  occ. eigenvalues --   -0.85466  -0.84173  -0.83896  -0.83342  -0.82534
 Alpha  occ. eigenvalues --   -0.81599  -0.81203  -0.80620  -0.79978  -0.78066
 Alpha  occ. eigenvalues --   -0.77277  -0.76523  -0.75589  -0.75329  -0.75095
 Alpha  occ. eigenvalues --   -0.75060  -0.74568  -0.74035  -0.73215  -0.72371
 Alpha  occ. eigenvalues --   -0.72227  -0.70713  -0.69948  -0.68634  -0.68162
 Alpha  occ. eigenvalues --   -0.66950  -0.66473  -0.65971  -0.65037  -0.64545
 Alpha  occ. eigenvalues --   -0.63652  -0.63451  -0.63245  -0.62727  -0.61753
 Alpha  occ. eigenvalues --   -0.61737  -0.61388  -0.60370  -0.59805  -0.59452
 Alpha  occ. eigenvalues --   -0.58845  -0.58255  -0.58106  -0.57770  -0.57698
 Alpha  occ. eigenvalues --   -0.57076  -0.55237  -0.55170  -0.54760  -0.54432
 Alpha  occ. eigenvalues --   -0.54351  -0.54060  -0.53947  -0.53498  -0.52960
 Alpha  occ. eigenvalues --   -0.52858  -0.52587  -0.52246  -0.51826  -0.51580
 Alpha  occ. eigenvalues --   -0.51207  -0.51125  -0.51011  -0.50813  -0.50481
 Alpha  occ. eigenvalues --   -0.50290  -0.50080  -0.49949  -0.49853  -0.49575
 Alpha  occ. eigenvalues --   -0.49317  -0.49199  -0.48839  -0.48496  -0.48276
 Alpha  occ. eigenvalues --   -0.47922  -0.47741  -0.47616  -0.47419  -0.46933
 Alpha  occ. eigenvalues --   -0.46846  -0.46415  -0.46309  -0.46040  -0.45997
 Alpha  occ. eigenvalues --   -0.45809  -0.45371  -0.45288  -0.45198  -0.45025
 Alpha  occ. eigenvalues --   -0.44826  -0.44518  -0.44425  -0.44095  -0.43974
 Alpha  occ. eigenvalues --   -0.43866  -0.43834  -0.43391  -0.43253  -0.42781
 Alpha  occ. eigenvalues --   -0.42575  -0.42513  -0.42245  -0.42175  -0.41886
 Alpha  occ. eigenvalues --   -0.41624  -0.41431  -0.41364  -0.41198  -0.41170
 Alpha  occ. eigenvalues --   -0.40906  -0.40671  -0.40626  -0.40483  -0.40051
 Alpha  occ. eigenvalues --   -0.39986  -0.39860  -0.39314  -0.38681  -0.38668
 Alpha  occ. eigenvalues --   -0.38587  -0.38564  -0.38062  -0.37789  -0.37337
 Alpha  occ. eigenvalues --   -0.37156  -0.37045  -0.36760  -0.36680  -0.36538
 Alpha  occ. eigenvalues --   -0.36360  -0.36030  -0.35903  -0.35681  -0.35623
 Alpha  occ. eigenvalues --   -0.35536  -0.35031  -0.34534  -0.34293  -0.33648
 Alpha  occ. eigenvalues --   -0.32841  -0.32578  -0.32467  -0.31442  -0.30272
 Alpha  occ. eigenvalues --   -0.29559  -0.29101  -0.28691  -0.27627  -0.23713
 Alpha  occ. eigenvalues --   -0.21151
 Alpha virt. eigenvalues --   -0.06327  -0.03002   0.01600   0.04579   0.05003
 Alpha virt. eigenvalues --    0.05174   0.05582   0.05833   0.06515   0.06859
 Alpha virt. eigenvalues --    0.07981   0.10263   0.10908   0.11141   0.11663

 Mulliken charges:
               1
     1  Mg   0.822911
     2  C    0.091282
     3  C   -0.228016
     4  C   -0.194491
     5  C   -0.179654
     6  N   -0.645258
     7  C    0.346880
     8  C   -0.160730
     9  C   -0.140661
    10  C    0.325583
    11  C   -0.322483
    12  C   -0.217124
    13  C   -0.245454
    14  C    0.605091
    15  O   -0.482416
    16  O   -0.470112
    17  N   -0.723230
    18  C    0.362286
    19  C    0.009429
    20  C   -0.024381
    21  C    0.308711
    22  C   -0.348405
    23  C   -0.049058
    24  C   -0.241565
    25  N   -0.711367
    26  C    0.279262
    27  C    0.018765
    28  C   -0.032737
    29  C    0.331772
    30  C   -0.351638
    31  C   -0.234936
    32  C   -0.314755
    33  N   -0.738564
    34  C    0.318455
    35  C   -0.054828
    36  C    0.016946
    37  C    0.262242
    38  C   -0.347325
    39  C    0.353254
    40  O   -0.481395
    41  C   -0.339046
    42  C    0.650664
    43  O   -0.508553
    44  O   -0.433822
    45  C   -0.073787
    46  C    0.036390
    47  C   -0.140144
    48  C    0.148356
    49  C   -0.369531
    50  C   -0.227326
    51  C   -0.166311
    52  C   -0.170484
    53  C   -0.039881
    54  C   -0.330274
    55  C   -0.172672
    56  C   -0.169713
    57  C   -0.186393
    58  C   -0.045199
    59  C   -0.293954
    60  C   -0.174992
    61  C   -0.180967
    62  C   -0.157443
    63  C   -0.058688
    64  C   -0.303407
    65  C   -0.293927
    66  H    0.087198
    67  H    0.093664
    68  H    0.108655
    69  H    0.119392
    70  H    0.118590
    71  H    0.115576
    72  H    0.113561
    73  H    0.136499
    74  H    0.121775
    75  H    0.132829
    76  H    0.147246
    77  H    0.127635
    78  H    0.124726
    79  H    0.119156
    80  H    0.108373
    81  H    0.100671
    82  H    0.109894
    83  H    0.101067
    84  H    0.114983
    85  H    0.117485
    86  H    0.140056
    87  H    0.104210
    88  H    0.099762
    89  H    0.091923
    90  H    0.122690
    91  H    0.107647
    92  H    0.134593
    93  H    0.143835
    94  H    0.121403
    95  H    0.173961
    96  H    0.100800
    97  H    0.127703
    98  H    0.124022
    99  H    0.114583
   100  H    0.115072
   101  H    0.082218
   102  H    0.102433
   103  H    0.081674
   104  H    0.124822
   105  H    0.081206
   106  H    0.092153
   107  H    0.084071
   108  H    0.101452
   109  H    0.097988
   110  H    0.077724
   111  H    0.109590
   112  H    0.075371
   113  H    0.114834
   114  H    0.109081
   115  H    0.086907
   116  H    0.077821
   117  H    0.111023
   118  H    0.064866
   119  H    0.082140
   120  H    0.073972
   121  H    0.076947
   122  H    0.112692
   123  H    0.063440
   124  H    0.100068
   125  H    0.091808
   126  H    0.077954
   127  H    0.070632
   128  H    0.103853
   129  H    0.068811
   130  H    0.101634
   131  H    0.085827
   132  H    0.101731
   133  H    0.103201
   134  H    0.093238
   135  H    0.100961
   136  H    0.085466
   137  H    0.077968
 Sum of Mulliken charges =   0.00000

 Dipole moment (field-independent basis, Debye):
    X=              0.8304    Y=              6.0634    Z=              0.5435  Tot=              6.1441
 Quadrupole moment (field-independent basis, Debye-Ang):
   XX=           -359.1840   YY=           -402.0144   ZZ=           -398.7016
   XY=            -37.9827   XZ=              4.3288   YZ=              2.1570

 Normal termination of Gaussian 09 at Sat Jul  6 16:04:44 2019.
