 Gaussian 09, Revision D.01,
 Gaussian 09:  ES64L-G09RevD.01 24-Apr-2013

 -------------------------------------
 # td=(NStates=1) CAM-B3LYP/6-31G(d,p)
 -------------------------------------

 --
 TD
 --
 Symbolic Z-matrix:
 Charge =  0 Multiplicity = 1

                         Standard orientation:
 ---------------------------------------------------------------------
 Center     Atomic      Atomic             Coordinates (Angstroms)
 Number     Number       Type             X           Y           Z
 ---------------------------------------------------------------------
      1         12           0       -7.154004    0.637454    0.175957
      2          6           0       -4.839540   -1.976302    0.521757
      3          6           0       -4.842419    2.751733    1.313928
      4          6           0       -9.275539    3.163316   -0.481932
      5          6           0       -9.550352   -1.681157   -0.824045
      6          7           0       -5.078081    0.385331    0.715383
      7          6           0       -4.326734   -0.771220    0.860078
      8          6           0       -2.910249   -0.420036    1.229754
      9          6           0       -3.000583    1.003615    1.682888
     10          6           0       -4.377921    1.467181    1.238607
     11          6           0       -2.789626    1.259205    3.259654
     12          6           0       -1.912061   -0.610841    0.081186
     13          6           0       -0.562335   -0.457387    0.592708
     14          6           0        0.477433   -0.688683   -0.566077
     15          8           0        0.236688   -0.991147   -1.652990
     16          8           0        1.760794   -0.529065   -0.060792
     17          7           0       -7.035089    2.640352    0.326057
     18          6           0       -5.968853    3.361144    0.826532
     19          6           0       -6.298555    4.748315    0.866695
     20          6           0       -7.539761    4.842855    0.355254
     21          6           0       -8.029066    3.553300    0.059962
     22          6           0       -5.397514    5.853233    1.163765
     23          6           0       -8.465000    6.119308    0.102017
     24          6           0       -8.399968    7.198985    0.766819
     25          7           0       -9.144933    0.698450   -0.513471
     26          6           0       -9.882939    1.820011   -0.730072
     27          6           0      -11.189227    1.518443   -1.303909
     28          6           0      -11.202832    0.213581   -1.388770
     29          6           0       -9.934470   -0.339901   -0.973235
     30          6           0      -12.268477    2.475908   -1.345059
     31          6           0      -12.401378   -0.673503   -1.746101
     32          6           0      -12.476836   -1.088336   -3.245376
     33          7           0       -7.307886   -1.357505   -0.190921
     34          6           0       -8.350415   -2.237009   -0.473502
     35          6           0       -7.928966   -3.643105   -0.458380
     36          6           0       -6.529794   -3.511323   -0.111534
     37          6           0       -6.233580   -2.125284    0.106991
     38          6           0       -8.695176   -4.737241   -0.836923
     39          6           0       -5.390835   -4.367704    0.192070
     40          8           0       -5.172732   -5.594947    0.216492
     41          6           0       -4.233373   -3.290480    0.611468
     42          6           0       -3.541402   -3.691877    1.817109
     43          8           0       -3.804618   -3.068088    2.882942
     44          8           0       -2.779275   -4.791885    1.692137
     45          6           0       -2.052108   -5.241505    2.895490
     46          6           0        2.817779   -0.811491   -1.137464
     47          6           0        4.144340   -0.588917   -0.510779
     48          6           0        5.079177    0.183315   -1.094047
     49          6           0        5.048262    0.950140   -2.385662
     50          6           0        6.366332    0.389253   -0.228146
     51          6           0        7.664844   -0.162756   -0.858450
     52          6           0        8.926491   -0.132044   -0.073715
     53          6           0       10.160133   -0.575551   -0.804331
     54          6           0       10.060200   -1.967338   -1.418574
     55          6           0       11.387433   -0.250782   -0.006467
     56          6           0       12.738829   -0.454950   -0.695665
     57          6           0       13.947095   -0.173796    0.309031
     58          6           0       15.286902   -0.127575   -0.362851
     59          6           0       15.626660   -1.603624   -0.805752
     60          6           0       16.438553    0.497744    0.485835
     61          6           0       17.785597    0.427580   -0.178166
     62          6           0       18.903203    1.190772    0.698024
     63          6           0       20.229693    1.406586    0.010085
     64          6           0       20.231995    2.493269   -1.098719
     65          6           0       21.268994    1.834612    1.108101
     66          1           0       -3.951536    3.433475    1.644868
     67          1           0       -9.879531    4.065666   -0.682071
     68          1           0      -10.242274   -2.473814   -1.156882
     69          1           0       -2.503579   -1.237461    2.081366
     70          1           0       -2.293047    1.627546    0.961213
     71          1           0       -1.677331    0.982650    3.286150
     72          1           0       -2.832813    2.415815    3.301807
     73          1           0       -3.357082    0.612961    3.713876
     74          1           0       -2.054183   -1.543146   -0.470313
     75          1           0       -2.122534    0.056924   -0.595993
     76          1           0       -0.269938    0.423861    1.032867
     77          1           0       -0.410092   -1.106326    1.395384
     78          1           0       -5.620665    6.667254    0.570769
     79          1           0       -5.384903    6.057560    2.327821
     80          1           0       -4.449855    5.724232    0.907261
     81          1           0       -9.181905    6.105984   -0.645556
     82          1           0       -9.098090    8.070598    0.533020
     83          1           0       -7.751972    7.388140    1.639334
     84          1           0      -12.052100    3.746747   -1.839058
     85          1           0      -13.296854    2.134642   -1.784563
     86          1           0      -12.683215    2.919312   -0.344833
     87          1           0      -12.313424   -1.678364   -1.215030
     88          1           0      -13.610945   -0.304739   -1.504819
     89          1           0      -13.341956   -1.599094   -3.472612
     90          1           0      -12.454261   -0.133148   -3.845752
     91          1           0      -11.534615   -1.743453   -3.742728
     92          1           0       -8.829990   -4.907317   -1.881645
     93          1           0       -8.033023   -5.390479   -0.772600
     94          1           0       -9.519058   -4.645370   -0.082547
     95          1           0       -3.402033   -3.541344   -0.322388
     96          1           0       -1.320127   -4.551213    3.025154
     97          1           0       -2.873007   -5.463345    3.677217
     98          1           0       -1.873970   -6.294637    2.468406
     99          1           0        2.310211   -1.716735   -1.570274
    100          1           0        2.441939   -0.007604   -1.982647
    101          1           0        4.146040   -0.973593    0.662544
    102          1           0        4.101886    1.005579   -2.977708
    103          1           0        5.497915    1.781522   -2.113116
    104          1           0        5.705085    0.638092   -3.075103
    105          1           0        6.612342    1.542146   -0.097692
    106          1           0        6.464899   -0.035070    0.776184
    107          1           0        7.418717   -1.285051   -1.233626
    108          1           0        7.954154    0.197095   -1.889146
    109          1           0        9.112454    0.881879    0.452903
    110          1           0        8.885452   -0.944415    0.689377
    111          1           0       10.380669    0.041154   -1.702332
    112          1           0        9.127923   -1.978060   -2.059782
    113          1           0       10.968036   -2.155884   -2.094585
    114          1           0       10.008579   -2.805187   -0.805893
    115          1           0       11.324180    0.724712    0.381523
    116          1           0       11.350035   -1.101249    0.917273
    117          1           0       12.969792   -1.644700   -0.770124
    118          1           0       12.625033    0.119240   -1.647290
    119          1           0       13.774197    0.775596    0.707637
    120          1           0       13.953942   -0.845000    1.212451
    121          1           0       15.307526    0.450962   -1.372541
    122          1           0       16.077684   -2.395385   -0.222171
    123          1           0       14.833077   -2.199296   -1.315257
    124          1           0       16.495698   -1.487806   -1.679755
    125          1           0       16.132835    1.595300    0.572598
    126          1           0       16.428813    0.221635    1.578526
    127          1           0       18.279966   -0.578595   -0.416341
    128          1           0       17.574230    0.884169   -1.048166
    129          1           0       18.306579    2.107684    0.948805
    130          1           0       18.907495    0.655695    1.795336
    131          1           0       20.538282    0.520986   -0.450506
    132          1           0       20.161975    3.544292   -0.595613
    133          1           0       21.189686    2.508230   -1.544446
    134          1           0       19.515174    2.188109   -1.846061
    135          1           0       20.855658    1.072408    1.854619
    136          1           0       22.341539    1.532700    1.253735
    137          1           0       21.270986    2.999433    1.333768
 ---------------------------------------------------------------------

 SCF Done:  E(RCAM-B3LYP) =  -2932.56829928     A.U. after   18 cycles

 Excitation energies and oscillator strengths:

 Excited State   1:      Singlet-A      2.0909 eV  592.97 nm  f=0.2035  <S**2>=0.000
     240 -> 243        0.26084
     241 -> 242        0.64814
 This state for optimization and/or second-order correction.
 Total Energy, E(TD-HF/TD-KS) =  -2932.49145960
 Copying the excited state density for this state as the 1-particle RhoCI density.

 The electronic state is 1-A.
 Alpha  occ. eigenvalues --  -46.84498 -19.25933 -19.24214 -19.21784 -19.20139
 Alpha  occ. eigenvalues --  -19.19245 -14.40964 -14.39864 -14.39484 -14.38875
 Alpha  occ. eigenvalues --  -10.38409 -10.38312 -10.35411 -10.32496 -10.32001
 Alpha  occ. eigenvalues --  -10.30718 -10.29945 -10.29836 -10.29709 -10.29486
 Alpha  occ. eigenvalues --  -10.29255 -10.29029 -10.28999 -10.28806 -10.28698
 Alpha  occ. eigenvalues --  -10.28669 -10.28366 -10.28320 -10.28210 -10.28073
 Alpha  occ. eigenvalues --  -10.27936 -10.27684 -10.27637 -10.27552 -10.27372
 Alpha  occ. eigenvalues --  -10.27298 -10.26807 -10.26801 -10.26573 -10.26481
 Alpha  occ. eigenvalues --  -10.26401 -10.26372 -10.26352 -10.26132 -10.26076
 Alpha  occ. eigenvalues --  -10.25997 -10.25989 -10.25966 -10.25956 -10.25838
 Alpha  occ. eigenvalues --  -10.25700 -10.25678 -10.25650 -10.25648 -10.25635
 Alpha  occ. eigenvalues --  -10.25516 -10.25281 -10.25149 -10.24965 -10.24953
 Alpha  occ. eigenvalues --  -10.24817 -10.24665 -10.24572 -10.24414 -10.24169
 Alpha  occ. eigenvalues --   -3.13432  -1.88146  -1.87669  -1.87606  -1.18430
 Alpha  occ. eigenvalues --   -1.16345  -1.08853  -1.08738  -1.06458  -1.04178
 Alpha  occ. eigenvalues --   -1.03498  -1.03077  -1.02106  -0.92209  -0.91753
 Alpha  occ. eigenvalues --   -0.91120  -0.90496  -0.90058  -0.89848  -0.89282
 Alpha  occ. eigenvalues --   -0.88771  -0.88255  -0.88174  -0.87104  -0.85953
 Alpha  occ. eigenvalues --   -0.85276  -0.84905  -0.83357  -0.83145  -0.82674
 Alpha  occ. eigenvalues --   -0.81844  -0.81605  -0.80725  -0.79797  -0.79092
 Alpha  occ. eigenvalues --   -0.78485  -0.77221  -0.76630  -0.76249  -0.75417
 Alpha  occ. eigenvalues --   -0.75066  -0.74953  -0.73867  -0.73232  -0.72576
 Alpha  occ. eigenvalues --   -0.71510  -0.70744  -0.69087  -0.68670  -0.67902
 Alpha  occ. eigenvalues --   -0.66397  -0.66013  -0.65375  -0.64266  -0.63889
 Alpha  occ. eigenvalues --   -0.63656  -0.63532  -0.62590  -0.61943  -0.61687
 Alpha  occ. eigenvalues --   -0.61166  -0.60964  -0.60671  -0.60207  -0.59299
 Alpha  occ. eigenvalues --   -0.58686  -0.58273  -0.58242  -0.57121  -0.56367
 Alpha  occ. eigenvalues --   -0.56107  -0.55821  -0.55333  -0.55062  -0.54984
 Alpha  occ. eigenvalues --   -0.54415  -0.54007  -0.53674  -0.53480  -0.52935
 Alpha  occ. eigenvalues --   -0.52778  -0.52508  -0.52154  -0.51828  -0.51583
 Alpha  occ. eigenvalues --   -0.51407  -0.51230  -0.51155  -0.51004  -0.50677
 Alpha  occ. eigenvalues --   -0.50573  -0.50080  -0.49885  -0.49837  -0.49579
 Alpha  occ. eigenvalues --   -0.49392  -0.49137  -0.49096  -0.48600  -0.48342
 Alpha  occ. eigenvalues --   -0.48124  -0.47962  -0.47565  -0.47314  -0.46979
 Alpha  occ. eigenvalues --   -0.46751  -0.46576  -0.46449  -0.46368  -0.45998
 Alpha  occ. eigenvalues --   -0.45796  -0.45688  -0.45491  -0.45352  -0.44946
 Alpha  occ. eigenvalues --   -0.44774  -0.44695  -0.44391  -0.44037  -0.43854
 Alpha  occ. eigenvalues --   -0.43593  -0.43302  -0.43221  -0.42905  -0.42779
 Alpha  occ. eigenvalues --   -0.42454  -0.42404  -0.42346  -0.42230  -0.41983
 Alpha  occ. eigenvalues --   -0.41876  -0.41790  -0.41400  -0.41180  -0.40943
 Alpha  occ. eigenvalues --   -0.40604  -0.40446  -0.40337  -0.40227  -0.39957
 Alpha  occ. eigenvalues --   -0.39786  -0.39622  -0.39444  -0.39168  -0.39113
 Alpha  occ. eigenvalues --   -0.38860  -0.38788  -0.38383  -0.37886  -0.37751
 Alpha  occ. eigenvalues --   -0.37289  -0.36996  -0.36964  -0.36624  -0.35981
 Alpha  occ. eigenvalues --   -0.35961  -0.35870  -0.35806  -0.35146  -0.35140
 Alpha  occ. eigenvalues --   -0.35009  -0.35004  -0.34908  -0.34128  -0.33726
 Alpha  occ. eigenvalues --   -0.33401  -0.32458  -0.31882  -0.30490  -0.30083
 Alpha  occ. eigenvalues --   -0.29338  -0.29157  -0.28688  -0.28602  -0.22832
 Alpha  occ. eigenvalues --   -0.21421
 Alpha virt. eigenvalues --   -0.06280  -0.03097   0.01682   0.04836   0.05387
 Alpha virt. eigenvalues --    0.05708   0.06006   0.07063   0.07349   0.07865
 Alpha virt. eigenvalues --    0.08629   0.09654   0.10625   0.11015   0.11211

 Mulliken charges:
               1
     1  Mg   0.821718
     2  C    0.085467
     3  C   -0.225088
     4  C   -0.174381
     5  C   -0.189615
     6  N   -0.657459
     7  C    0.333184
     8  C   -0.159098
     9  C   -0.186522
    10  C    0.360592
    11  C   -0.276952
    12  C   -0.157618
    13  C   -0.262768
    14  C    0.596197
    15  O   -0.433425
    16  O   -0.532327
    17  N   -0.733579
    18  C    0.329148
    19  C    0.014508
    20  C    0.003759
    21  C    0.308164
    22  C   -0.367351
    23  C   -0.041276
    24  C   -0.244497
    25  N   -0.652265
    26  C    0.259931
    27  C    0.088566
    28  C    0.054557
    29  C    0.279931
    30  C   -0.376227
    31  C   -0.237108
    32  C   -0.294508
    33  N   -0.735628
    34  C    0.256962
    35  C    0.048969
    36  C   -0.049887
    37  C    0.343259
    38  C   -0.350617
    39  C    0.369067
    40  O   -0.484543
    41  C   -0.340346
    42  C    0.638786
    43  O   -0.521143
    44  O   -0.467468
    45  C   -0.083428
    46  C    0.000403
    47  C   -0.136640
    48  C    0.120097
    49  C   -0.352409
    50  C   -0.229074
    51  C   -0.180375
    52  C   -0.154521
    53  C   -0.059849
    54  C   -0.314849
    55  C   -0.149199
    56  C   -0.177345
    57  C   -0.177750
    58  C   -0.044735
    59  C   -0.320778
    60  C   -0.188687
    61  C   -0.171203
    62  C   -0.172102
    63  C   -0.060662
    64  C   -0.306297
    65  C   -0.312710
    66  H    0.067618
    67  H    0.078668
    68  H    0.090315
    69  H    0.101763
    70  H    0.097911
    71  H    0.102074
    72  H    0.110572
    73  H    0.146271
    74  H    0.120557
    75  H    0.117961
    76  H    0.136274
    77  H    0.130485
    78  H    0.130079
    79  H    0.104920
    80  H    0.125272
    81  H    0.098795
    82  H    0.093433
    83  H    0.107066
    84  H    0.054308
    85  H    0.110950
    86  H    0.123959
    87  H    0.102776
    88  H    0.078031
    89  H    0.116522
    90  H    0.106226
    91  H    0.075935
    92  H    0.137063
    93  H    0.149162
    94  H    0.135230
    95  H    0.125115
    96  H    0.144003
    97  H    0.144501
    98  H    0.140709
    99  H    0.142185
   100  H    0.103994
   101  H    0.108159
   102  H    0.120310
   103  H    0.130760
   104  H    0.138114
   105  H    0.079999
   106  H    0.113652
   107  H    0.077259
   108  H    0.084267
   109  H    0.081150
   110  H    0.094085
   111  H    0.071009
   112  H    0.097612
   113  H    0.096901
   114  H    0.109265
   115  H    0.095808
   116  H    0.042865
   117  H    0.088218
   118  H    0.092497
   119  H    0.088383
   120  H    0.099961
   121  H    0.084531
   122  H    0.110245
   123  H    0.099151
   124  H    0.060246
   125  H    0.085303
   126  H    0.086158
   127  H    0.090434
   128  H    0.105965
   129  H    0.088882
   130  H    0.074453
   131  H    0.100021
   132  H    0.090671
   133  H    0.112668
   134  H    0.101730
   135  H    0.091611
   136  H    0.098154
   137  H    0.089842
 Sum of Mulliken charges =   0.00000

 Dipole moment (field-independent basis, Debye):
    X=              2.0199    Y=              4.1444    Z=             -0.1050  Tot=              4.6116
 Quadrupole moment (field-independent basis, Debye-Ang):
   XX=           -350.8243   YY=           -388.1811   ZZ=           -399.3231
   XY=            -18.3784   XZ=              2.9915   YZ=             -1.3776

 Normal termination of Gaussian 09 at Tue Jul  2 11:19:33 2019.
