 Gaussian 09, Revision D.01,
 Gaussian 09:  ES64L-G09RevD.01 24-Apr-2013

 -------------------------------------
 # td=(NStates=1) CAM-B3LYP/6-31G(d,p)
 -------------------------------------

 --
 TD
 --
 Symbolic Z-matrix:
 Charge =  0 Multiplicity = 1

                         Standard orientation:
 ---------------------------------------------------------------------
 Center     Atomic      Atomic             Coordinates (Angstroms)
 Number     Number       Type             X           Y           Z
 ---------------------------------------------------------------------
      1         12           0       -7.209442    0.623861    0.048487
      2          6           0       -4.939557   -1.981148    0.603646
      3          6           0       -4.813144    2.753737    1.308365
      4          6           0       -9.429838    3.054699   -0.517605
      5          6           0       -9.519127   -1.752851   -0.778156
      6          7           0       -5.187282    0.460094    0.756885
      7          6           0       -4.478259   -0.725543    0.823407
      8          6           0       -3.049453   -0.389312    1.207851
      9          6           0       -2.992962    1.077120    1.794920
     10          6           0       -4.405596    1.429851    1.322956
     11          6           0       -2.923629    1.034243    3.413343
     12          6           0       -1.966572   -0.567376    0.141655
     13          6           0       -0.538701   -0.293046    0.514691
     14          6           0        0.560274   -0.513694   -0.622051
     15          8           0        0.290698   -1.023517   -1.767279
     16          8           0        1.728892   -0.128069   -0.243569
     17          7           0       -7.162470    2.501647    0.325364
     18          6           0       -6.140394    3.304797    0.849282
     19          6           0       -6.437934    4.630244    0.851960
     20          6           0       -7.814583    4.780454    0.299466
     21          6           0       -8.106980    3.440344   -0.036220
     22          6           0       -5.481478    5.834948    1.292676
     23          6           0       -8.469582    6.035475    0.009846
     24          6           0       -8.358268    7.144994    0.902014
     25          7           0       -9.202185    0.702422   -0.616748
     26          6           0       -9.906698    1.851895   -0.766343
     27          6           0      -11.263614    1.463125   -1.089562
     28          6           0      -11.279673    0.066344   -1.388908
     29          6           0       -9.905523   -0.497622   -0.926086
     30          6           0      -12.446008    2.347968   -1.367148
     31          6           0      -12.423345   -0.843516   -1.842373
     32          6           0      -12.306433   -1.051687   -3.459730
     33          7           0       -7.283687   -1.377932   -0.072411
     34          6           0       -8.209032   -2.348649   -0.443240
     35          6           0       -7.829695   -3.646269   -0.490266
     36          6           0       -6.559123   -3.593361   -0.023013
     37          6           0       -6.319871   -2.284395    0.206946
     38          6           0       -8.573992   -4.796997   -0.917691
     39          6           0       -5.301778   -4.348403    0.130613
     40          8           0       -5.259325   -5.646958    0.037656
     41          6           0       -4.182973   -3.327928    0.566341
     42          6           0       -3.467706   -3.683925    1.879153
     43          8           0       -3.758816   -3.164399    3.004681
     44          8           0       -2.658074   -4.712833    1.722590
     45          6           0       -2.128374   -5.067735    2.914321
     46          6           0        2.783863   -0.392367   -1.275389
     47          6           0        4.043598   -0.154945   -0.642091
     48          6           0        5.130263    0.508905   -1.005804
     49          6           0        5.170072    1.203999   -2.334204
     50          6           0        6.467037    0.612090   -0.176540
     51          6           0        7.674399    0.002108   -0.886373
     52          6           0        8.977030    0.096923   -0.076719
     53          6           0       10.327352   -0.535589   -0.725841
     54          6           0       10.092933   -2.029787   -1.064454
     55          6           0       11.607228   -0.247446    0.062508
     56          6           0       12.826484   -0.483272   -0.719832
     57          6           0       14.033909   -0.156969    0.209659
     58          6           0       15.479657   -0.271570   -0.467404
     59          6           0       15.628625   -1.653283   -0.978035
     60          6           0       16.480063    0.234783    0.478782
     61          6           0       17.869359    0.373063   -0.207438
     62          6           0       18.852318    1.213644    0.636104
     63          6           0       20.258763    1.170007    0.115426
     64          6           0       20.441001    2.061999   -1.086965
     65          6           0       21.220489    1.828676    1.161348
     66          1           0       -4.181710    3.610830    1.848386
     67          1           0      -10.016972    4.147007   -0.702956
     68          1           0      -10.280467   -2.494055   -0.885640
     69          1           0       -2.723530   -1.164436    1.753503
     70          1           0       -2.210708    1.667455    1.284969
     71          1           0       -2.051575    0.931558    3.849759
     72          1           0       -3.092328    2.195465    3.735618
     73          1           0       -3.657575    0.306168    3.799197
     74          1           0       -2.075201   -1.428486   -0.330397
     75          1           0       -2.321769    0.052342   -0.635850
     76          1           0       -0.282031    0.819267    0.826603
     77          1           0       -0.360363   -0.993007    1.473823
     78          1           0       -5.691802    6.688776    0.798414
     79          1           0       -5.758877    6.077587    2.264872
     80          1           0       -4.346144    5.496366    1.085976
     81          1           0       -9.183382    6.226266   -1.020127
     82          1           0       -8.944112    7.983655    0.523640
     83          1           0       -7.842227    7.126338    1.810005
     84          1           0      -12.079638    3.259701   -2.017496
     85          1           0      -13.226168    1.669193   -2.035752
     86          1           0      -12.946680    2.580732   -0.301087
     87          1           0      -12.418361   -1.820885   -1.332850
     88          1           0      -13.291655   -0.419282   -1.361460
     89          1           0      -13.085127   -1.613313   -3.838091
     90          1           0      -12.372331   -0.194686   -4.021500
     91          1           0      -11.401534   -1.416773   -3.764758
     92          1           0       -9.103351   -4.598059   -1.968604
     93          1           0       -7.849478   -5.713346   -0.787615
     94          1           0       -9.426948   -4.951292   -0.216864
     95          1           0       -3.381331   -3.297527   -0.120851
     96          1           0       -1.316193   -4.271298    3.351934
     97          1           0       -2.836088   -5.360545    3.718700
     98          1           0       -1.433568   -5.890028    2.766768
     99          1           0        2.505351   -1.423214   -1.662436
    100          1           0        2.302188    0.296794   -2.220739
    101          1           0        4.105810   -0.586217    0.398691
    102          1           0        4.340725    1.261121   -2.976379
    103          1           0        5.574161    2.250006   -2.175011
    104          1           0        6.114988    0.826125   -3.077563
    105          1           0        6.740472    1.595099    0.132727
    106          1           0        6.304908    0.143208    0.790398
    107          1           0        7.136352   -0.961248   -1.122115
    108          1           0        7.811710    0.412051   -1.874722
    109          1           0        9.183426    1.102187    0.272586
    110          1           0        8.861666   -0.493921    0.745025
    111          1           0       10.507544   -0.162796   -1.705525
    112          1           0        9.186008   -2.173319   -1.654079
    113          1           0       10.894181   -2.459184   -1.470294
    114          1           0        9.961926   -2.729634   -0.128424
    115          1           0       11.669713    0.923308    0.281927
    116          1           0       11.572321   -0.942304    0.930872
    117          1           0       12.781748   -1.439110   -0.938966
    118          1           0       12.932518   -0.025077   -1.815362
    119          1           0       13.957932    0.798634    0.590702
    120          1           0       14.099823   -0.664134    1.234762
    121          1           0       15.372817    0.391219   -1.424302
    122          1           0       15.656289   -2.392875   -0.197106
    123          1           0       14.735474   -1.812693   -1.713170
    124          1           0       16.528514   -1.757151   -1.613900
    125          1           0       16.148809    1.281162    0.754546
    126          1           0       16.752473   -0.480505    1.324554
    127          1           0       18.240655   -0.763575   -0.388092
    128          1           0       17.810026    1.047053   -1.056391
    129          1           0       18.305976    2.272741    0.579357
    130          1           0       18.592215    0.890810    1.721396
    131          1           0       20.532255    0.191923    0.127788
    132          1           0       19.834419    3.054609   -0.869416
    133          1           0       21.521067    2.295029   -1.306153
    134          1           0       20.100300    1.554232   -2.045822
    135          1           0       21.397235    1.123137    1.998222
    136          1           0       22.339578    2.082307    0.717743
    137          1           0       20.662378    2.672280    1.627502
 ---------------------------------------------------------------------

 SCF Done:  E(RCAM-B3LYP) =  -2932.58401959     A.U. after   19 cycles

 Excitation energies and oscillator strengths:

 Excited State   1:      Singlet-A      1.8489 eV  670.57 nm  f=0.3508  <S**2>=0.000
     240 -> 242       -0.21269
     240 -> 243       -0.16970
     241 -> 242        0.64311
 This state for optimization and/or second-order correction.
 Total Energy, E(TD-HF/TD-KS) =  -2932.51607194
 Copying the excited state density for this state as the 1-particle RhoCI density.

 The electronic state is 1-A.
 Alpha  occ. eigenvalues --  -46.83275 -19.28963 -19.27962 -19.21146 -19.20415
 Alpha  occ. eigenvalues --  -19.20112 -14.41766 -14.39328 -14.39118 -14.39054
 Alpha  occ. eigenvalues --  -10.40345 -10.39880 -10.36290 -10.34285 -10.31870
 Alpha  occ. eigenvalues --  -10.30647 -10.30276 -10.29940 -10.29900 -10.29864
 Alpha  occ. eigenvalues --  -10.29647 -10.29638 -10.29500 -10.29177 -10.28835
 Alpha  occ. eigenvalues --  -10.28821 -10.28643 -10.28620 -10.28322 -10.28260
 Alpha  occ. eigenvalues --  -10.27653 -10.27621 -10.27462 -10.27374 -10.27195
 Alpha  occ. eigenvalues --  -10.27188 -10.27127 -10.26925 -10.26924 -10.26896
 Alpha  occ. eigenvalues --  -10.26855 -10.26830 -10.26542 -10.26394 -10.26240
 Alpha  occ. eigenvalues --  -10.26111 -10.26088 -10.25994 -10.25970 -10.25968
 Alpha  occ. eigenvalues --  -10.25931 -10.25720 -10.25541 -10.25500 -10.25490
 Alpha  occ. eigenvalues --  -10.25480 -10.25258 -10.25248 -10.24822 -10.24700
 Alpha  occ. eigenvalues --  -10.24513 -10.24423 -10.24400 -10.24236 -10.24090
 Alpha  occ. eigenvalues --   -3.12569  -1.87243  -1.86846  -1.86752  -1.22084
 Alpha  occ. eigenvalues --   -1.19669  -1.07760  -1.06823  -1.06005  -1.05277
 Alpha  occ. eigenvalues --   -1.03430  -1.02710  -1.01251  -0.92419  -0.91774
 Alpha  occ. eigenvalues --   -0.91215  -0.90175  -0.90023  -0.89311  -0.88712
 Alpha  occ. eigenvalues --   -0.88655  -0.87959  -0.86907  -0.86839  -0.86553
 Alpha  occ. eigenvalues --   -0.84992  -0.84223  -0.83665  -0.82916  -0.82076
 Alpha  occ. eigenvalues --   -0.81847  -0.81490  -0.80645  -0.80046  -0.78144
 Alpha  occ. eigenvalues --   -0.77788  -0.76800  -0.76308  -0.76185  -0.75380
 Alpha  occ. eigenvalues --   -0.74959  -0.74624  -0.74162  -0.73962  -0.73372
 Alpha  occ. eigenvalues --   -0.71711  -0.71340  -0.69893  -0.69351  -0.68332
 Alpha  occ. eigenvalues --   -0.67435  -0.66866  -0.65490  -0.65310  -0.64790
 Alpha  occ. eigenvalues --   -0.64319  -0.63625  -0.63398  -0.62599  -0.61760
 Alpha  occ. eigenvalues --   -0.61539  -0.61205  -0.60586  -0.59718  -0.59389
 Alpha  occ. eigenvalues --   -0.58260  -0.58150  -0.57765  -0.57105  -0.56716
 Alpha  occ. eigenvalues --   -0.56349  -0.55846  -0.55376  -0.55156  -0.54871
 Alpha  occ. eigenvalues --   -0.54547  -0.54361  -0.54327  -0.54003  -0.53709
 Alpha  occ. eigenvalues --   -0.53177  -0.52950  -0.52307  -0.51568  -0.51358
 Alpha  occ. eigenvalues --   -0.51034  -0.50833  -0.50750  -0.50576  -0.50530
 Alpha  occ. eigenvalues --   -0.50121  -0.50088  -0.49771  -0.49309  -0.49204
 Alpha  occ. eigenvalues --   -0.48899  -0.48755  -0.48242  -0.48051  -0.47872
 Alpha  occ. eigenvalues --   -0.47706  -0.47506  -0.47359  -0.47165  -0.46723
 Alpha  occ. eigenvalues --   -0.46502  -0.46114  -0.46028  -0.45891  -0.45666
 Alpha  occ. eigenvalues --   -0.45403  -0.45269  -0.45142  -0.45022  -0.44751
 Alpha  occ. eigenvalues --   -0.44538  -0.44309  -0.44265  -0.44061  -0.43977
 Alpha  occ. eigenvalues --   -0.43878  -0.43777  -0.43551  -0.43331  -0.43164
 Alpha  occ. eigenvalues --   -0.43007  -0.42650  -0.42592  -0.42470  -0.42253
 Alpha  occ. eigenvalues --   -0.42095  -0.41853  -0.41685  -0.41566  -0.41461
 Alpha  occ. eigenvalues --   -0.41056  -0.40801  -0.40586  -0.40481  -0.40237
 Alpha  occ. eigenvalues --   -0.40085  -0.39825  -0.39540  -0.39464  -0.39238
 Alpha  occ. eigenvalues --   -0.38895  -0.38776  -0.38526  -0.38424  -0.37818
 Alpha  occ. eigenvalues --   -0.37764  -0.37521  -0.37393  -0.37334  -0.37105
 Alpha  occ. eigenvalues --   -0.36946  -0.36723  -0.36183  -0.35987  -0.35658
 Alpha  occ. eigenvalues --   -0.35058  -0.34855  -0.34470  -0.33610  -0.32901
 Alpha  occ. eigenvalues --   -0.32818  -0.32739  -0.31357  -0.31167  -0.30498
 Alpha  occ. eigenvalues --   -0.30395  -0.29652  -0.27448  -0.26786  -0.22391
 Alpha  occ. eigenvalues --   -0.21948
 Alpha virt. eigenvalues --   -0.08642  -0.01993   0.01022   0.03016   0.04456
 Alpha virt. eigenvalues --    0.04877   0.05713   0.05974   0.06281   0.07584
 Alpha virt. eigenvalues --    0.07976   0.10666   0.10743   0.11097   0.11499

 Mulliken charges:
               1
     1  Mg   0.824495
     2  C    0.051653
     3  C   -0.213727
     4  C   -0.186970
     5  C   -0.208640
     6  N   -0.636417
     7  C    0.315224
     8  C   -0.160629
     9  C   -0.135340
    10  C    0.332762
    11  C   -0.295878
    12  C   -0.177710
    13  C   -0.251705
    14  C    0.601582
    15  O   -0.525509
    16  O   -0.436707
    17  N   -0.730486
    18  C    0.312454
    19  C   -0.031990
    20  C    0.031913
    21  C    0.281541
    22  C   -0.353173
    23  C   -0.123972
    24  C   -0.228365
    25  N   -0.718058
    26  C    0.381813
    27  C    0.002605
    28  C   -0.001803
    29  C    0.329275
    30  C   -0.354726
    31  C   -0.247064
    32  C   -0.327803
    33  N   -0.679458
    34  C    0.234575
    35  C    0.091592
    36  C    0.028973
    37  C    0.275039
    38  C   -0.396048
    39  C    0.363941
    40  O   -0.499214
    41  C   -0.301157
    42  C    0.617858
    43  O   -0.495860
    44  O   -0.375532
    45  C   -0.092273
    46  C   -0.011302
    47  C   -0.132137
    48  C    0.130877
    49  C   -0.361990
    50  C   -0.231262
    51  C   -0.184266
    52  C   -0.175442
    53  C   -0.079217
    54  C   -0.321364
    55  C   -0.169231
    56  C   -0.173507
    57  C   -0.181025
    58  C   -0.047812
    59  C   -0.298009
    60  C   -0.171448
    61  C   -0.175161
    62  C   -0.180127
    63  C   -0.035892
    64  C   -0.294830
    65  C   -0.303276
    66  H    0.081818
    67  H    0.086978
    68  H    0.083593
    69  H    0.103166
    70  H    0.115077
    71  H    0.125579
    72  H    0.074066
    73  H    0.140011
    74  H    0.118029
    75  H    0.109528
    76  H    0.115542
    77  H    0.112215
    78  H    0.132637
    79  H    0.132619
    80  H    0.102604
    81  H    0.096748
    82  H    0.106100
    83  H    0.113271
    84  H    0.112446
    85  H    0.100937
    86  H    0.115286
    87  H    0.109636
    88  H    0.112726
    89  H    0.111445
    90  H    0.119776
    91  H    0.126182
    92  H    0.111746
    93  H    0.149796
    94  H    0.126401
    95  H    0.169021
    96  H    0.089701
    97  H    0.141690
    98  H    0.117879
    99  H    0.160553
   100  H    0.121330
   101  H    0.098503
   102  H    0.123287
   103  H    0.114200
   104  H    0.085033
   105  H    0.106135
   106  H    0.102104
   107  H    0.098037
   108  H    0.100316
   109  H    0.092959
   110  H    0.108063
   111  H    0.087509
   112  H    0.112512
   113  H    0.113560
   114  H    0.070977
   115  H    0.074128
   116  H    0.098551
   117  H    0.115010
   118  H    0.076750
   119  H    0.093036
   120  H    0.076334
   121  H    0.069082
   122  H    0.100852
   123  H    0.087561
   124  H    0.098448
   125  H    0.086502
   126  H    0.089807
   127  H    0.071621
   128  H    0.101299
   129  H    0.067731
   130  H    0.075825
   131  H    0.103301
   132  H    0.094721
   133  H    0.101347
   134  H    0.093984
   135  H    0.091868
   136  H    0.074745
   137  H    0.103506
 Sum of Mulliken charges =   0.00000

 Dipole moment (field-independent basis, Debye):
    X=              2.3770    Y=              4.7470    Z=              0.0118  Tot=              5.3089
 Quadrupole moment (field-independent basis, Debye-Ang):
   XX=           -339.0885   YY=           -398.8812   ZZ=           -397.4212
   XY=            -28.2581   XZ=             14.0659   YZ=             -3.6845

 Normal termination of Gaussian 09 at Wed Jul  3 05:12:51 2019.
