 Gaussian 16, Revision A.03,
 Gaussian 16:  ES64L-G16RevA.03 25-Dec-2016

 ----------------------------------------------------------------------
 # td=(NStates=1) iop(3/107=0140000000,3/108=0140000000) CAM-B3LYP/6-31
 G(d,p)
 ----------------------------------------------------------------------

 --
 TD
 --
 Symbolic Z-matrix:
 Charge =  0 Multiplicity = 1

                         Standard orientation:
 ---------------------------------------------------------------------
 Center     Atomic      Atomic             Coordinates (Angstroms)
 Number     Number       Type             X           Y           Z
 ---------------------------------------------------------------------
      1         12           0       -7.158777    0.638081    0.205290
      2          6           0       -4.850767   -1.960152    0.538016
      3          6           0       -4.828890    2.849602    1.128624
      4          6           0       -9.464772    3.078321   -0.268530
      5          6           0       -9.482097   -1.725638   -0.981710
      6          7           0       -5.157538    0.428622    0.739157
      7          6           0       -4.376744   -0.696260    0.802964
      8          6           0       -2.945455   -0.419928    1.289149
      9          6           0       -3.024085    1.061310    1.628163
     10          6           0       -4.372973    1.483541    1.203587
     11          6           0       -3.001885    1.311862    3.158149
     12          6           0       -1.940222   -0.655128    0.150937
     13          6           0       -0.493132   -0.629941    0.676838
     14          6           0        0.448057   -0.597784   -0.459809
     15          8           0        0.207875   -1.075337   -1.610560
     16          8           0        1.762219   -0.359467   -0.104279
     17          7           0       -7.154157    2.571783    0.386186
     18          6           0       -5.978983    3.410954    0.660530
     19          6           0       -6.378343    4.789711    0.622608
     20          6           0       -7.677874    4.873139    0.298149
     21          6           0       -8.134552    3.491136    0.044977
     22          6           0       -5.295562    5.852342    0.828248
     23          6           0       -8.546208    6.063842    0.234643
     24          6           0       -8.341171    7.290621    0.758012
     25          7           0       -9.086055    0.651476   -0.547542
     26          6           0       -9.838490    1.876011   -0.634248
     27          6           0      -11.250654    1.516584   -0.968326
     28          6           0      -11.272885    0.140383   -1.202863
     29          6           0       -9.989349   -0.312492   -0.824655
     30          6           0      -12.314634    2.480038   -1.450346
     31          6           0      -12.455840   -0.788234   -1.669781
     32          6           0      -12.373098   -1.128774   -3.214775
     33          7           0       -7.231766   -1.333833   -0.221949
     34          6           0       -8.245768   -2.222569   -0.650216
     35          6           0       -7.851778   -3.635509   -0.670915
     36          6           0       -6.567932   -3.613642   -0.074575
     37          6           0       -6.202221   -2.193223    0.086796
     38          6           0       -8.738076   -4.766083   -0.908646
     39          6           0       -5.324986   -4.387887    0.248592
     40          8           0       -5.204288   -5.563604    0.122963
     41          6           0       -4.193453   -3.231935    0.496726
     42          6           0       -3.530799   -3.674918    1.832163
     43          8           0       -3.838977   -3.137274    2.826765
     44          8           0       -2.783664   -4.717844    1.700586
     45          6           0       -2.239347   -5.322648    2.935340
     46          6           0        2.839760   -0.651202   -1.111738
     47          6           0        4.154515   -0.502395   -0.511293
     48          6           0        5.135011    0.285333   -0.870805
     49          6           0        5.286039    1.152788   -2.193729
     50          6           0        6.497883    0.266214   -0.132305
     51          6           0        7.586155   -0.439545   -0.867141
     52          6           0        8.945037   -0.288534   -0.137383
     53          6           0       10.178760   -0.621215   -0.819985
     54          6           0       10.174259   -2.106405   -1.479244
     55          6           0       11.484901   -0.292932    0.080790
     56          6           0       12.805455   -0.411760   -0.694156
     57          6           0       13.954316   -0.040675    0.256138
     58          6           0       15.345902   -0.158701   -0.333002
     59          6           0       15.778542   -1.558595   -0.773399
     60          6           0       16.477460    0.434438    0.511092
     61          6           0       17.767985    0.577335   -0.205512
     62          6           0       18.720324    1.420507    0.661679
     63          6           0       20.229496    1.360768    0.175911
     64          6           0       20.373123    2.092890   -1.165549
     65          6           0       21.165082    2.006076    1.186332
     66          1           0       -4.140576    3.514647    1.390018
     67          1           0      -10.051641    4.188117   -0.259098
     68          1           0      -10.225160   -2.312193   -1.502947
     69          1           0       -2.811033   -1.239270    2.120022
     70          1           0       -2.388696    1.718853    1.002655
     71          1           0       -1.934263    1.012072    3.482541
     72          1           0       -3.022409    2.327641    3.411111
     73          1           0       -3.668974    0.723497    3.647947
     74          1           0       -1.961019   -1.638214   -0.132018
     75          1           0       -2.303942   -0.084692   -0.747235
     76          1           0       -0.601599    0.329637    1.186761
     77          1           0       -0.028025   -1.479081    1.184483
     78          1           0       -5.740793    6.830581    0.180769
     79          1           0       -5.124121    6.219544    1.838846
     80          1           0       -4.331211    5.625512    0.436705
     81          1           0       -9.152872    6.172603   -0.668480
     82          1           0       -9.128461    8.069087    0.737902
     83          1           0       -7.621896    7.510562    1.509051
     84          1           0      -12.065239    3.108585   -2.429907
     85          1           0      -13.267191    1.938303   -1.241914
     86          1           0      -12.163351    3.368405   -0.523544
     87          1           0      -12.615521   -1.570915   -0.866617
     88          1           0      -13.391549   -0.039465   -1.747407
     89          1           0      -13.208838   -1.745974   -3.709435
     90          1           0      -12.182249   -0.131490   -3.697242
     91          1           0      -11.508844   -1.941278   -3.242897
     92          1           0       -8.885105   -4.609843   -2.056178
     93          1           0       -8.165366   -5.745604   -0.462012
     94          1           0       -9.709582   -4.648241   -0.336782
     95          1           0       -3.618353   -3.363882   -0.406957
     96          1           0       -1.553414   -4.589066    3.396706
     97          1           0       -3.085856   -5.569467    3.545083
     98          1           0       -1.500597   -6.044602    2.526737
     99          1           0        2.727391   -1.690358   -1.370472
    100          1           0        2.634703   -0.003933   -1.928628
    101          1           0        4.431474   -0.822234    0.500065
    102          1           0        4.381309    1.335410   -2.769878
    103          1           0        5.630448    2.195762   -2.003317
    104          1           0        6.155829    0.502607   -2.867677
    105          1           0        6.801586    1.255149    0.267335
    106          1           0        6.469649   -0.204165    0.892868
    107          1           0        7.209664   -1.451644   -1.036259
    108          1           0        7.368234    0.048890   -1.845032
    109          1           0        9.141079    0.883966    0.034667
    110          1           0        8.994084   -0.765553    0.721395
    111          1           0       10.301055    0.264866   -1.700775
    112          1           0        9.350831   -2.262628   -2.205028
    113          1           0       11.326799   -2.122803   -2.046987
    114          1           0       10.075615   -2.723534   -0.583195
    115          1           0       11.117196    0.723955    0.415855
    116          1           0       11.524443   -1.033082    0.963258
    117          1           0       12.947094   -1.479495   -1.014624
    118          1           0       12.742495    0.363670   -1.605914
    119          1           0       13.878021    0.794887    0.947486
    120          1           0       13.976004   -0.967914    0.975739
    121          1           0       15.038494    0.603617   -1.317073
    122          1           0       16.116664   -2.235226    0.052614
    123          1           0       15.170597   -2.070724   -1.530776
    124          1           0       16.711281   -1.539173   -1.570217
    125          1           0       16.090450    1.272257    0.706817
    126          1           0       16.704187   -0.265035    1.405650
    127          1           0       18.323832   -0.353466   -0.723428
    128          1           0       17.600898    1.061551   -1.049636
    129          1           0       18.260706    2.374987    0.554557
    130          1           0       18.756700    1.175213    1.655190
    131          1           0       20.344110    0.260416    0.103543
    132          1           0       19.900445    2.938153   -1.144454
    133          1           0       21.341298    1.866351   -1.389828
    134          1           0       19.749123    1.577039   -2.012332
    135          1           0       21.130087    1.571977    2.090542
    136          1           0       22.144108    2.076104    0.837780
    137          1           0       20.806164    3.098408    1.262188
 ---------------------------------------------------------------------

 SCF Done:  E(RCAM-B3LYP) =  -2933.40832504     A.U. after   16 cycles

 Excitation energies and oscillator strengths:

 Excited State   1:      Singlet-A      1.8803 eV  659.39 nm  f=0.2357  <S**2>=0.000
     240 -> 243       -0.20349
     241 -> 242        0.67415
 This state for optimization and/or second-order correction.
 Total Energy, E(TD-HF/TD-DFT) =  -2933.33922554
 Copying the excited state density for this state as the 1-particle RhoCI density.

 The electronic state is 1-A.
 Alpha  occ. eigenvalues --  -46.78330 -19.22599 -19.21093 -19.17057 -19.16223
 Alpha  occ. eigenvalues --  -19.15876 -14.37421 -14.35057 -14.34671 -14.34517
 Alpha  occ. eigenvalues --  -10.34480 -10.33933 -10.31029 -10.28265 -10.27241
 Alpha  occ. eigenvalues --  -10.26218 -10.25668 -10.24763 -10.24661 -10.24456
 Alpha  occ. eigenvalues --  -10.24282 -10.24279 -10.24260 -10.24176 -10.23932
 Alpha  occ. eigenvalues --  -10.23889 -10.23886 -10.23823 -10.23806 -10.23701
 Alpha  occ. eigenvalues --  -10.23542 -10.23490 -10.23403 -10.23101 -10.22868
 Alpha  occ. eigenvalues --  -10.22833 -10.22811 -10.22773 -10.22710 -10.22569
 Alpha  occ. eigenvalues --  -10.22531 -10.22467 -10.22312 -10.22188 -10.22104
 Alpha  occ. eigenvalues --  -10.22024 -10.21870 -10.21668 -10.21629 -10.21618
 Alpha  occ. eigenvalues --  -10.21542 -10.21499 -10.21451 -10.21385 -10.21328
 Alpha  occ. eigenvalues --  -10.21260 -10.21063 -10.21017 -10.21014 -10.20458
 Alpha  occ. eigenvalues --  -10.19510 -10.19445 -10.18880 -10.18843 -10.18499
 Alpha  occ. eigenvalues --   -3.07197  -1.82109  -1.81679  -1.81626  -1.15316
 Alpha  occ. eigenvalues --   -1.09958  -1.08186  -1.06372  -1.00853  -0.98451
 Alpha  occ. eigenvalues --   -0.96922  -0.96186  -0.95101  -0.87240  -0.86643
 Alpha  occ. eigenvalues --   -0.85939  -0.85809  -0.84456  -0.83516  -0.83344
 Alpha  occ. eigenvalues --   -0.83285  -0.82528  -0.82307  -0.81781  -0.81109
 Alpha  occ. eigenvalues --   -0.80496  -0.79316  -0.78736  -0.78234  -0.76864
 Alpha  occ. eigenvalues --   -0.76692  -0.76407  -0.75819  -0.74637  -0.73619
 Alpha  occ. eigenvalues --   -0.72608  -0.71964  -0.71905  -0.71141  -0.70906
 Alpha  occ. eigenvalues --   -0.70554  -0.69931  -0.69682  -0.69472  -0.67832
 Alpha  occ. eigenvalues --   -0.67167  -0.66008  -0.64656  -0.63871  -0.63121
 Alpha  occ. eigenvalues --   -0.62894  -0.61865  -0.61026  -0.60774  -0.60485
 Alpha  occ. eigenvalues --   -0.59529  -0.58973  -0.58285  -0.57495  -0.57395
 Alpha  occ. eigenvalues --   -0.56540  -0.56204  -0.55498  -0.55301  -0.54819
 Alpha  occ. eigenvalues --   -0.54285  -0.53902  -0.53679  -0.53136  -0.52910
 Alpha  occ. eigenvalues --   -0.52632  -0.51637  -0.51472  -0.51381  -0.50906
 Alpha  occ. eigenvalues --   -0.50541  -0.50380  -0.50118  -0.50100  -0.49738
 Alpha  occ. eigenvalues --   -0.49496  -0.48741  -0.48463  -0.48139  -0.47976
 Alpha  occ. eigenvalues --   -0.47481  -0.47264  -0.47112  -0.47070  -0.46933
 Alpha  occ. eigenvalues --   -0.46595  -0.46289  -0.46267  -0.46107  -0.46083
 Alpha  occ. eigenvalues --   -0.45668  -0.45436  -0.45289  -0.45220  -0.44823
 Alpha  occ. eigenvalues --   -0.44728  -0.44094  -0.43960  -0.43604  -0.43423
 Alpha  occ. eigenvalues --   -0.43278  -0.43025  -0.42958  -0.42758  -0.42561
 Alpha  occ. eigenvalues --   -0.42205  -0.42174  -0.41857  -0.41807  -0.41480
 Alpha  occ. eigenvalues --   -0.41446  -0.41152  -0.41040  -0.40823  -0.40623
 Alpha  occ. eigenvalues --   -0.40377  -0.40347  -0.40019  -0.39807  -0.39657
 Alpha  occ. eigenvalues --   -0.39362  -0.39275  -0.39187  -0.39165  -0.38980
 Alpha  occ. eigenvalues --   -0.38875  -0.38506  -0.38463  -0.38070  -0.37991
 Alpha  occ. eigenvalues --   -0.37780  -0.37550  -0.37160  -0.36989  -0.36685
 Alpha  occ. eigenvalues --   -0.36377  -0.36192  -0.36037  -0.35840  -0.35583
 Alpha  occ. eigenvalues --   -0.35381  -0.35063  -0.34694  -0.34614  -0.34053
 Alpha  occ. eigenvalues --   -0.33882  -0.33566  -0.33414  -0.33364  -0.33118
 Alpha  occ. eigenvalues --   -0.32973  -0.32866  -0.32649  -0.32164  -0.32021
 Alpha  occ. eigenvalues --   -0.31956  -0.31446  -0.31148  -0.30724  -0.30148
 Alpha  occ. eigenvalues --   -0.29965  -0.29370  -0.28981  -0.28039  -0.28003
 Alpha  occ. eigenvalues --   -0.26953  -0.26469  -0.25445  -0.25057  -0.21708
 Alpha  occ. eigenvalues --   -0.18463
 Alpha virt. eigenvalues --   -0.06385  -0.03800   0.00104   0.01927   0.02772
 Alpha virt. eigenvalues --    0.03973   0.04370   0.05087   0.05905   0.06492
 Alpha virt. eigenvalues --    0.06989   0.08471   0.08494   0.09173   0.09741

 Mulliken charges:
               1
     1  Mg   0.804178
     2  C    0.137077
     3  C   -0.186812
     4  C   -0.150811
     5  C   -0.203566
     6  N   -0.630166
     7  C    0.305773
     8  C   -0.168549
     9  C   -0.155343
    10  C    0.312364
    11  C   -0.297249
    12  C   -0.178259
    13  C   -0.255134
    14  C    0.585330
    15  O   -0.493096
    16  O   -0.504780
    17  N   -0.698517
    18  C    0.281829
    19  C    0.045801
    20  C    0.024842
    21  C    0.262415
    22  C   -0.380370
    23  C   -0.100095
    24  C   -0.252743
    25  N   -0.642522
    26  C    0.279471
    27  C   -0.013049
    28  C    0.047669
    29  C    0.278693
    30  C   -0.349085
    31  C   -0.250130
    32  C   -0.292148
    33  N   -0.691428
    34  C    0.300837
    35  C    0.030995
    36  C   -0.001160
    37  C    0.255609
    38  C   -0.362239
    39  C    0.352140
    40  O   -0.427329
    41  C   -0.377245
    42  C    0.603648
    43  O   -0.459166
    44  O   -0.434401
    45  C   -0.098743
    46  C    0.033920
    47  C   -0.115845
    48  C    0.099799
    49  C   -0.357007
    50  C   -0.231719
    51  C   -0.158753
    52  C   -0.140502
    53  C   -0.068607
    54  C   -0.303500
    55  C   -0.163766
    56  C   -0.159689
    57  C   -0.169180
    58  C   -0.042389
    59  C   -0.313555
    60  C   -0.130559
    61  C   -0.175252
    62  C   -0.175007
    63  C   -0.079592
    64  C   -0.287703
    65  C   -0.301599
    66  H    0.045637
    67  H    0.081461
    68  H    0.072508
    69  H    0.126719
    70  H    0.114108
    71  H    0.087475
    72  H    0.118899
    73  H    0.141331
    74  H    0.126086
    75  H    0.126776
    76  H    0.136267
    77  H    0.155179
    78  H    0.089946
    79  H    0.124702
    80  H    0.125614
    81  H    0.107607
    82  H    0.102608
    83  H    0.104322
    84  H    0.127445
    85  H    0.122783
    86  H    0.075744
    87  H    0.113861
    88  H    0.083738
    89  H    0.105511
    90  H    0.122861
    91  H    0.089262
    92  H    0.126870
    93  H    0.134286
    94  H    0.132483
    95  H    0.163547
    96  H    0.128534
    97  H    0.155970
    98  H    0.138571
    99  H    0.132974
   100  H    0.129618
   101  H    0.092677
   102  H    0.114076
   103  H    0.123906
   104  H    0.100325
   105  H    0.097757
   106  H    0.077949
   107  H    0.100077
   108  H    0.083294
   109  H    0.071552
   110  H    0.102890
   111  H    0.037188
   112  H    0.113619
   113  H    0.074391
   114  H    0.105046
   115  H    0.088292
   116  H    0.078819
   117  H    0.110650
   118  H    0.076344
   119  H    0.095478
   120  H    0.065466
   121  H    0.029853
   122  H    0.107161
   123  H    0.101041
   124  H    0.077741
   125  H    0.089392
   126  H    0.080828
   127  H    0.066204
   128  H    0.105265
   129  H    0.085598
   130  H    0.087846
   131  H    0.081105
   132  H    0.114425
   133  H    0.110150
   134  H    0.071584
   135  H    0.108391
   136  H    0.103150
   137  H    0.085137
 Sum of Mulliken charges =  -0.00000

 Dipole moment (field-independent basis, Debye):
    X=              2.9334    Y=              1.9723    Z=              1.7786  Tot=              3.9571
 Quadrupole moment (field-independent basis, Debye-Ang):
   XX=           -371.0530   YY=           -387.5311   ZZ=           -396.7837
   XY=             -8.9497   XZ=             14.5927   YZ=             -7.6084

 Normal termination of Gaussian 16 at Mon Sep 23 16:03:22 2019.
