 Gaussian 09, Revision D.01,
 Gaussian 09:  ES64L-G09RevD.01 24-Apr-2013

 -------------------------------------
 # td=(NStates=1) CAM-B3LYP/6-31G(d,p)
 -------------------------------------

 --
 TD
 --
 Symbolic Z-matrix:
 Charge =  0 Multiplicity = 1

                         Standard orientation:
 ---------------------------------------------------------------------
 Center     Atomic      Atomic             Coordinates (Angstroms)
 Number     Number       Type             X           Y           Z
 ---------------------------------------------------------------------
      1         12           0       -7.046800    0.634656    0.000688
      2          6           0       -4.929742   -1.913510    0.616887
      3          6           0       -4.838268    2.775953    1.194071
      4          6           0       -9.399634    3.113895   -0.467847
      5          6           0       -9.481358   -1.728324   -1.001522
      6          7           0       -5.026985    0.495534    0.727419
      7          6           0       -4.339423   -0.662187    0.861390
      8          6           0       -2.897686   -0.386507    1.297615
      9          6           0       -3.044900    1.148400    1.774326
     10          6           0       -4.380983    1.511211    1.272137
     11          6           0       -3.061440    1.181944    3.260103
     12          6           0       -1.976205   -0.568155    0.141780
     13          6           0       -0.512028   -0.464797    0.545522
     14          6           0        0.454402   -0.676409   -0.678605
     15          8           0        0.175954   -1.023818   -1.770921
     16          8           0        1.644109   -0.470720   -0.215603
     17          7           0       -7.199830    2.715631    0.411697
     18          6           0       -5.992747    3.377243    0.805347
     19          6           0       -6.392957    4.747216    0.905262
     20          6           0       -7.733303    4.764262    0.413495
     21          6           0       -8.152307    3.488733    0.059670
     22          6           0       -5.496490    6.006158    1.258520
     23          6           0       -8.559971    6.011464    0.236792
     24          6           0       -8.592895    7.182601    0.916585
     25          7           0       -9.097567    0.648801   -0.695920
     26          6           0       -9.895155    1.775190   -0.720601
     27          6           0      -11.249454    1.420611   -1.208635
     28          6           0      -11.298360    0.082301   -1.369066
     29          6           0       -9.964179   -0.428257   -0.990429
     30          6           0      -12.355199    2.425886   -1.475674
     31          6           0      -12.346504   -0.741837   -1.917666
     32          6           0      -12.138421   -1.103032   -3.345711
     33          7           0       -7.248972   -1.325545   -0.182494
     34          6           0       -8.288735   -2.216728   -0.610428
     35          6           0       -7.821855   -3.648636   -0.437159
     36          6           0       -6.533730   -3.537599   -0.131840
     37          6           0       -6.200069   -2.123800    0.077212
     38          6           0       -8.674455   -4.801094   -0.868906
     39          6           0       -5.376579   -4.369920    0.361485
     40          8           0       -5.246583   -5.582935    0.522071
     41          6           0       -4.187336   -3.329971    0.681257
     42          6           0       -3.564809   -3.728755    2.012155
     43          8           0       -3.691550   -3.133024    3.104045
     44          8           0       -2.748946   -4.809124    1.783048
     45          6           0       -2.152162   -5.205742    2.974208
     46          6           0        2.718791   -0.667392   -1.162615
     47          6           0        4.031467   -0.550680   -0.618340
     48          6           0        5.045860    0.172699   -1.051210
     49          6           0        5.139608    1.003518   -2.265336
     50          6           0        6.401843    0.278191   -0.292157
     51          6           0        7.720455   -0.260632   -1.028432
     52          6           0        8.905974   -0.016759   -0.220746
     53          6           0       10.291235   -0.566577   -0.931270
     54          6           0       10.173330   -1.894683   -1.288263
     55          6           0       11.453409   -0.263544    0.000914
     56          6           0       12.831560   -0.544813   -0.720120
     57          6           0       14.009793    0.124714    0.062225
     58          6           0       15.426059    0.029557   -0.592172
     59          6           0       15.750051   -1.520826   -0.847891
     60          6           0       16.522401    0.529894    0.399076
     61          6           0       17.831294    0.745047   -0.256336
     62          6           0       18.823758    1.168851    0.761203
     63          6           0       20.308183    1.277696    0.280986
     64          6           0       20.507690    1.888153   -1.044275
     65          6           0       21.256981    1.817689    1.408188
     66          1           0       -4.053833    3.197469    1.617413
     67          1           0       -9.922653    3.926728   -0.567246
     68          1           0      -10.340421   -2.347436   -1.399051
     69          1           0       -2.623040   -0.951684    2.107368
     70          1           0       -2.371958    1.721027    1.332095
     71          1           0       -2.027021    0.722681    3.577653
     72          1           0       -3.131677    2.270394    3.481847
     73          1           0       -3.725735    0.497731    3.410760
     74          1           0       -1.997159   -1.468737   -0.374494
     75          1           0       -2.149481   -0.064050   -0.860730
     76          1           0       -0.353291    0.540305    0.983319
     77          1           0       -0.449634   -1.065049    1.385629
     78          1           0       -5.801878    6.798514    0.686548
     79          1           0       -5.516769    6.296195    2.566404
     80          1           0       -4.615927    5.758761    0.729073
     81          1           0       -9.279895    5.964818   -0.499009
     82          1           0       -9.227405    7.850458    0.725808
     83          1           0       -7.820753    7.411775    1.762955
     84          1           0      -11.790972    2.969742   -2.347298
     85          1           0      -13.228619    1.814503   -1.641569
     86          1           0      -12.590871    3.137159   -0.650797
     87          1           0      -12.583633   -1.761790   -1.435179
     88          1           0      -13.398077   -0.147902   -1.966846
     89          1           0      -12.816660   -1.862828   -3.812549
     90          1           0      -12.306834   -0.153931   -4.264540
     91          1           0      -11.150936   -1.446038   -3.508088
     92          1           0       -8.643650   -4.643834   -1.924558
     93          1           0       -8.289318   -5.759244   -0.328145
     94          1           0       -9.868204   -4.687540   -0.545647
     95          1           0       -3.450179   -3.636730   -0.096463
     96          1           0       -1.434121   -4.584057    3.596579
     97          1           0       -2.824103   -5.576614    3.713563
     98          1           0       -1.401734   -5.902879    2.850331
     99          1           0        2.617039   -1.615089   -1.708465
    100          1           0        2.504300   -0.014536   -2.049146
    101          1           0        4.135451   -0.992748    0.349705
    102          1           0        4.079075    1.503341   -2.591396
    103          1           0        5.731682    1.986493   -2.127611
    104          1           0        5.566867    0.490982   -3.185814
    105          1           0        6.405976    1.430658   -0.130520
    106          1           0        6.387603   -0.183169    0.784644
    107          1           0        7.539817   -1.289950   -1.353899
    108          1           0        7.846603    0.326783   -1.987993
    109          1           0        9.042312    1.058319    0.031255
    110          1           0        8.628363   -0.558404    0.708953
    111          1           0       10.284870    0.006314   -1.900594
    112          1           0        9.282155   -1.775203   -2.083225
    113          1           0       10.851741   -2.031165   -1.914470
    114          1           0       10.112319   -2.722108   -0.344189
    115          1           0       11.502802    0.751423    0.268429
    116          1           0       11.281890   -0.922816    0.958643
    117          1           0       13.112967   -1.671364   -0.656288
    118          1           0       12.666355    0.045616   -1.589651
    119          1           0       13.901361    1.246973    0.632129
    120          1           0       13.931210   -0.526517    0.994415
    121          1           0       15.328236    0.455837   -1.636000
    122          1           0       15.606490   -2.409781    0.115589
    123          1           0       15.137027   -1.835297   -1.583336
    124          1           0       16.738499   -1.600914   -1.397596
    125          1           0       15.935544    1.585516    0.535771
    126          1           0       16.368844   -0.100426    1.295903
    127          1           0       17.888393   -0.221404   -0.673891
    128          1           0       17.633870    1.573998   -1.115435
    129          1           0       18.525885    2.018883    1.244994
    130          1           0       18.786313    0.578478    1.561877
    131          1           0       20.671464    0.159031    0.022910
    132          1           0       20.155965    2.975491   -1.048252
    133          1           0       21.496072    2.060640   -1.540714
    134          1           0       20.026981    1.453486   -1.918717
    135          1           0       21.254900    1.077771    2.350203
    136          1           0       22.165372    1.983779    1.027198
    137          1           0       20.916202    2.915846    1.924211
 ---------------------------------------------------------------------

 SCF Done:  E(RCAM-B3LYP) =  -2932.50016720     A.U. after   15 cycles

 Excitation energies and oscillator strengths:

 Excited State   1:      Singlet-A      2.0001 eV  619.90 nm  f=0.2444  <S**2>=0.000
     240 -> 243        0.25410
     241 -> 242        0.65623
 This state for optimization and/or second-order correction.
 Total Energy, E(TD-HF/TD-KS) =  -2932.42666594
 Copying the excited state density for this state as the 1-particle RhoCI density.

 The electronic state is 1-A.
 Alpha  occ. eigenvalues --  -46.85321 -19.27871 -19.27277 -19.21741 -19.21654
 Alpha  occ. eigenvalues --  -19.21585 -14.41551 -14.40337 -14.39425 -14.37950
 Alpha  occ. eigenvalues --  -10.40323 -10.39465 -10.36676 -10.31836 -10.31191
 Alpha  occ. eigenvalues --  -10.30016 -10.29955 -10.29917 -10.29752 -10.29411
 Alpha  occ. eigenvalues --  -10.29318 -10.29316 -10.29149 -10.28931 -10.28493
 Alpha  occ. eigenvalues --  -10.27970 -10.27920 -10.27902 -10.27879 -10.27840
 Alpha  occ. eigenvalues --  -10.27464 -10.27176 -10.27170 -10.27095 -10.27029
 Alpha  occ. eigenvalues --  -10.26967 -10.26794 -10.26719 -10.26709 -10.26654
 Alpha  occ. eigenvalues --  -10.26542 -10.26508 -10.26490 -10.26404 -10.26323
 Alpha  occ. eigenvalues --  -10.26220 -10.26060 -10.25986 -10.25980 -10.25945
 Alpha  occ. eigenvalues --  -10.25922 -10.25897 -10.25808 -10.25706 -10.25600
 Alpha  occ. eigenvalues --  -10.25523 -10.25386 -10.25314 -10.25165 -10.25101
 Alpha  occ. eigenvalues --  -10.24547 -10.24443 -10.24442 -10.24031 -10.23117
 Alpha  occ. eigenvalues --   -3.14116  -1.88837  -1.88347  -1.88281  -1.21166
 Alpha  occ. eigenvalues --   -1.18714  -1.11579  -1.11161  -1.08709  -1.05694
 Alpha  occ. eigenvalues --   -1.03806  -1.03450  -1.01186  -0.92169  -0.92064
 Alpha  occ. eigenvalues --   -0.91497  -0.91061  -0.90672  -0.89868  -0.89406
 Alpha  occ. eigenvalues --   -0.88421  -0.87984  -0.87878  -0.86986  -0.86700
 Alpha  occ. eigenvalues --   -0.86060  -0.84709  -0.84218  -0.83696  -0.82769
 Alpha  occ. eigenvalues --   -0.82099  -0.81756  -0.81022  -0.80652  -0.78666
 Alpha  occ. eigenvalues --   -0.77908  -0.77000  -0.76355  -0.75904  -0.75582
 Alpha  occ. eigenvalues --   -0.75396  -0.75010  -0.74883  -0.73692  -0.72979
 Alpha  occ. eigenvalues --   -0.72055  -0.70566  -0.69700  -0.69154  -0.68739
 Alpha  occ. eigenvalues --   -0.67544  -0.66467  -0.66249  -0.65928  -0.65089
 Alpha  occ. eigenvalues --   -0.64639  -0.63675  -0.63232  -0.62755  -0.62205
 Alpha  occ. eigenvalues --   -0.61847  -0.61451  -0.60466  -0.60010  -0.59216
 Alpha  occ. eigenvalues --   -0.59035  -0.58220  -0.57804  -0.57512  -0.56856
 Alpha  occ. eigenvalues --   -0.56770  -0.56341  -0.56046  -0.55957  -0.55470
 Alpha  occ. eigenvalues --   -0.55151  -0.54758  -0.54609  -0.54019  -0.53650
 Alpha  occ. eigenvalues --   -0.53447  -0.53135  -0.52504  -0.52293  -0.51972
 Alpha  occ. eigenvalues --   -0.51709  -0.51489  -0.51280  -0.51245  -0.50831
 Alpha  occ. eigenvalues --   -0.50799  -0.50416  -0.50245  -0.50032  -0.49708
 Alpha  occ. eigenvalues --   -0.49355  -0.49189  -0.48918  -0.48784  -0.48574
 Alpha  occ. eigenvalues --   -0.48221  -0.48179  -0.47947  -0.47622  -0.47567
 Alpha  occ. eigenvalues --   -0.47235  -0.46987  -0.46557  -0.46193  -0.46090
 Alpha  occ. eigenvalues --   -0.45765  -0.45603  -0.45484  -0.45252  -0.45038
 Alpha  occ. eigenvalues --   -0.44639  -0.44527  -0.44321  -0.43960  -0.43687
 Alpha  occ. eigenvalues --   -0.43574  -0.43560  -0.43402  -0.43367  -0.43223
 Alpha  occ. eigenvalues --   -0.43006  -0.42917  -0.42531  -0.42485  -0.42435
 Alpha  occ. eigenvalues --   -0.42107  -0.41878  -0.41701  -0.41591  -0.41115
 Alpha  occ. eigenvalues --   -0.41061  -0.40978  -0.40756  -0.40745  -0.40106
 Alpha  occ. eigenvalues --   -0.40007  -0.39985  -0.39590  -0.39245  -0.39015
 Alpha  occ. eigenvalues --   -0.38804  -0.38750  -0.38394  -0.37874  -0.37683
 Alpha  occ. eigenvalues --   -0.37514  -0.37325  -0.37121  -0.37107  -0.36636
 Alpha  occ. eigenvalues --   -0.36288  -0.35961  -0.35755  -0.35687  -0.35614
 Alpha  occ. eigenvalues --   -0.34605  -0.34529  -0.34280  -0.34129  -0.33812
 Alpha  occ. eigenvalues --   -0.33110  -0.32925  -0.32562  -0.31649  -0.30962
 Alpha  occ. eigenvalues --   -0.30407  -0.30277  -0.28237  -0.26079  -0.23310
 Alpha  occ. eigenvalues --   -0.20827
 Alpha virt. eigenvalues --   -0.06295  -0.03239   0.01308   0.04131   0.04844
 Alpha virt. eigenvalues --    0.05296   0.05900   0.07026   0.07353   0.07875
 Alpha virt. eigenvalues --    0.08400   0.10296   0.11168   0.11307   0.11650

 Mulliken charges:
               1
     1  Mg   0.823036
     2  C    0.036737
     3  C   -0.123486
     4  C   -0.115664
     5  C   -0.206154
     6  N   -0.624405
     7  C    0.273604
     8  C   -0.152654
     9  C   -0.163419
    10  C    0.294708
    11  C   -0.269346
    12  C   -0.190914
    13  C   -0.278286
    14  C    0.608616
    15  O   -0.463364
    16  O   -0.442157
    17  N   -0.733777
    18  C    0.284384
    19  C    0.002444
    20  C   -0.048952
    21  C    0.373797
    22  C   -0.338368
    23  C   -0.096688
    24  C   -0.219127
    25  N   -0.655755
    26  C    0.289994
    27  C   -0.007606
    28  C    0.095260
    29  C    0.257711
    30  C   -0.342991
    31  C   -0.275714
    32  C   -0.283106
    33  N   -0.741172
    34  C    0.261707
    35  C    0.034346
    36  C    0.002137
    37  C    0.334755
    38  C   -0.365653
    39  C    0.377035
    40  O   -0.454833
    41  C   -0.312616
    42  C    0.646985
    43  O   -0.490948
    44  O   -0.429693
    45  C   -0.088554
    46  C   -0.003097
    47  C   -0.137845
    48  C    0.141498
    49  C   -0.369448
    50  C   -0.226583
    51  C   -0.185122
    52  C   -0.160468
    53  C   -0.083645
    54  C   -0.240717
    55  C   -0.167384
    56  C   -0.193775
    57  C   -0.173614
    58  C   -0.072696
    59  C   -0.312961
    60  C   -0.163875
    61  C   -0.153858
    62  C   -0.158193
    63  C   -0.042046
    64  C   -0.317702
    65  C   -0.292399
    66  H    0.046665
    67  H    0.053765
    68  H    0.081671
    69  H    0.123898
    70  H    0.108623
    71  H    0.087826
    72  H    0.111323
    73  H    0.139456
    74  H    0.125793
    75  H    0.111168
    76  H    0.120261
    77  H    0.136956
    78  H    0.135792
    79  H    0.085618
    80  H    0.119920
    81  H    0.082298
    82  H    0.090520
    83  H    0.087131
    84  H    0.123184
    85  H    0.113231
    86  H    0.124419
    87  H    0.112241
    88  H    0.093420
    89  H    0.104430
    90  H    0.051807
    91  H    0.118169
    92  H    0.153479
    93  H    0.145318
    94  H    0.100896
    95  H    0.171732
    96  H    0.101723
    97  H    0.132653
    98  H    0.116952
    99  H    0.136494
   100  H    0.118337
   101  H    0.095175
   102  H    0.090983
   103  H    0.110503
   104  H    0.127918
   105  H    0.093547
   106  H    0.081460
   107  H    0.116353
   108  H    0.080500
   109  H    0.089078
   110  H    0.082502
   111  H    0.076945
   112  H    0.071357
   113  H    0.114222
   114  H    0.078268
   115  H    0.101246
   116  H    0.075196
   117  H    0.111892
   118  H    0.101576
   119  H    0.054761
   120  H    0.082255
   121  H    0.087844
   122  H    0.061938
   123  H    0.116325
   124  H    0.095754
   125  H    0.059170
   126  H    0.103734
   127  H    0.097574
   128  H    0.081961
   129  H    0.102205
   130  H    0.101136
   131  H    0.063611
   132  H    0.081157
   133  H    0.095812
   134  H    0.109439
   135  H    0.088708
   136  H    0.118868
   137  H    0.063935
 Sum of Mulliken charges =   0.00000

 Dipole moment (field-independent basis, Debye):
    X=              3.2175    Y=              1.9812    Z=             -1.6489  Tot=              4.1227
 Quadrupole moment (field-independent basis, Debye-Ang):
   XX=           -360.3579   YY=           -401.9470   ZZ=           -398.6237
   XY=             -9.1370   XZ=              9.2710   YZ=             -1.8726

 Normal termination of Gaussian 09 at Sun Jul  7 02:35:09 2019.
