 Gaussian 16, Revision A.03,
 Gaussian 16:  ES64L-G16RevA.03 25-Dec-2016

 ----------------------------------------------------------------------
 # td=(NStates=1) iop(3/107=0140000000,3/108=0140000000) CAM-B3LYP/6-31
 G(d,p)
 ----------------------------------------------------------------------

 --
 TD
 --
 Symbolic Z-matrix:
 Charge =  0 Multiplicity = 1

                         Standard orientation:
 ---------------------------------------------------------------------
 Center     Atomic      Atomic             Coordinates (Angstroms)
 Number     Number       Type             X           Y           Z
 ---------------------------------------------------------------------
      1         12           0       -7.102817    0.658467    0.057296
      2          6           0       -4.807039   -1.967739    0.581019
      3          6           0       -4.844114    2.901988    1.215449
      4          6           0       -9.428860    3.108621   -0.380663
      5          6           0       -9.573730   -1.841202   -0.895148
      6          7           0       -5.026722    0.519035    0.759542
      7          6           0       -4.298496   -0.735374    0.747044
      8          6           0       -2.938948   -0.297727    1.337498
      9          6           0       -3.124552    1.069580    1.786156
     10          6           0       -4.367638    1.504466    1.222424
     11          6           0       -3.164767    1.228015    3.281065
     12          6           0       -1.932941   -0.517691    0.238866
     13          6           0       -0.458508   -0.532237    0.603839
     14          6           0        0.490363   -0.744386   -0.463307
     15          8           0        0.222583   -1.138643   -1.599293
     16          8           0        1.763954   -0.577478   -0.047229
     17          7           0       -7.101164    2.692634    0.190669
     18          6           0       -5.989749    3.436326    0.655461
     19          6           0       -6.410046    4.856680    0.770920
     20          6           0       -7.744960    4.878513    0.317772
     21          6           0       -8.180359    3.584841    0.001440
     22          6           0       -5.581767    5.974773    1.132102
     23          6           0       -8.619711    6.014570    0.089601
     24          6           0       -8.530408    7.239372    0.590790
     25          7           0       -9.116629    0.604454   -0.490461
     26          6           0       -9.868541    1.780111   -0.628552
     27          6           0      -11.152373    1.380253   -1.077985
     28          6           0      -11.218383    0.049600   -1.257338
     29          6           0       -9.892156   -0.457314   -0.933710
     30          6           0      -12.200257    2.290146   -1.442303
     31          6           0      -12.364427   -0.743209   -1.813846
     32          6           0      -12.234495   -1.230373   -3.276543
     33          7           0       -7.099368   -1.385789   -0.258202
     34          6           0       -8.249995   -2.252445   -0.513147
     35          6           0       -7.716416   -3.620792   -0.611065
     36          6           0       -6.418417   -3.505490   -0.244996
     37          6           0       -6.024601   -2.097610   -0.035409
     38          6           0       -8.528779   -4.871542   -0.995551
     39          6           0       -5.324857   -4.364789    0.152449
     40          8           0       -5.147489   -5.503002    0.122730
     41          6           0       -4.066230   -3.247225    0.640783
     42          6           0       -3.580338   -3.640501    1.983208
     43          8           0       -3.905249   -3.028856    3.050672
     44          8           0       -2.800030   -4.643137    1.959482
     45          6           0       -2.237377   -5.164034    3.227481
     46          6           0        2.821897   -0.629752   -1.070822
     47          6           0        4.175457   -0.536028   -0.531013
     48          6           0        5.083255    0.290841   -0.916669
     49          6           0        5.047058    1.087476   -2.260308
     50          6           0        6.470744    0.357339   -0.323896
     51          6           0        7.630444   -0.368746   -0.959356
     52          6           0        8.972460   -0.131159   -0.173341
     53          6           0       10.220989   -0.593885   -0.935159
     54          6           0       10.078001   -2.036054   -1.267577
     55          6           0       11.445952   -0.350648   -0.132026
     56          6           0       12.841471   -0.521976   -0.811204
     57          6           0       13.999334   -0.008985    0.000528
     58          6           0       15.382215   -0.290210   -0.679879
     59          6           0       15.690128   -1.777472   -0.851068
     60          6           0       16.418792    0.400603    0.301868
     61          6           0       17.790905    0.525752   -0.176475
     62          6           0       18.726376    1.221314    0.757676
     63          6           0       20.212634    1.468301    0.268901
     64          6           0       20.341287    2.273766   -1.057574
     65          6           0       21.015525    2.145609    1.370652
     66          1           0       -3.980760    3.620301    1.776106
     67          1           0      -10.192566    3.823917   -0.429039
     68          1           0      -10.332788   -2.356332   -1.122856
     69          1           0       -2.507486   -0.864157    2.222511
     70          1           0       -2.366776    1.750563    1.230319
     71          1           0       -2.131470    1.280706    3.645413
     72          1           0       -3.637490    2.291733    3.530658
     73          1           0       -3.856766    0.486258    3.710386
     74          1           0       -2.209921   -1.633564   -0.261991
     75          1           0       -1.876054    0.229748   -0.652534
     76          1           0       -0.286175    0.527899    1.058085
     77          1           0       -0.288262   -1.294828    1.477028
     78          1           0       -5.677214    6.825727    0.342091
     79          1           0       -5.740398    6.333952    2.099962
     80          1           0       -4.617323    5.579070    1.244619
     81          1           0       -9.488840    5.686760   -0.461154
     82          1           0       -9.267697    8.018029    0.279893
     83          1           0       -7.694336    7.459581    1.423544
     84          1           0      -11.898832    3.102290   -2.263043
     85          1           0      -13.142310    1.975712   -2.166197
     86          1           0      -12.635225    2.903387   -0.728488
     87          1           0      -12.559705   -1.691354   -1.216548
     88          1           0      -13.396280   -0.172402   -1.497924
     89          1           0      -13.231458   -1.694162   -3.737755
     90          1           0      -12.211034   -0.326256   -4.078976
     91          1           0      -11.259224   -1.756851   -3.524624
     92          1           0       -8.686037   -4.774974   -1.889948
     93          1           0       -7.891028   -5.712075   -0.774307
     94          1           0       -9.557386   -4.934276   -0.393774
     95          1           0       -3.170928   -3.399950   -0.124449
     96          1           0       -1.779805   -4.278712    3.853726
     97          1           0       -2.893511   -5.655966    3.947031
     98          1           0       -1.539256   -5.980327    3.045131
     99          1           0        2.697648   -1.527148   -1.635157
    100          1           0        2.461354    0.057977   -1.936514
    101          1           0        4.286913   -1.067623    0.419778
    102          1           0        3.919086    1.139086   -2.608777
    103          1           0        5.425455    2.059620   -1.974830
    104          1           0        5.788718    0.563757   -3.114242
    105          1           0        6.662823    1.453966   -0.071000
    106          1           0        6.224064   -0.072141    0.828144
    107          1           0        7.432418   -1.384379   -1.203089
    108          1           0        7.862265   -0.018328   -2.069260
    109          1           0        9.116251    1.096104   -0.175597
    110          1           0        8.741244   -0.794194    0.860776
    111          1           0       10.185767    0.190145   -1.744096
    112          1           0        9.177863   -2.222425   -1.878823
    113          1           0       11.164871   -2.425826   -1.741692
    114          1           0        9.946954   -2.724661   -0.461089
    115          1           0       11.274709    0.771032    0.312938
    116          1           0       11.512106   -1.116750    0.643056
    117          1           0       13.151743   -1.604464   -1.029430
    118          1           0       12.851878   -0.177619   -1.964488
    119          1           0       13.582174    0.968525    0.215839
    120          1           0       13.899058   -0.371977    1.201843
    121          1           0       15.357529    0.298200   -1.529508
    122          1           0       15.544589   -2.208375    0.150069
    123          1           0       14.842334   -2.166285   -1.438570
    124          1           0       16.659288   -1.832460   -1.159814
    125          1           0       16.058729    1.286951    0.617259
    126          1           0       16.597627   -0.182930    1.251891
    127          1           0       18.274156   -0.420789   -0.506064
    128          1           0       17.908096    1.039104   -1.168189
    129          1           0       18.420231    2.180823    1.063071
    130          1           0       18.944107    0.550301    1.650450
    131          1           0       20.711821    0.499848    0.247399
    132          1           0       19.967892    3.364361   -0.804412
    133          1           0       21.511943    2.559850   -1.234540
    134          1           0       19.926128    1.851622   -1.975945
    135          1           0       21.149428    1.739787    2.308595
    136          1           0       22.182046    2.445132    1.192313
    137          1           0       20.467585    3.094173    1.555142
 ---------------------------------------------------------------------

 SCF Done:  E(RCAM-B3LYP) =  -2933.45795503     A.U. after   16 cycles

 Excitation energies and oscillator strengths:

 Excited State   1:      Singlet-A      2.0596 eV  601.97 nm  f=0.2234  <S**2>=0.000
     240 -> 243        0.24200
     241 -> 242        0.65962
 This state for optimization and/or second-order correction.
 Total Energy, E(TD-HF/TD-DFT) =  -2933.38226511
 Copying the excited state density for this state as the 1-particle RhoCI density.

 The electronic state is 1-A.
 Alpha  occ. eigenvalues --  -46.79988 -19.23363 -19.21708 -19.17284 -19.16238
 Alpha  occ. eigenvalues --  -19.14024 -14.37656 -14.35834 -14.34774 -14.34701
 Alpha  occ. eigenvalues --  -10.34245 -10.33428 -10.30591 -10.28431 -10.27417
 Alpha  occ. eigenvalues --  -10.26479 -10.26156 -10.26109 -10.25689 -10.24821
 Alpha  occ. eigenvalues --  -10.24715 -10.24330 -10.24121 -10.24097 -10.24054
 Alpha  occ. eigenvalues --  -10.23906 -10.23888 -10.23839 -10.23641 -10.23573
 Alpha  occ. eigenvalues --  -10.23507 -10.23492 -10.23439 -10.22899 -10.22741
 Alpha  occ. eigenvalues --  -10.22730 -10.22725 -10.22676 -10.22636 -10.22629
 Alpha  occ. eigenvalues --  -10.22513 -10.22457 -10.22154 -10.22095 -10.22089
 Alpha  occ. eigenvalues --  -10.22060 -10.21984 -10.21969 -10.21936 -10.21885
 Alpha  occ. eigenvalues --  -10.21844 -10.21738 -10.21696 -10.21439 -10.21384
 Alpha  occ. eigenvalues --  -10.21197 -10.21137 -10.20980 -10.20727 -10.20551
 Alpha  occ. eigenvalues --  -10.20520 -10.20398 -10.20235 -10.19988 -10.19545
 Alpha  occ. eigenvalues --   -3.08392  -1.83357  -1.82854  -1.82778  -1.14404
 Alpha  occ. eigenvalues --   -1.12223  -1.10317  -1.03036  -1.00647  -1.00201
 Alpha  occ. eigenvalues --   -0.97893  -0.96842  -0.95930  -0.87391  -0.86735
 Alpha  occ. eigenvalues --   -0.86077  -0.85809  -0.85240  -0.83923  -0.83628
 Alpha  occ. eigenvalues --   -0.83210  -0.82969  -0.82735  -0.82483  -0.81733
 Alpha  occ. eigenvalues --   -0.80485  -0.79706  -0.78961  -0.78694  -0.77626
 Alpha  occ. eigenvalues --   -0.77291  -0.76737  -0.75956  -0.75438  -0.74161
 Alpha  occ. eigenvalues --   -0.73201  -0.72253  -0.71825  -0.71145  -0.70642
 Alpha  occ. eigenvalues --   -0.70380  -0.70140  -0.69990  -0.68877  -0.68491
 Alpha  occ. eigenvalues --   -0.67626  -0.66089  -0.64881  -0.64390  -0.63459
 Alpha  occ. eigenvalues --   -0.62586  -0.62356  -0.61759  -0.60697  -0.60483
 Alpha  occ. eigenvalues --   -0.60347  -0.59119  -0.58813  -0.58390  -0.58348
 Alpha  occ. eigenvalues --   -0.57631  -0.56384  -0.56214  -0.55543  -0.55221
 Alpha  occ. eigenvalues --   -0.54670  -0.53984  -0.53525  -0.52620  -0.52221
 Alpha  occ. eigenvalues --   -0.51737  -0.51418  -0.51360  -0.51316  -0.51068
 Alpha  occ. eigenvalues --   -0.50512  -0.50432  -0.50299  -0.50008  -0.49430
 Alpha  occ. eigenvalues --   -0.49335  -0.48938  -0.48724  -0.48280  -0.47822
 Alpha  occ. eigenvalues --   -0.47757  -0.47670  -0.47426  -0.47340  -0.46914
 Alpha  occ. eigenvalues --   -0.46610  -0.46210  -0.46132  -0.45925  -0.45856
 Alpha  occ. eigenvalues --   -0.45687  -0.45574  -0.45107  -0.44903  -0.44588
 Alpha  occ. eigenvalues --   -0.44419  -0.44120  -0.43874  -0.43626  -0.43582
 Alpha  occ. eigenvalues --   -0.43417  -0.43218  -0.42918  -0.42894  -0.42744
 Alpha  occ. eigenvalues --   -0.42515  -0.42314  -0.42168  -0.41930  -0.41818
 Alpha  occ. eigenvalues --   -0.41599  -0.41379  -0.41219  -0.40872  -0.40723
 Alpha  occ. eigenvalues --   -0.40503  -0.40374  -0.40218  -0.40193  -0.39994
 Alpha  occ. eigenvalues --   -0.39762  -0.39645  -0.39395  -0.39096  -0.38826
 Alpha  occ. eigenvalues --   -0.38679  -0.38443  -0.38213  -0.37963  -0.37924
 Alpha  occ. eigenvalues --   -0.37719  -0.37624  -0.37452  -0.37100  -0.36369
 Alpha  occ. eigenvalues --   -0.36340  -0.36274  -0.35968  -0.35916  -0.35642
 Alpha  occ. eigenvalues --   -0.35487  -0.35248  -0.34968  -0.34484  -0.34293
 Alpha  occ. eigenvalues --   -0.34220  -0.34169  -0.33803  -0.33313  -0.32993
 Alpha  occ. eigenvalues --   -0.32869  -0.32653  -0.32487  -0.32418  -0.32149
 Alpha  occ. eigenvalues --   -0.31981  -0.31806  -0.31724  -0.30178  -0.30074
 Alpha  occ. eigenvalues --   -0.29974  -0.29472  -0.28676  -0.28227  -0.28178
 Alpha  occ. eigenvalues --   -0.27365  -0.25982  -0.25543  -0.24359  -0.22157
 Alpha  occ. eigenvalues --   -0.19709
 Alpha virt. eigenvalues --   -0.06710  -0.04219   0.00040   0.02625   0.03156
 Alpha virt. eigenvalues --    0.04020   0.04172   0.04944   0.05424   0.05772
 Alpha virt. eigenvalues --    0.06114   0.08348   0.08940   0.09228   0.09627

 Mulliken charges:
               1
     1  Mg   0.809776
     2  C    0.187215
     3  C   -0.187750
     4  C   -0.177280
     5  C   -0.075797
     6  N   -0.619687
     7  C    0.240054
     8  C   -0.139897
     9  C   -0.144303
    10  C    0.372752
    11  C   -0.312155
    12  C   -0.157203
    13  C   -0.271354
    14  C    0.627835
    15  O   -0.487680
    16  O   -0.483327
    17  N   -0.734690
    18  C    0.311007
    19  C    0.018339
    20  C    0.030041
    21  C    0.326455
    22  C   -0.386160
    23  C   -0.040238
    24  C   -0.267540
    25  N   -0.716821
    26  C    0.318667
    27  C    0.079151
    28  C    0.043833
    29  C    0.256846
    30  C   -0.414401
    31  C   -0.245304
    32  C   -0.300806
    33  N   -0.717913
    34  C    0.221570
    35  C    0.001998
    36  C   -0.011945
    37  C    0.309206
    38  C   -0.343580
    39  C    0.350385
    40  O   -0.400117
    41  C   -0.385414
    42  C    0.638303
    43  O   -0.537548
    44  O   -0.409643
    45  C   -0.100372
    46  C    0.009328
    47  C   -0.109825
    48  C    0.109022
    49  C   -0.333873
    50  C   -0.206190
    51  C   -0.169728
    52  C   -0.147595
    53  C   -0.033853
    54  C   -0.311971
    55  C   -0.150577
    56  C   -0.184560
    57  C   -0.164647
    58  C   -0.065923
    59  C   -0.305680
    60  C   -0.155409
    61  C   -0.184281
    62  C   -0.158801
    63  C   -0.064316
    64  C   -0.297295
    65  C   -0.310000
    66  H    0.071024
    67  H    0.077046
    68  H    0.053921
    69  H    0.116441
    70  H    0.096257
    71  H    0.115799
    72  H    0.092082
    73  H    0.146796
    74  H    0.086496
    75  H    0.101582
    76  H    0.119110
    77  H    0.128790
    78  H    0.125579
    79  H    0.133765
    80  H    0.109990
    81  H    0.083242
    82  H    0.103401
    83  H    0.093777
    84  H    0.096194
    85  H    0.094205
    86  H    0.129641
    87  H    0.103236
    88  H    0.090736
    89  H    0.098634
    90  H    0.085841
    91  H    0.116374
    92  H    0.144251
    93  H    0.140819
    94  H    0.105858
    95  H    0.142133
    96  H    0.128300
    97  H    0.143111
    98  H    0.131978
    99  H    0.137277
   100  H    0.109574
   101  H    0.092750
   102  H    0.094716
   103  H    0.118764
   104  H    0.103898
   105  H    0.096288
   106  H    0.058410
   107  H    0.113275
   108  H    0.070820
   109  H    0.069071
   110  H    0.070450
   111  H    0.084895
   112  H    0.101146
   113  H    0.075229
   114  H    0.115918
   115  H    0.060286
   116  H    0.100324
   117  H    0.078387
   118  H    0.065761
   119  H    0.098124
   120  H    0.050885
   121  H    0.099845
   122  H    0.110140
   123  H    0.104800
   124  H    0.116213
   125  H    0.099447
   126  H    0.079223
   127  H    0.083537
   128  H    0.076321
   129  H    0.091713
   130  H    0.081417
   131  H    0.089797
   132  H    0.086841
   133  H    0.080633
   134  H    0.111740
   135  H    0.113212
   136  H    0.073251
   137  H    0.090875
 Sum of Mulliken charges =  -0.00000

 Dipole moment (field-independent basis, Debye):
    X=              2.1583    Y=              2.7264    Z=              0.8679  Tot=              3.5839
 Quadrupole moment (field-independent basis, Debye-Ang):
   XX=           -360.6882   YY=           -387.6991   ZZ=           -398.0097
   XY=            -17.9046   XZ=             11.7500   YZ=             -1.9583

 Normal termination of Gaussian 16 at Sun Sep 22 21:48:44 2019.
