 Gaussian 16, Revision A.03,
 Gaussian 16:  ES64L-G16RevA.03 25-Dec-2016

 ----------------------------------------------------------------------
 # td=(NStates=1) iop(3/107=0140000000,3/108=0140000000) CAM-B3LYP/6-31
 G(d,p)
 ----------------------------------------------------------------------

 --
 TD
 --
 Symbolic Z-matrix:
 Charge =  0 Multiplicity = 1

                         Standard orientation:
 ---------------------------------------------------------------------
 Center     Atomic      Atomic             Coordinates (Angstroms)
 Number     Number       Type             X           Y           Z
 ---------------------------------------------------------------------
      1         12           0       -7.169635    0.586248    0.120362
      2          6           0       -4.790272   -1.972649    0.362723
      3          6           0       -4.851897    2.815724    1.269617
      4          6           0       -9.328214    3.105713   -0.398090
      5          6           0       -9.591813   -1.682036   -0.848638
      6          7           0       -5.135315    0.419050    0.647872
      7          6           0       -4.362579   -0.699387    0.669611
      8          6           0       -2.974361   -0.420457    1.295424
      9          6           0       -3.042465    1.073856    1.814098
     10          6           0       -4.351414    1.499291    1.291565
     11          6           0       -2.893209    1.129378    3.408095
     12          6           0       -2.030006   -0.610102    0.191559
     13          6           0       -0.522675   -0.484401    0.526235
     14          6           0        0.438129   -0.685688   -0.611109
     15          8           0        0.042667   -1.034233   -1.687790
     16          8           0        1.634680   -0.520247   -0.194943
     17          7           0       -7.084204    2.608886    0.413076
     18          6           0       -6.020183    3.291350    0.876587
     19          6           0       -6.408901    4.764001    0.860183
     20          6           0       -7.707439    4.781475    0.333060
     21          6           0       -8.055748    3.411897   -0.057320
     22          6           0       -5.482356    5.910698    1.219700
     23          6           0       -8.407935    6.062474   -0.043837
     24          6           0       -8.352994    7.172319    0.721045
     25          7           0       -9.129321    0.635678   -0.530397
     26          6           0       -9.767598    1.801368   -0.598105
     27          6           0      -11.031229    1.535374   -1.142645
     28          6           0      -11.165424    0.158899   -1.222514
     29          6           0       -9.933803   -0.319549   -0.880234
     30          6           0      -12.125042    2.588392   -1.445278
     31          6           0      -12.362553   -0.686365   -1.704588
     32          6           0      -12.208625   -1.129295   -3.253070
     33          7           0       -7.254739   -1.372565   -0.190918
     34          6           0       -8.301665   -2.191165   -0.498109
     35          6           0       -7.877201   -3.563828   -0.539582
     36          6           0       -6.465432   -3.522639   -0.193857
     37          6           0       -6.208613   -2.157364    0.000225
     38          6           0       -8.703681   -4.843445   -0.852298
     39          6           0       -5.391056   -4.366359    0.168921
     40          8           0       -5.254775   -5.622774    0.372132
     41          6           0       -4.226712   -3.379916    0.472743
     42          6           0       -3.476463   -3.657073    1.793229
     43          8           0       -3.773548   -3.157207    2.815326
     44          8           0       -2.743254   -4.771107    1.678467
     45          6           0       -2.181977   -5.215821    2.981355
     46          6           0        2.755186   -0.638437   -1.211812
     47          6           0        4.040162   -0.429888   -0.561472
     48          6           0        5.122737    0.376848   -0.990926
     49          6           0        5.072185    1.098481   -2.326615
     50          6           0        6.453245    0.417274   -0.279150
     51          6           0        7.747987   -0.140756   -1.089496
     52          6           0        8.973894    0.074965   -0.205044
     53          6           0       10.310525   -0.433029   -0.830986
     54          6           0       10.103295   -1.900438   -1.259945
     55          6           0       11.425256   -0.249118    0.071213
     56          6           0       12.730915   -0.367613   -0.660984
     57          6           0       13.945323   -0.005803    0.186951
     58          6           0       15.320251   -0.236064   -0.491875
     59          6           0       15.590773   -1.600258   -1.014725
     60          6           0       16.495125    0.348537    0.474827
     61          6           0       17.802919    0.350496   -0.215624
     62          6           0       18.760961    1.100408    0.700518
     63          6           0       20.262487    1.359993    0.243686
     64          6           0       20.317489    2.198381   -1.073246
     65          6           0       21.099408    1.861358    1.343167
     66          1           0       -4.082731    3.538329    1.687960
     67          1           0       -9.968504    3.901077   -0.464267
     68          1           0      -10.414470   -2.358540   -1.113246
     69          1           0       -2.736900   -1.091487    2.177980
     70          1           0       -2.252848    1.602046    1.250695
     71          1           0       -1.881960    0.943864    3.743716
     72          1           0       -2.676495    2.265110    3.683655
     73          1           0       -3.779307    0.609834    3.922421
     74          1           0       -2.069562   -1.514421   -0.349769
     75          1           0       -2.048096    0.077890   -0.658213
     76          1           0       -0.548474    0.409134    0.957581
     77          1           0       -0.253201   -1.229542    1.388347
     78          1           0       -5.501682    6.808097    0.692186
     79          1           0       -5.673090    6.171711    2.184511
     80          1           0       -4.336865    5.633196    1.105578
     81          1           0       -9.196340    6.028961   -0.922032
     82          1           0       -8.951081    8.096468    0.443911
     83          1           0       -7.791702    7.179749    1.654267
     84          1           0      -11.914040    3.275718   -2.381620
     85          1           0      -12.933037    1.763972   -1.437177
     86          1           0      -12.304573    3.189141   -0.431833
     87          1           0      -12.414314   -1.465056   -1.098583
     88          1           0      -13.124935   -0.010846   -1.394813
     89          1           0      -13.325763   -1.849278   -3.527624
     90          1           0      -12.196087   -0.339543   -4.180997
     91          1           0      -11.261373   -1.660708   -3.535234
     92          1           0       -8.910093   -4.711016   -1.940081
     93          1           0       -8.109134   -5.779472   -0.597610
     94          1           0       -9.649573   -4.865107   -0.133045
     95          1           0       -3.432818   -3.693022   -0.345488
     96          1           0       -1.492775   -4.454147    3.333391
     97          1           0       -2.826417   -5.378698    3.740963
     98          1           0       -1.619968   -6.080244    2.679968
     99          1           0        2.702037   -1.748412   -1.424190
    100          1           0        2.665430    0.089378   -2.156798
    101          1           0        4.320323   -1.002308    0.408556
    102          1           0        4.135694    1.020089   -2.624284
    103          1           0        5.240219    2.252068   -2.159493
    104          1           0        5.724144    0.758750   -2.941377
    105          1           0        6.667045    1.472438   -0.071970
    106          1           0        6.372695   -0.159151    0.782987
    107          1           0        7.579016   -1.019446   -1.494963
    108          1           0        7.754025    0.665484   -1.906213
    109          1           0        9.147755    1.163044    0.055704
    110          1           0        8.965418   -0.418590    0.758606
    111          1           0       10.436615    0.100577   -1.690654
    112          1           0        9.136219   -1.987456   -1.797361
    113          1           0       10.932296   -2.176030   -1.855475
    114          1           0       10.203614   -2.496051   -0.257067
    115          1           0       11.250059    0.701796    0.720845
    116          1           0       11.564100   -1.288064    0.844221
    117          1           0       12.740778   -1.450776   -1.025768
    118          1           0       12.885545    0.155329   -1.587129
    119          1           0       13.834714    1.030760    0.685959
    120          1           0       13.927545   -0.731397    1.048790
    121          1           0       15.352113    0.555848   -1.363218
    122          1           0       15.616735   -2.431109   -0.288978
    123          1           0       14.868202   -1.958503   -1.738399
    124          1           0       16.440334   -1.456933   -1.612257
    125          1           0       16.316354    1.300618    0.817277
    126          1           0       16.320091   -0.037384    1.440790
    127          1           0       18.187498   -0.770471   -0.208076
    128          1           0       17.697612    0.689073   -1.421568
    129          1           0       18.227902    2.097322    0.968978
    130          1           0       18.630302    0.418179    1.544690
    131          1           0       20.641131    0.321969    0.176078
    132          1           0       20.054667    3.267389   -0.943165
    133          1           0       21.220069    2.120428   -1.536526
    134          1           0       19.633490    1.880522   -1.773282
    135          1           0       21.181125    1.145876    2.274479
    136          1           0       22.269145    1.646620    1.125639
    137          1           0       20.850356    2.837513    1.750812
 ---------------------------------------------------------------------

 SCF Done:  E(RCAM-B3LYP) =  -2933.48962172     A.U. after   16 cycles

 Excitation energies and oscillator strengths:

 Excited State   1:      Singlet-A      2.1222 eV  584.22 nm  f=0.1843  <S**2>=0.000
     240 -> 243       -0.27055
     241 -> 242        0.64658
 This state for optimization and/or second-order correction.
 Total Energy, E(TD-HF/TD-DFT) =  -2933.41163217
 Copying the excited state density for this state as the 1-particle RhoCI density.

 The electronic state is 1-A.
 Alpha  occ. eigenvalues --  -46.79207 -19.22546 -19.21312 -19.15919 -19.15321
 Alpha  occ. eigenvalues --  -19.14462 -14.37556 -14.35087 -14.34871 -14.33655
 Alpha  occ. eigenvalues --  -10.33332 -10.33208 -10.29893 -10.29411 -10.27212
 Alpha  occ. eigenvalues --  -10.25509 -10.25424 -10.25332 -10.25213 -10.24701
 Alpha  occ. eigenvalues --  -10.24575 -10.24324 -10.24128 -10.24101 -10.24050
 Alpha  occ. eigenvalues --  -10.23897 -10.23808 -10.23627 -10.23513 -10.23464
 Alpha  occ. eigenvalues --  -10.23425 -10.23224 -10.23118 -10.23091 -10.22896
 Alpha  occ. eigenvalues --  -10.22734 -10.22628 -10.22559 -10.22552 -10.22429
 Alpha  occ. eigenvalues --  -10.22330 -10.22235 -10.22201 -10.22145 -10.22130
 Alpha  occ. eigenvalues --  -10.22129 -10.21632 -10.21423 -10.21406 -10.21393
 Alpha  occ. eigenvalues --  -10.21341 -10.21208 -10.21098 -10.20914 -10.20767
 Alpha  occ. eigenvalues --  -10.20741 -10.20575 -10.20542 -10.20314 -10.20200
 Alpha  occ. eigenvalues --  -10.20174 -10.19988 -10.19594 -10.19433 -10.19085
 Alpha  occ. eigenvalues --   -3.07925  -1.82870  -1.82418  -1.82313  -1.14331
 Alpha  occ. eigenvalues --   -1.13024  -1.04604  -1.04471  -1.01329  -1.00893
 Alpha  occ. eigenvalues --   -0.99214  -0.98816  -0.96217  -0.86823  -0.86677
 Alpha  occ. eigenvalues --   -0.85743  -0.84981  -0.84792  -0.84581  -0.83211
 Alpha  occ. eigenvalues --   -0.82911  -0.82830  -0.82627  -0.81428  -0.81108
 Alpha  occ. eigenvalues --   -0.80086  -0.79373  -0.78409  -0.78116  -0.77614
 Alpha  occ. eigenvalues --   -0.76948  -0.76169  -0.75996  -0.75339  -0.73227
 Alpha  occ. eigenvalues --   -0.72968  -0.72068  -0.72016  -0.72009  -0.71177
 Alpha  occ. eigenvalues --   -0.71078  -0.70031  -0.70018  -0.68741  -0.67886
 Alpha  occ. eigenvalues --   -0.67473  -0.66010  -0.65708  -0.64344  -0.63651
 Alpha  occ. eigenvalues --   -0.62444  -0.61954  -0.61009  -0.60600  -0.60266
 Alpha  occ. eigenvalues --   -0.59835  -0.59130  -0.58825  -0.58575  -0.58115
 Alpha  occ. eigenvalues --   -0.57243  -0.56474  -0.56100  -0.55815  -0.54816
 Alpha  occ. eigenvalues --   -0.54347  -0.54165  -0.53431  -0.53250  -0.52468
 Alpha  occ. eigenvalues --   -0.51742  -0.51429  -0.51149  -0.50880  -0.50865
 Alpha  occ. eigenvalues --   -0.50814  -0.50447  -0.49999  -0.49964  -0.49514
 Alpha  occ. eigenvalues --   -0.49001  -0.48645  -0.48434  -0.47842  -0.47486
 Alpha  occ. eigenvalues --   -0.47384  -0.47213  -0.46962  -0.46912  -0.46814
 Alpha  occ. eigenvalues --   -0.46696  -0.46566  -0.46189  -0.46045  -0.45804
 Alpha  occ. eigenvalues --   -0.45570  -0.45274  -0.45224  -0.44813  -0.44559
 Alpha  occ. eigenvalues --   -0.44236  -0.44192  -0.44030  -0.43839  -0.43576
 Alpha  occ. eigenvalues --   -0.43426  -0.43225  -0.42995  -0.42949  -0.42625
 Alpha  occ. eigenvalues --   -0.42411  -0.42012  -0.41928  -0.41874  -0.41776
 Alpha  occ. eigenvalues --   -0.41482  -0.41305  -0.41111  -0.40984  -0.40814
 Alpha  occ. eigenvalues --   -0.40590  -0.40349  -0.40107  -0.39884  -0.39831
 Alpha  occ. eigenvalues --   -0.39761  -0.39201  -0.39069  -0.38977  -0.38794
 Alpha  occ. eigenvalues --   -0.38632  -0.38436  -0.38368  -0.38085  -0.37935
 Alpha  occ. eigenvalues --   -0.37896  -0.37678  -0.37245  -0.37026  -0.36647
 Alpha  occ. eigenvalues --   -0.36517  -0.36419  -0.36166  -0.35955  -0.35843
 Alpha  occ. eigenvalues --   -0.35513  -0.35232  -0.35023  -0.34953  -0.34716
 Alpha  occ. eigenvalues --   -0.34493  -0.34092  -0.33782  -0.33723  -0.33234
 Alpha  occ. eigenvalues --   -0.33174  -0.32910  -0.32736  -0.32641  -0.32462
 Alpha  occ. eigenvalues --   -0.32278  -0.32041  -0.31756  -0.29988  -0.29937
 Alpha  occ. eigenvalues --   -0.29742  -0.29506  -0.29391  -0.28096  -0.26529
 Alpha  occ. eigenvalues --   -0.26424  -0.25755  -0.25358  -0.24823  -0.21260
 Alpha  occ. eigenvalues --   -0.20334
 Alpha virt. eigenvalues --   -0.06812  -0.03952   0.00251   0.01874   0.02066
 Alpha virt. eigenvalues --    0.04383   0.04855   0.05158   0.05867   0.06038
 Alpha virt. eigenvalues --    0.07249   0.08954   0.09114   0.09602   0.10123

 Mulliken charges:
               1
     1  Mg   0.801006
     2  C    0.101295
     3  C   -0.207940
     4  C   -0.122889
     5  C   -0.174751
     6  N   -0.632450
     7  C    0.306246
     8  C   -0.156812
     9  C   -0.153012
    10  C    0.306216
    11  C   -0.309616
    12  C   -0.190613
    13  C   -0.274277
    14  C    0.611258
    15  O   -0.482904
    16  O   -0.443439
    17  N   -0.714789
    18  C    0.374074
    19  C    0.005691
    20  C   -0.030412
    21  C    0.307248
    22  C   -0.381819
    23  C   -0.070513
    24  C   -0.243017
    25  N   -0.711469
    26  C    0.321214
    27  C   -0.024774
    28  C   -0.023575
    29  C    0.338433
    30  C   -0.360459
    31  C   -0.196690
    32  C   -0.282489
    33  N   -0.732087
    34  C    0.279105
    35  C    0.000797
    36  C    0.034307
    37  C    0.306130
    38  C   -0.369041
    39  C    0.347015
    40  O   -0.512314
    41  C   -0.314067
    42  C    0.617918
    43  O   -0.455020
    44  O   -0.446747
    45  C   -0.094517
    46  C   -0.004471
    47  C   -0.120688
    48  C    0.098274
    49  C   -0.336247
    50  C   -0.231001
    51  C   -0.182629
    52  C   -0.174653
    53  C   -0.044145
    54  C   -0.307883
    55  C   -0.148618
    56  C   -0.176181
    57  C   -0.170981
    58  C   -0.058884
    59  C   -0.309716
    60  C   -0.173497
    61  C   -0.161521
    62  C   -0.174083
    63  C   -0.037334
    64  C   -0.317404
    65  C   -0.303155
    66  H    0.078318
    67  H    0.081665
    68  H    0.090840
    69  H    0.126038
    70  H    0.116184
    71  H    0.124986
    72  H    0.085288
    73  H    0.138861
    74  H    0.126991
    75  H    0.111967
    76  H    0.121339
    77  H    0.102362
    78  H    0.134744
    79  H    0.137620
    80  H    0.093632
    81  H    0.086289
    82  H    0.099739
    83  H    0.103048
    84  H    0.119215
    85  H    0.103257
    86  H    0.105271
    87  H    0.121538
    88  H    0.106696
    89  H    0.050607
    90  H    0.098503
    91  H    0.122107
    92  H    0.132167
    93  H    0.151579
    94  H    0.111390
    95  H    0.143624
    96  H    0.119696
    97  H    0.150281
    98  H    0.128334
    99  H    0.140265
   100  H    0.127725
   101  H    0.086182
   102  H    0.102676
   103  H    0.095768
   104  H    0.137429
   105  H    0.109239
   106  H    0.076200
   107  H    0.117435
   108  H    0.091648
   109  H    0.081970
   110  H    0.098189
   111  H    0.095247
   112  H    0.097180
   113  H    0.109189
   114  H    0.087621
   115  H    0.076830
   116  H    0.045950
   117  H    0.088921
   118  H    0.090852
   119  H    0.079126
   120  H    0.075083
   121  H    0.062223
   122  H    0.102060
   123  H    0.100701
   124  H    0.115739
   125  H    0.093181
   126  H    0.094307
   127  H    0.080277
   128  H    0.063205
   129  H    0.069045
   130  H    0.098668
   131  H    0.084863
   132  H    0.098672
   133  H    0.113527
   134  H    0.110567
   135  H    0.083575
   136  H    0.077356
   137  H    0.106503
 Sum of Mulliken charges =  -0.00000

 Dipole moment (field-independent basis, Debye):
    X=              4.4110    Y=              5.1947    Z=              0.5335  Tot=              6.8357
 Quadrupole moment (field-independent basis, Debye-Ang):
   XX=           -353.8599   YY=           -400.0646   ZZ=           -391.4686
   XY=            -27.2914   XZ=             -1.4644   YZ=             -1.1086

 Normal termination of Gaussian 16 at Sun Sep 15 00:15:06 2019.
