 Gaussian 16, Revision A.03,
 Gaussian 16:  ES64L-G16RevA.03 25-Dec-2016

 ----------------------------------------------------------------------
 # td=(NStates=1) iop(3/107=0140000000,3/108=0140000000) CAM-B3LYP/6-31
 G(d,p)
 ----------------------------------------------------------------------

 --
 TD
 --
 Symbolic Z-matrix:
 Charge =  0 Multiplicity = 1

                         Standard orientation:
 ---------------------------------------------------------------------
 Center     Atomic      Atomic             Coordinates (Angstroms)
 Number     Number       Type             X           Y           Z
 ---------------------------------------------------------------------
      1         12           0       -7.201382    0.640873    0.228166
      2          6           0       -4.874605   -1.889614    0.585148
      3          6           0       -4.818362    2.893779    1.250864
      4          6           0       -9.398467    3.093313   -0.421011
      5          6           0       -9.524594   -1.665172   -0.930194
      6          7           0       -5.168955    0.412142    0.779252
      7          6           0       -4.433574   -0.637568    0.821524
      8          6           0       -2.921186   -0.308784    1.219696
      9          6           0       -3.025458    1.125354    1.690374
     10          6           0       -4.393302    1.508631    1.208190
     11          6           0       -2.860621    1.301643    3.226718
     12          6           0       -1.938334   -0.612021    0.081687
     13          6           0       -0.464809   -0.497498    0.491394
     14          6           0        0.525883   -0.707923   -0.613203
     15          8           0        0.225360   -0.953881   -1.723839
     16          8           0        1.812664   -0.556709   -0.305286
     17          7           0       -7.104119    2.663454    0.372919
     18          6           0       -6.041314    3.410905    0.858288
     19          6           0       -6.415631    4.745094    0.819620
     20          6           0       -7.661895    4.874755    0.415648
     21          6           0       -8.125106    3.519694    0.041342
     22          6           0       -5.437390    5.864524    1.242097
     23          6           0       -8.407812    6.041658    0.076827
     24          6           0       -8.403079    7.226243    0.699815
     25          7           0       -9.101030    0.700149   -0.479388
     26          6           0       -9.860187    1.864030   -0.642595
     27          6           0      -11.230721    1.515517   -1.183488
     28          6           0      -11.234038    0.080710   -1.344673
     29          6           0       -9.989574   -0.354541   -0.943628
     30          6           0      -12.339190    2.404683   -1.406558
     31          6           0      -12.274109   -0.845454   -1.909784
     32          6           0      -12.000189   -1.087586   -3.378404
     33          7           0       -7.266405   -1.426359    0.025747
     34          6           0       -8.289366   -2.187831   -0.525250
     35          6           0       -7.766661   -3.609515   -0.639229
     36          6           0       -6.491807   -3.551048    0.000576
     37          6           0       -6.200971   -2.172412    0.209374
     38          6           0       -8.675158   -4.776419   -0.977770
     39          6           0       -5.393222   -4.356055    0.275571
     40          8           0       -5.226372   -5.543362    0.311758
     41          6           0       -4.145695   -3.281864    0.653252
     42          6           0       -3.477102   -3.650803    1.946429
     43          8           0       -3.653923   -3.141461    3.029957
     44          8           0       -2.646951   -4.729473    1.723510
     45          6           0       -2.223680   -5.448368    3.005073
     46          6           0        2.733807   -0.790947   -1.244376
     47          6           0        4.132010   -0.564736   -0.577212
     48          6           0        5.085988    0.320097   -0.986232
     49          6           0        4.961041    1.204555   -2.231049
     50          6           0        6.460020    0.296491   -0.334885
     51          6           0        7.668494   -0.245714   -0.960493
     52          6           0        8.840246   -0.147681   -0.177916
     53          6           0       10.163111   -0.565722   -0.947713
     54          6           0       10.115136   -2.052407   -1.414051
     55          6           0       11.414228   -0.265474   -0.041001
     56          6           0       12.795598   -0.343897   -0.825345
     57          6           0       13.906891    0.044218    0.075586
     58          6           0       15.319951   -0.227198   -0.550495
     59          6           0       15.629754   -1.717966   -0.744959
     60          6           0       16.406822    0.470929    0.366836
     61          6           0       17.782204    0.441903   -0.245600
     62          6           0       18.708550    1.242386    0.766945
     63          6           0       20.198700    1.420581    0.251356
     64          6           0       20.314399    2.325055   -0.978179
     65          6           0       21.108571    1.913268    1.458133
     66          1           0       -3.924123    3.456681    1.570741
     67          1           0      -10.083646    3.968395   -0.666089
     68          1           0       -9.892399   -2.391115   -1.722670
     69          1           0       -2.795326   -1.024662    2.120629
     70          1           0       -2.200580    1.697881    1.253678
     71          1           0       -1.865380    0.868161    3.511355
     72          1           0       -2.912066    2.452093    3.373565
     73          1           0       -3.635329    0.749340    3.607109
     74          1           0       -2.113852   -1.554078   -0.402260
     75          1           0       -2.187110   -0.021714   -0.826776
     76          1           0       -0.237747    0.557899    1.052635
     77          1           0       -0.235543   -1.202904    1.413297
     78          1           0       -5.884182    6.650376    0.730299
     79          1           0       -5.474336    6.039805    2.250420
     80          1           0       -4.448756    5.736940    1.101240
     81          1           0       -9.210232    5.681005   -0.452802
     82          1           0       -8.994788    8.024803    0.293298
     83          1           0       -7.550905    7.435883    1.315324
     84          1           0      -12.197271    3.025483   -2.202548
     85          1           0      -13.164321    1.664872   -1.788296
     86          1           0      -12.657396    3.104385   -0.586244
     87          1           0      -12.349318   -1.540759   -1.204501
     88          1           0      -13.171261   -0.152866   -1.730252
     89          1           0      -12.776969   -1.758471   -3.872260
     90          1           0      -11.907977   -0.187182   -3.977980
     91          1           0      -11.094815   -1.524578   -3.488383
     92          1           0       -8.954447   -4.982121   -1.793981
     93          1           0       -7.856344   -5.630769   -0.594792
     94          1           0       -9.511394   -4.886903   -0.143718
     95          1           0       -3.421269   -3.441639   -0.174176
     96          1           0       -1.852730   -4.642870    3.731058
     97          1           0       -2.975277   -5.915055    3.552655
     98          1           0       -1.505651   -6.214265    2.547591
     99          1           0        2.744279   -1.967821   -1.421979
    100          1           0        2.533187   -0.108277   -1.998560
    101          1           0        4.422360   -1.372515    0.269395
    102          1           0        4.029837    0.988706   -2.719168
    103          1           0        5.394032    2.256953   -2.031153
    104          1           0        5.554766    0.798431   -3.154469
    105          1           0        6.835764    1.363014    0.240034
    106          1           0        6.384649   -0.391915    0.547627
    107          1           0        7.305870   -1.249513   -1.201695
    108          1           0        7.667848    0.322364   -1.962120
    109          1           0        8.880548    0.691519    0.533978
    110          1           0        8.745439   -1.128711    0.590401
    111          1           0       10.125188    0.223178   -1.751432
    112          1           0        9.211650   -2.107317   -2.001938
    113          1           0       11.025190   -2.291244   -1.809256
    114          1           0       10.016074   -2.702395   -0.525992
    115          1           0       11.392326    0.677633    0.326694
    116          1           0       11.463991   -0.983868    0.793361
    117          1           0       12.877882   -1.255183   -1.311757
    118          1           0       12.769916    0.346409   -1.710696
    119          1           0       13.798563    1.087794    0.073357
    120          1           0       13.860264   -0.500038    0.912175
    121          1           0       15.469308    0.273162   -1.486219
    122          1           0       15.572295   -2.196108    0.201936
    123          1           0       14.948541   -2.120448   -1.401791
    124          1           0       16.705813   -1.662428   -1.163042
    125          1           0       16.095312    1.488670    0.673511
    126          1           0       16.442292   -0.214564    1.360554
    127          1           0       18.309327   -0.435960   -0.484855
    128          1           0       17.726070    0.896386   -1.091366
    129          1           0       18.293657    2.165181    1.021538
    130          1           0       18.642139    0.635796    1.622024
    131          1           0       20.595538    0.398052   -0.251671
    132          1           0       19.982853    3.379123   -0.987528
    133          1           0       21.419161    2.328855   -1.257811
    134          1           0       19.642351    1.729581   -1.652541
    135          1           0       21.023730    1.282693    2.321155
    136          1           0       22.106875    2.071649    1.100758
    137          1           0       20.636624    2.977252    1.696458
 ---------------------------------------------------------------------

 SCF Done:  E(RCAM-B3LYP) =  -2933.51666142     A.U. after   16 cycles

 Excitation energies and oscillator strengths:

 Excited State   1:      Singlet-A      1.9881 eV  623.64 nm  f=0.2416  <S**2>=0.000
     240 -> 243        0.24493
     241 -> 242        0.65937
 This state for optimization and/or second-order correction.
 Total Energy, E(TD-HF/TD-DFT) =  -2933.44360165
 Copying the excited state density for this state as the 1-particle RhoCI density.

 The electronic state is 1-A.
 Alpha  occ. eigenvalues --  -46.79742 -19.21258 -19.21070 -19.16439 -19.16315
 Alpha  occ. eigenvalues --  -19.16307 -14.38008 -14.35171 -14.35023 -14.35012
 Alpha  occ. eigenvalues --  -10.34187 -10.33822 -10.30305 -10.27774 -10.27162
 Alpha  occ. eigenvalues --  -10.26982 -10.25463 -10.25458 -10.25384 -10.25273
 Alpha  occ. eigenvalues --  -10.25260 -10.24636 -10.24594 -10.24415 -10.24308
 Alpha  occ. eigenvalues --  -10.23916 -10.23644 -10.23311 -10.23144 -10.23133
 Alpha  occ. eigenvalues --  -10.22961 -10.22937 -10.22885 -10.22796 -10.22745
 Alpha  occ. eigenvalues --  -10.22741 -10.22574 -10.22184 -10.22173 -10.22162
 Alpha  occ. eigenvalues --  -10.22118 -10.21963 -10.21898 -10.21872 -10.21786
 Alpha  occ. eigenvalues --  -10.21598 -10.21524 -10.21354 -10.21352 -10.21349
 Alpha  occ. eigenvalues --  -10.21211 -10.21180 -10.20983 -10.20617 -10.20616
 Alpha  occ. eigenvalues --  -10.20502 -10.20482 -10.19854 -10.19741 -10.19582
 Alpha  occ. eigenvalues --  -10.19533 -10.19498 -10.19380 -10.18703 -10.18654
 Alpha  occ. eigenvalues --   -3.08348  -1.83294  -1.82826  -1.82742  -1.16339
 Alpha  occ. eigenvalues --   -1.10650  -1.07060  -1.06506  -1.02712  -1.00520
 Alpha  occ. eigenvalues --   -0.98645  -0.98402  -0.95404  -0.86610  -0.86362
 Alpha  occ. eigenvalues --   -0.85332  -0.85132  -0.85053  -0.84788  -0.83675
 Alpha  occ. eigenvalues --   -0.83358  -0.82839  -0.82531  -0.82111  -0.81251
 Alpha  occ. eigenvalues --   -0.80437  -0.79500  -0.78939  -0.78503  -0.78020
 Alpha  occ. eigenvalues --   -0.77227  -0.76290  -0.75769  -0.75743  -0.74128
 Alpha  occ. eigenvalues --   -0.73551  -0.73135  -0.71609  -0.71307  -0.70849
 Alpha  occ. eigenvalues --   -0.70696  -0.70436  -0.69501  -0.68922  -0.68506
 Alpha  occ. eigenvalues --   -0.67643  -0.67074  -0.65856  -0.64996  -0.64730
 Alpha  occ. eigenvalues --   -0.63702  -0.62269  -0.61349  -0.60978  -0.60440
 Alpha  occ. eigenvalues --   -0.59643  -0.59167  -0.58823  -0.58383  -0.57329
 Alpha  occ. eigenvalues --   -0.57017  -0.56821  -0.56460  -0.55894  -0.55695
 Alpha  occ. eigenvalues --   -0.55054  -0.54727  -0.53737  -0.53367  -0.52902
 Alpha  occ. eigenvalues --   -0.52409  -0.51919  -0.51781  -0.51651  -0.51006
 Alpha  occ. eigenvalues --   -0.50502  -0.50221  -0.49916  -0.49366  -0.49089
 Alpha  occ. eigenvalues --   -0.48771  -0.48737  -0.48400  -0.48189  -0.47954
 Alpha  occ. eigenvalues --   -0.47644  -0.47549  -0.47455  -0.46910  -0.46797
 Alpha  occ. eigenvalues --   -0.46513  -0.46446  -0.46264  -0.46054  -0.45940
 Alpha  occ. eigenvalues --   -0.45674  -0.45648  -0.45582  -0.45445  -0.45070
 Alpha  occ. eigenvalues --   -0.44948  -0.44827  -0.44737  -0.44600  -0.44094
 Alpha  occ. eigenvalues --   -0.43837  -0.43692  -0.43496  -0.43250  -0.42819
 Alpha  occ. eigenvalues --   -0.42684  -0.42631  -0.42563  -0.42408  -0.41820
 Alpha  occ. eigenvalues --   -0.41661  -0.41628  -0.41516  -0.41180  -0.40982
 Alpha  occ. eigenvalues --   -0.40583  -0.40455  -0.40404  -0.40216  -0.40015
 Alpha  occ. eigenvalues --   -0.39622  -0.39442  -0.39386  -0.39210  -0.38992
 Alpha  occ. eigenvalues --   -0.38821  -0.38583  -0.38427  -0.38301  -0.38277
 Alpha  occ. eigenvalues --   -0.38168  -0.38062  -0.37699  -0.37321  -0.37176
 Alpha  occ. eigenvalues --   -0.37085  -0.36801  -0.36598  -0.36181  -0.35665
 Alpha  occ. eigenvalues --   -0.35420  -0.35214  -0.34795  -0.34704  -0.34268
 Alpha  occ. eigenvalues --   -0.34243  -0.34088  -0.33901  -0.33641  -0.33534
 Alpha  occ. eigenvalues --   -0.33466  -0.33237  -0.33028  -0.32646  -0.32536
 Alpha  occ. eigenvalues --   -0.32454  -0.32029  -0.31087  -0.30585  -0.30263
 Alpha  occ. eigenvalues --   -0.30129  -0.29584  -0.29335  -0.28773  -0.27454
 Alpha  occ. eigenvalues --   -0.26940  -0.26602  -0.25385  -0.25151  -0.21802
 Alpha  occ. eigenvalues --   -0.20057
 Alpha virt. eigenvalues --   -0.07412  -0.04460  -0.00123   0.02099   0.03512
 Alpha virt. eigenvalues --    0.03871   0.04262   0.04619   0.04881   0.05590
 Alpha virt. eigenvalues --    0.06965   0.08988   0.09781   0.09907   0.10025

 Mulliken charges:
               1
     1  Mg   0.801846
     2  C    0.077922
     3  C   -0.197155
     4  C   -0.192170
     5  C   -0.198907
     6  N   -0.628868
     7  C    0.310929
     8  C   -0.154371
     9  C   -0.162842
    10  C    0.302741
    11  C   -0.285079
    12  C   -0.170618
    13  C   -0.270051
    14  C    0.600113
    15  O   -0.451543
    16  O   -0.425227
    17  N   -0.732497
    18  C    0.343741
    19  C    0.000723
    20  C    0.008956
    21  C    0.289879
    22  C   -0.356694
    23  C   -0.048212
    24  C   -0.248736
    25  N   -0.700496
    26  C    0.344246
    27  C    0.026889
    28  C    0.008190
    29  C    0.298529
    30  C   -0.395724
    31  C   -0.206540
    32  C   -0.310942
    33  N   -0.718309
    34  C    0.252869
    35  C   -0.014151
    36  C    0.055749
    37  C    0.317273
    38  C   -0.340950
    39  C    0.328583
    40  O   -0.444894
    41  C   -0.336577
    42  C    0.632846
    43  O   -0.481108
    44  O   -0.473208
    45  C   -0.099951
    46  C    0.032833
    47  C   -0.143816
    48  C    0.140677
    49  C   -0.362537
    50  C   -0.234783
    51  C   -0.134316
    52  C   -0.161875
    53  C   -0.063689
    54  C   -0.314497
    55  C   -0.172416
    56  C   -0.203842
    57  C   -0.141803
    58  C   -0.090594
    59  C   -0.301925
    60  C   -0.167940
    61  C   -0.186397
    62  C   -0.174418
    63  C   -0.063960
    64  C   -0.296886
    65  C   -0.302326
    66  H    0.081703
    67  H    0.082342
    68  H    0.089854
    69  H    0.120779
    70  H    0.105446
    71  H    0.108080
    72  H    0.095727
    73  H    0.137100
    74  H    0.126018
    75  H    0.118239
    76  H    0.112342
    77  H    0.128499
    78  H    0.116855
    79  H    0.130956
    80  H    0.115836
    81  H    0.069041
    82  H    0.104242
    83  H    0.097267
    84  H    0.137309
    85  H    0.099077
    86  H    0.124527
    87  H    0.125512
    88  H    0.086735
    89  H    0.098517
    90  H    0.117011
    91  H    0.126542
    92  H    0.122945
    93  H    0.120365
    94  H    0.125199
    95  H    0.151676
    96  H    0.132887
    97  H    0.148322
    98  H    0.127766
    99  H    0.099023
   100  H    0.111521
   101  H    0.082880
   102  H    0.112569
   103  H    0.119146
   104  H    0.107986
   105  H    0.048620
   106  H    0.087227
   107  H    0.104601
   108  H    0.072105
   109  H    0.095303
   110  H    0.049120
   111  H    0.079371
   112  H    0.113696
   113  H    0.115909
   114  H    0.100451
   115  H    0.094951
   116  H    0.084003
   117  H    0.090032
   118  H    0.077034
   119  H    0.096817
   120  H    0.094356
   121  H    0.077283
   122  H    0.103575
   123  H    0.110472
   124  H    0.090492
   125  H    0.090156
   126  H    0.056340
   127  H    0.102347
   128  H    0.104973
   129  H    0.093848
   130  H    0.098181
   131  H    0.058272
   132  H    0.097824
   133  H    0.093441
   134  H    0.097428
   135  H    0.108794
   136  H    0.102330
   137  H    0.081114
 Sum of Mulliken charges =  -0.00000

 Dipole moment (field-independent basis, Debye):
    X=              0.3376    Y=              3.4179    Z=             -0.5269  Tot=              3.4747
 Quadrupole moment (field-independent basis, Debye-Ang):
   XX=           -354.6060   YY=           -392.6909   ZZ=           -395.8294
   XY=            -16.0368   XZ=             15.4590   YZ=             -1.9856

 Normal termination of Gaussian 16 at Mon Sep 23 15:37:48 2019.
