 Gaussian 09, Revision D.01,
 Gaussian 09:  ES64L-G09RevD.01 24-Apr-2013

 -------------------------------------
 # td=(NStates=1) CAM-B3LYP/6-31G(d,p)
 -------------------------------------

 --
 TD
 --
 Symbolic Z-matrix:
 Charge =  0 Multiplicity = 1

                         Standard orientation:
 ---------------------------------------------------------------------
 Center     Atomic      Atomic             Coordinates (Angstroms)
 Number     Number       Type             X           Y           Z
 ---------------------------------------------------------------------
      1         12           0       -7.173461    0.664079    0.090913
      2          6           0       -4.850718   -1.942727    0.554768
      3          6           0       -4.883389    2.844475    1.132952
      4          6           0       -9.485667    3.091428   -0.278614
      5          6           0       -9.538272   -1.693095   -0.869282
      6          7           0       -5.101138    0.409973    0.618816
      7          6           0       -4.267283   -0.696073    0.672430
      8          6           0       -2.906027   -0.386852    1.187775
      9          6           0       -3.114041    1.103913    1.596767
     10          6           0       -4.396954    1.511412    1.035024
     11          6           0       -2.994614    1.226913    3.043374
     12          6           0       -1.888942   -0.535990   -0.020071
     13          6           0       -0.435098   -0.347957    0.335067
     14          6           0        0.500143   -0.656538   -0.851267
     15          8           0        0.163314   -1.156791   -1.984148
     16          8           0        1.700358   -0.492331   -0.431698
     17          7           0       -7.202600    2.607108    0.363894
     18          6           0       -6.089853    3.362632    0.815621
     19          6           0       -6.477245    4.821195    0.760767
     20          6           0       -7.746332    4.820847    0.405206
     21          6           0       -8.280628    3.486935    0.024324
     22          6           0       -5.403390    5.860755    1.180987
     23          6           0       -8.572367    6.019402    0.104235
     24          6           0       -8.463561    7.264343    0.637251
     25          7           0       -9.152310    0.727845   -0.495332
     26          6           0       -9.920762    1.779380   -0.572777
     27          6           0      -11.250311    1.394746   -0.969812
     28          6           0      -11.247625    0.105132   -1.132417
     29          6           0       -9.936671   -0.381012   -0.856078
     30          6           0      -12.445635    2.383741   -1.302912
     31          6           0      -12.443455   -0.737063   -1.557023
     32          6           0      -12.214124   -1.207749   -3.095425
     33          7           0       -7.161004   -1.346050   -0.145350
     34          6           0       -8.190515   -2.228694   -0.608535
     35          6           0       -7.815707   -3.504654   -0.457661
     36          6           0       -6.454054   -3.548797   -0.074429
     37          6           0       -6.127974   -2.199980    0.070941
     38          6           0       -8.653348   -4.718865   -0.756330
     39          6           0       -5.304135   -4.283086    0.294147
     40          8           0       -5.082091   -5.479018    0.300027
     41          6           0       -4.177539   -3.239620    0.607086
     42          6           0       -3.466157   -3.670163    1.964326
     43          8           0       -3.675664   -3.218865    3.066219
     44          8           0       -2.691894   -4.698780    1.742761
     45          6           0       -2.168786   -5.153474    3.004927
     46          6           0        2.834409   -0.843116   -1.444607
     47          6           0        4.164793   -0.558341   -0.714420
     48          6           0        5.160173    0.199059   -1.113367
     49          6           0        5.153213    1.064884   -2.407621
     50          6           0        6.370386    0.333101   -0.232127
     51          6           0        7.655471   -0.296728   -1.008314
     52          6           0        8.887336   -0.165745   -0.089181
     53          6           0       10.190724   -0.553377   -0.859984
     54          6           0       10.215845   -1.941519   -1.343667
     55          6           0       11.381199   -0.172746    0.051162
     56          6           0       12.773350   -0.560699   -0.642948
     57          6           0       13.956550   -0.081782    0.285637
     58          6           0       15.379930   -0.159506   -0.355449
     59          6           0       15.652465   -1.600415   -0.798931
     60          6           0       16.461468    0.320581    0.515360
     61          6           0       17.884857    0.583229   -0.113491
     62          6           0       18.898817    1.324625    0.854500
     63          6           0       20.350362    1.378360    0.300158
     64          6           0       20.320403    2.143513   -1.091576
     65          6           0       21.306574    2.156088    1.304391
     66          1           0       -4.001661    3.595832    1.494647
     67          1           0      -10.424058    3.820020   -0.280031
     68          1           0      -10.320844   -2.533060   -0.976449
     69          1           0       -2.539549   -1.189014    1.854599
     70          1           0       -2.278260    1.754040    1.294953
     71          1           0       -2.031855    0.905397    3.250486
     72          1           0       -3.386467    2.261239    3.252943
     73          1           0       -3.764889    0.499325    3.314712
     74          1           0       -2.019003   -1.583278   -0.181384
     75          1           0       -2.192578    0.064702   -0.979268
     76          1           0       -0.363127    0.611286    0.732437
     77          1           0       -0.177046   -1.107151    1.041064
     78          1           0       -5.474151    6.925902    0.826653
     79          1           0       -5.627140    6.013794    2.267816
     80          1           0       -4.325883    5.636898    0.960163
     81          1           0       -9.509302    5.672922   -0.491031
     82          1           0       -9.271331    7.941821    0.506729
     83          1           0       -7.512070    7.819919    1.280033
     84          1           0      -12.230205    3.225331   -2.049459
     85          1           0      -13.422786    1.854911   -1.485302
     86          1           0      -12.556314    2.857939   -0.384905
     87          1           0      -12.628590   -1.712297   -0.884711
     88          1           0      -13.415289   -0.188540   -1.601237
     89          1           0      -13.068898   -1.854211   -3.460873
     90          1           0      -12.338562   -0.393966   -3.696417
     91          1           0      -11.258060   -1.717786   -3.129602
     92          1           0       -9.127140   -4.989966   -1.910175
     93          1           0       -8.013531   -5.668398   -0.361171
     94          1           0       -9.480312   -4.813415    0.108289
     95          1           0       -3.330393   -3.438601   -0.157950
     96          1           0       -1.617572   -4.373156    3.449553
     97          1           0       -3.078405   -5.507157    3.603410
     98          1           0       -1.642726   -6.096588    2.767907
     99          1           0        2.601060   -1.850059   -1.773733
    100          1           0        2.632818   -0.136107   -2.278953
    101          1           0        4.290076   -1.196419    0.220850
    102          1           0        4.168942    1.186704   -3.009262
    103          1           0        5.488943    1.970372   -2.075273
    104          1           0        5.811842    0.797239   -3.095586
    105          1           0        6.535802    1.390712   -0.168611
    106          1           0        6.271127   -0.389305    0.617175
    107          1           0        7.181537   -1.278587   -1.135342
    108          1           0        7.638928    0.244612   -1.960419
    109          1           0        9.023189    0.774320    0.421449
    110          1           0        8.883038   -0.741378    0.807358
    111          1           0       10.222620    0.051605   -1.706966
    112          1           0        9.245737   -2.325978   -1.781489
    113          1           0       10.928530   -2.173348   -2.112125
    114          1           0       10.270252   -2.672028   -0.373213
    115          1           0       11.261034    1.025003    0.142418
    116          1           0       11.238391   -0.643782    1.166077
    117          1           0       12.785651   -1.646754   -0.620876
    118          1           0       12.894533   -0.173201   -1.622748
    119          1           0       13.672892    0.966869    0.451142
    120          1           0       13.835539   -0.384106    1.378382
    121          1           0       15.350487    0.553465   -1.061574
    122          1           0       15.493482   -2.378573   -0.023361
    123          1           0       14.894514   -2.117274   -1.466500
    124          1           0       16.581636   -1.836924   -1.372910
    125          1           0       16.246964    1.282619    0.954391
    126          1           0       16.578827   -0.227021    1.433515
    127          1           0       18.262726   -0.357708   -0.370262
    128          1           0       17.888718    1.403002   -0.956662
    129          1           0       18.389810    2.309156    0.953079
    130          1           0       19.089777    0.927257    1.809019
    131          1           0       20.890054    0.291674    0.273396
    132          1           0       19.953418    3.176162   -0.827585
    133          1           0       21.355292    2.331430   -1.476674
    134          1           0       19.719871    1.480978   -1.714863
    135          1           0       21.397323    1.484357    2.219269
    136          1           0       22.348727    2.013984    1.023329
    137          1           0       20.868885    3.091572    1.382052
 ---------------------------------------------------------------------

 SCF Done:  E(RCAM-B3LYP) =  -2932.73085427     A.U. after   17 cycles

 Excitation energies and oscillator strengths:

 Excited State   1:      Singlet-A      2.3738 eV  522.31 nm  f=0.1919  <S**2>=0.000
     240 -> 242       -0.33598
     240 -> 243        0.17599
     241 -> 242        0.53166
     241 -> 243        0.25136
 This state for optimization and/or second-order correction.
 Total Energy, E(TD-HF/TD-KS) =  -2932.64361969
 Copying the excited state density for this state as the 1-particle RhoCI density.

 The electronic state is 1-A.
 Alpha  occ. eigenvalues --  -46.83357 -19.26647 -19.26050 -19.19713 -19.19111
 Alpha  occ. eigenvalues --  -19.17756 -14.41986 -14.39793 -14.39532 -14.38207
 Alpha  occ. eigenvalues --  -10.38651 -10.38058 -10.33262 -10.32847 -10.31950
 Alpha  occ. eigenvalues --  -10.31412 -10.30555 -10.30551 -10.29810 -10.29471
 Alpha  occ. eigenvalues --  -10.29116 -10.28666 -10.28643 -10.28576 -10.28430
 Alpha  occ. eigenvalues --  -10.28339 -10.28234 -10.28070 -10.28053 -10.27798
 Alpha  occ. eigenvalues --  -10.27783 -10.27483 -10.27396 -10.27280 -10.27248
 Alpha  occ. eigenvalues --  -10.27206 -10.27195 -10.27012 -10.26991 -10.26939
 Alpha  occ. eigenvalues --  -10.26759 -10.26754 -10.26675 -10.26286 -10.26274
 Alpha  occ. eigenvalues --  -10.25945 -10.25909 -10.25900 -10.25824 -10.25551
 Alpha  occ. eigenvalues --  -10.25518 -10.25501 -10.25403 -10.25366 -10.25357
 Alpha  occ. eigenvalues --  -10.25240 -10.25226 -10.24938 -10.24927 -10.24875
 Alpha  occ. eigenvalues --  -10.24826 -10.24795 -10.24290 -10.23986 -10.23174
 Alpha  occ. eigenvalues --   -3.12546  -1.87243  -1.86815  -1.86708  -1.19459
 Alpha  occ. eigenvalues --   -1.17778  -1.08913  -1.08495  -1.05274  -1.04765
 Alpha  occ. eigenvalues --   -1.04226  -1.02197  -1.01630  -0.92421  -0.91954
 Alpha  occ. eigenvalues --   -0.90589  -0.90470  -0.89977  -0.89684  -0.89111
 Alpha  occ. eigenvalues --   -0.88326  -0.88028  -0.87643  -0.86426  -0.85948
 Alpha  occ. eigenvalues --   -0.84844  -0.83846  -0.82913  -0.82747  -0.82196
 Alpha  occ. eigenvalues --   -0.81637  -0.81002  -0.80762  -0.79861  -0.78508
 Alpha  occ. eigenvalues --   -0.77881  -0.77641  -0.77192  -0.75471  -0.75437
 Alpha  occ. eigenvalues --   -0.75019  -0.74900  -0.74677  -0.73371  -0.71915
 Alpha  occ. eigenvalues --   -0.71752  -0.70263  -0.70004  -0.69136  -0.67888
 Alpha  occ. eigenvalues --   -0.67156  -0.66625  -0.65588  -0.65484  -0.64567
 Alpha  occ. eigenvalues --   -0.63987  -0.63132  -0.62927  -0.62502  -0.61524
 Alpha  occ. eigenvalues --   -0.61007  -0.60924  -0.60341  -0.59594  -0.59341
 Alpha  occ. eigenvalues --   -0.58430  -0.57614  -0.57233  -0.56653  -0.56381
 Alpha  occ. eigenvalues --   -0.56139  -0.55667  -0.55390  -0.54972  -0.54762
 Alpha  occ. eigenvalues --   -0.54600  -0.54239  -0.53508  -0.53491  -0.53175
 Alpha  occ. eigenvalues --   -0.52903  -0.52442  -0.52270  -0.51796  -0.51718
 Alpha  occ. eigenvalues --   -0.51455  -0.51202  -0.51121  -0.50806  -0.50741
 Alpha  occ. eigenvalues --   -0.50621  -0.50449  -0.50305  -0.49942  -0.49751
 Alpha  occ. eigenvalues --   -0.49556  -0.49012  -0.48747  -0.48504  -0.48272
 Alpha  occ. eigenvalues --   -0.47831  -0.47710  -0.47436  -0.47168  -0.46990
 Alpha  occ. eigenvalues --   -0.46835  -0.46561  -0.46406  -0.46211  -0.46039
 Alpha  occ. eigenvalues --   -0.45620  -0.45449  -0.45064  -0.45044  -0.44897
 Alpha  occ. eigenvalues --   -0.44853  -0.44646  -0.44507  -0.43962  -0.43689
 Alpha  occ. eigenvalues --   -0.43561  -0.43431  -0.43159  -0.42919  -0.42837
 Alpha  occ. eigenvalues --   -0.42684  -0.42493  -0.42229  -0.42141  -0.41724
 Alpha  occ. eigenvalues --   -0.41617  -0.41397  -0.41258  -0.41116  -0.40847
 Alpha  occ. eigenvalues --   -0.40732  -0.40627  -0.40278  -0.40171  -0.39901
 Alpha  occ. eigenvalues --   -0.39808  -0.39706  -0.39487  -0.39395  -0.39175
 Alpha  occ. eigenvalues --   -0.39028  -0.38909  -0.38883  -0.38357  -0.38119
 Alpha  occ. eigenvalues --   -0.37522  -0.37462  -0.37188  -0.37100  -0.36787
 Alpha  occ. eigenvalues --   -0.36660  -0.36509  -0.36193  -0.36010  -0.35876
 Alpha  occ. eigenvalues --   -0.35549  -0.34997  -0.34628  -0.33839  -0.33807
 Alpha  occ. eigenvalues --   -0.33165  -0.32309  -0.32282  -0.30568  -0.30446
 Alpha  occ. eigenvalues --   -0.29714  -0.28394  -0.28356  -0.27702  -0.23879
 Alpha  occ. eigenvalues --   -0.21729
 Alpha virt. eigenvalues --   -0.06011  -0.03000   0.01867   0.04302   0.05795
 Alpha virt. eigenvalues --    0.06358   0.06646   0.06977   0.07257   0.07552
 Alpha virt. eigenvalues --    0.08507   0.10555   0.11077   0.11357   0.11563

 Mulliken charges:
               1
     1  Mg   0.811682
     2  C    0.112531
     3  C   -0.237975
     4  C   -0.192232
     5  C   -0.180053
     6  N   -0.622008
     7  C    0.289347
     8  C   -0.172342
     9  C   -0.179197
    10  C    0.384684
    11  C   -0.268544
    12  C   -0.174685
    13  C   -0.261162
    14  C    0.601442
    15  O   -0.534139
    16  O   -0.455172
    17  N   -0.753869
    18  C    0.342578
    19  C    0.060351
    20  C   -0.017318
    21  C    0.338683
    22  C   -0.379217
    23  C   -0.070446
    24  C   -0.247369
    25  N   -0.694297
    26  C    0.324377
    27  C   -0.015042
    28  C    0.079824
    29  C    0.280461
    30  C   -0.363537
    31  C   -0.254336
    32  C   -0.316248
    33  N   -0.703368
    34  C    0.242588
    35  C    0.023363
    36  C    0.077242
    37  C    0.242396
    38  C   -0.383247
    39  C    0.330951
    40  O   -0.484254
    41  C   -0.350324
    42  C    0.597993
    43  O   -0.492672
    44  O   -0.415404
    45  C   -0.085592
    46  C   -0.004576
    47  C   -0.152011
    48  C    0.129359
    49  C   -0.366501
    50  C   -0.245313
    51  C   -0.189638
    52  C   -0.176225
    53  C   -0.045068
    54  C   -0.303995
    55  C   -0.177336
    56  C   -0.180350
    57  C   -0.203204
    58  C   -0.017256
    59  C   -0.330088
    60  C   -0.186374
    61  C   -0.191714
    62  C   -0.165443
    63  C   -0.075831
    64  C   -0.307232
    65  C   -0.306676
    66  H    0.082613
    67  H    0.095917
    68  H    0.115703
    69  H    0.121012
    70  H    0.098823
    71  H    0.117529
    72  H    0.096404
    73  H    0.124851
    74  H    0.114558
    75  H    0.109635
    76  H    0.127764
    77  H    0.135139
    78  H    0.121407
    79  H    0.137181
    80  H    0.125945
    81  H    0.089813
    82  H    0.111875
    83  H    0.088823
    84  H    0.118651
    85  H    0.112475
    86  H    0.132218
    87  H    0.094845
    88  H    0.101266
    89  H    0.092306
    90  H    0.124659
    91  H    0.119458
    92  H    0.103341
    93  H    0.129115
    94  H    0.102114
    95  H    0.158638
    96  H    0.134788
    97  H    0.133836
    98  H    0.120217
    99  H    0.155113
   100  H    0.134391
   101  H    0.089098
   102  H    0.108864
   103  H    0.123244
   104  H    0.138447
   105  H    0.109181
   106  H    0.109997
   107  H    0.109690
   108  H    0.097409
   109  H    0.094764
   110  H    0.096187
   111  H    0.093000
   112  H    0.096973
   113  H    0.112967
   114  H    0.070126
   115  H    0.069657
   116  H    0.071940
   117  H    0.112302
   118  H    0.102078
   119  H    0.085868
   120  H    0.081731
   121  H    0.095690
   122  H    0.103796
   123  H    0.089022
   124  H    0.101400
   125  H    0.080956
   126  H    0.091597
   127  H    0.104585
   128  H    0.085725
   129  H    0.085256
   130  H    0.092985
   131  H    0.060820
   132  H    0.094224
   133  H    0.094689
   134  H    0.117945
   135  H    0.088343
   136  H    0.105093
   137  H    0.110961
 Sum of Mulliken charges =   0.00000

 Dipole moment (field-independent basis, Debye):
    X=              2.9506    Y=              7.2752    Z=              0.4415  Tot=              7.8632
 Quadrupole moment (field-independent basis, Debye-Ang):
   XX=           -332.0863   YY=           -394.2604   ZZ=           -401.6125
   XY=            -37.7684   XZ=              6.3362   YZ=             -2.0273

 Normal termination of Gaussian 09 at Wed Jul  3 22:27:48 2019.
