 Gaussian 16, Revision A.03,
 Gaussian 16:  ES64L-G16RevA.03 25-Dec-2016

 ----------------------------------------------------------------------
 # td=(NStates=1) iop(3/107=0140000000,3/108=0140000000) CAM-B3LYP/6-31
 G(d,p)
 ----------------------------------------------------------------------

 --
 TD
 --
 Symbolic Z-matrix:
 Charge =  0 Multiplicity = 1

                         Standard orientation:
 ---------------------------------------------------------------------
 Center     Atomic      Atomic             Coordinates (Angstroms)
 Number     Number       Type             X           Y           Z
 ---------------------------------------------------------------------
      1         12           0       -7.096689    0.646295    0.056588
      2          6           0       -4.871280   -1.922854    0.652989
      3          6           0       -4.910280    2.860497    1.341752
      4          6           0       -9.414752    3.069276   -0.444042
      5          6           0       -9.433492   -1.749278   -0.933443
      6          7           0       -5.088654    0.484649    0.804818
      7          6           0       -4.370024   -0.754001    0.963764
      8          6           0       -2.934659   -0.354832    1.354077
      9          6           0       -3.173416    1.080983    1.940931
     10          6           0       -4.354022    1.517974    1.270994
     11          6           0       -3.134639    1.185689    3.398881
     12          6           0       -2.004017   -0.519136    0.109500
     13          6           0       -0.472144   -0.297774    0.459592
     14          6           0        0.445711   -0.618936   -0.617572
     15          8           0        0.191007   -1.089485   -1.754461
     16          8           0        1.675128   -0.378466   -0.295999
     17          7           0       -7.070262    2.597371    0.231422
     18          6           0       -6.059350    3.401454    0.849761
     19          6           0       -6.452197    4.778299    0.753152
     20          6           0       -7.708317    4.887151    0.215281
     21          6           0       -8.089302    3.448604   -0.069153
     22          6           0       -5.504755    5.823583    1.253385
     23          6           0       -8.556900    6.036015    0.096083
     24          6           0       -8.364270    7.224930    0.730518
     25          7           0       -8.980341    0.629092   -0.604684
     26          6           0       -9.767685    1.753364   -0.764638
     27          6           0      -11.085482    1.440023   -1.237941
     28          6           0      -11.095944    0.088742   -1.398561
     29          6           0       -9.812697   -0.392998   -0.964344
     30          6           0      -12.212819    2.373939   -1.528439
     31          6           0      -12.293893   -0.842966   -1.778867
     32          6           0      -12.201270   -1.169008   -3.236625
     33          7           0       -7.105295   -1.350391   -0.082794
     34          6           0       -8.177744   -2.231838   -0.505689
     35          6           0       -7.798252   -3.631027   -0.444576
     36          6           0       -6.422237   -3.572877   -0.021602
     37          6           0       -6.177291   -2.107120    0.145098
     38          6           0       -8.506315   -4.774761   -0.914922
     39          6           0       -5.309428   -4.348023    0.253999
     40          8           0       -5.144233   -5.564766    0.087576
     41          6           0       -4.145314   -3.354900    0.703495
     42          6           0       -3.577213   -3.752680    1.971065
     43          8           0       -3.791040   -3.160592    3.073381
     44          8           0       -2.618512   -4.682812    1.780250
     45          6           0       -2.123760   -5.216126    2.970904
     46          6           0        2.717825   -0.626600   -1.219168
     47          6           0        4.023013   -0.441118   -0.562779
     48          6           0        5.083400    0.286822   -0.940510
     49          6           0        5.140930    1.243358   -2.193813
     50          6           0        6.352770    0.300550   -0.272697
     51          6           0        7.656733   -0.264534   -1.034146
     52          6           0        8.851851   -0.097111   -0.219809
     53          6           0       10.094409   -0.587985   -0.872247
     54          6           0       10.068640   -2.053977   -1.170152
     55          6           0       11.325551   -0.216765   -0.018566
     56          6           0       12.698604   -0.453461   -0.747158
     57          6           0       13.865002   -0.076604    0.108953
     58          6           0       15.324459   -0.079582   -0.481831
     59          6           0       15.701455   -1.480690   -1.040897
     60          6           0       16.367680    0.504714    0.460688
     61          6           0       17.780574    0.617934   -0.308257
     62          6           0       18.702313    1.222987    0.722441
     63          6           0       20.160692    1.322035    0.266230
     64          6           0       20.436894    2.060126   -0.978160
     65          6           0       21.117102    1.841075    1.371174
     66          1           0       -4.278392    3.509795    1.717066
     67          1           0      -10.070182    4.054140   -0.784954
     68          1           0      -10.083305   -2.585261   -1.282193
     69          1           0       -2.447675   -1.032328    2.018377
     70          1           0       -2.325205    1.534052    1.518041
     71          1           0       -2.155144    0.899155    3.925166
     72          1           0       -3.355460    2.135414    3.751586
     73          1           0       -3.765412    0.388591    3.941162
     74          1           0       -2.049622   -1.430937   -0.439823
     75          1           0       -2.224191    0.190623   -0.779341
     76          1           0       -0.055974    0.775782    0.794454
     77          1           0       -0.275873   -0.902065    1.322756
     78          1           0       -5.447498    6.794212    0.606556
     79          1           0       -5.859454    6.103931    2.386397
     80          1           0       -4.396804    5.454232    1.371303
     81          1           0       -9.515048    5.906899   -0.658694
     82          1           0       -9.322848    7.903829    0.705662
     83          1           0       -7.603168    7.528633    1.500513
     84          1           0      -11.892718    2.881334   -2.515441
     85          1           0      -13.174357    2.004966   -1.486560
     86          1           0      -12.657947    3.411403   -0.836990
     87          1           0      -12.179481   -1.585609   -1.350085
     88          1           0      -13.388198   -0.412889   -1.515694
     89          1           0      -12.907118   -1.689441   -3.757292
     90          1           0      -11.995055   -0.306483   -3.786456
     91          1           0      -11.246480   -1.808858   -3.550856
     92          1           0       -8.614345   -4.857792   -2.118527
     93          1           0       -8.118267   -5.758859   -0.626626
     94          1           0       -9.588238   -4.783875   -0.622786
     95          1           0       -3.383354   -3.379753   -0.142368
     96          1           0       -1.705498   -4.460169    3.545208
     97          1           0       -2.802924   -5.628406    3.598726
     98          1           0       -1.448099   -6.045625    2.612597
     99          1           0        2.677971   -1.553315   -1.770578
    100          1           0        2.698418    0.056217   -1.884794
    101          1           0        4.264503   -1.237390    0.215670
    102          1           0        4.119222    1.438339   -2.686127
    103          1           0        5.619932    2.253247   -2.247403
    104          1           0        5.616280    0.664904   -3.071425
    105          1           0        6.481884    1.457992   -0.107357
    106          1           0        6.365732   -0.329877    0.555369
    107          1           0        7.348265   -1.378727   -1.184928
    108          1           0        7.593311    0.123428   -2.233526
    109          1           0        9.040958    0.782752    0.313321
    110          1           0        8.687822   -0.962095    0.501386
    111          1           0       10.046558   -0.156123   -1.804575
    112          1           0        9.374284   -2.040153   -2.069987
    113          1           0       11.120376   -2.332035   -1.505978
    114          1           0        9.559926   -2.757902   -0.216481
    115          1           0       11.542915    0.737739    0.416159
    116          1           0       11.621028   -0.851311    0.838004
    117          1           0       12.768983   -1.410696   -1.120876
    118          1           0       12.807740    0.087489   -1.589577
    119          1           0       13.871869    0.879349    0.598630
    120          1           0       13.812972   -0.625260    1.079276
    121          1           0       15.256616    0.449114   -1.493307
    122          1           0       15.854017   -2.029233   -0.053036
    123          1           0       14.638669   -1.792009   -1.486482
    124          1           0       16.456404   -1.735639   -1.909894
    125          1           0       15.990082    1.448331    0.601761
    126          1           0       16.301557   -0.038264    1.284951
    127          1           0       18.007557   -0.385424   -0.644078
    128          1           0       17.601939    1.122248   -1.273555
    129          1           0       18.443877    2.388828    1.145504
    130          1           0       18.625623    0.735769    1.670459
    131          1           0       20.605358    0.226859    0.187325
    132          1           0       20.024838    3.091171   -0.758565
    133          1           0       21.457183    1.927427   -1.346750
    134          1           0       20.020843    1.632269   -1.824361
    135          1           0       20.898585    1.238439    2.222190
    136          1           0       22.263380    1.710217    1.071450
    137          1           0       20.816485    2.799730    1.610329
 ---------------------------------------------------------------------

 SCF Done:  E(RCAM-B3LYP) =  -2933.41459393     A.U. after   16 cycles

 Excitation energies and oscillator strengths:

 Excited State   1:      Singlet-A      1.9814 eV  625.75 nm  f=0.2717  <S**2>=0.000
     240 -> 243        0.19079
     241 -> 242        0.67761
 This state for optimization and/or second-order correction.
 Total Energy, E(TD-HF/TD-DFT) =  -2933.34178045
 Copying the excited state density for this state as the 1-particle RhoCI density.

 The electronic state is 1-A.
 Alpha  occ. eigenvalues --  -46.79042 -19.22290 -19.22180 -19.16001 -19.15011
 Alpha  occ. eigenvalues --  -19.14602 -14.37556 -14.35889 -14.35301 -14.35214
 Alpha  occ. eigenvalues --  -10.34234 -10.33854 -10.29082 -10.27003 -10.25718
 Alpha  occ. eigenvalues --  -10.25714 -10.25606 -10.25278 -10.25141 -10.24946
 Alpha  occ. eigenvalues --  -10.24853 -10.24777 -10.24564 -10.24493 -10.24293
 Alpha  occ. eigenvalues --  -10.24175 -10.24076 -10.24046 -10.23823 -10.23777
 Alpha  occ. eigenvalues --  -10.23617 -10.23498 -10.23467 -10.23385 -10.23247
 Alpha  occ. eigenvalues --  -10.23241 -10.23156 -10.23119 -10.22977 -10.22791
 Alpha  occ. eigenvalues --  -10.22622 -10.22614 -10.22169 -10.22136 -10.21931
 Alpha  occ. eigenvalues --  -10.21879 -10.21832 -10.21788 -10.21751 -10.21750
 Alpha  occ. eigenvalues --  -10.21643 -10.21372 -10.21288 -10.21280 -10.21143
 Alpha  occ. eigenvalues --  -10.20919 -10.20832 -10.20624 -10.20621 -10.20560
 Alpha  occ. eigenvalues --  -10.19823 -10.19499 -10.19208 -10.19149 -10.19094
 Alpha  occ. eigenvalues --   -3.07967  -1.82883  -1.82446  -1.82399  -1.14956
 Alpha  occ. eigenvalues --   -1.13182  -1.03686  -1.01980  -1.01646  -1.01072
 Alpha  occ. eigenvalues --   -0.98454  -0.98258  -0.96943  -0.87554  -0.86784
 Alpha  occ. eigenvalues --   -0.86231  -0.85275  -0.84893  -0.84524  -0.84224
 Alpha  occ. eigenvalues --   -0.83918  -0.83773  -0.83224  -0.82950  -0.82149
 Alpha  occ. eigenvalues --   -0.81002  -0.80285  -0.79270  -0.78942  -0.77922
 Alpha  occ. eigenvalues --   -0.77146  -0.76641  -0.76472  -0.75539  -0.74303
 Alpha  occ. eigenvalues --   -0.73013  -0.72155  -0.71740  -0.71504  -0.71463
 Alpha  occ. eigenvalues --   -0.70659  -0.70288  -0.69961  -0.69655  -0.68408
 Alpha  occ. eigenvalues --   -0.67882  -0.66983  -0.66366  -0.65395  -0.64130
 Alpha  occ. eigenvalues --   -0.63331  -0.62745  -0.62262  -0.61312  -0.61130
 Alpha  occ. eigenvalues --   -0.60454  -0.60306  -0.59150  -0.58478  -0.58074
 Alpha  occ. eigenvalues --   -0.56941  -0.56814  -0.56700  -0.56064  -0.55595
 Alpha  occ. eigenvalues --   -0.55010  -0.54560  -0.54027  -0.53683  -0.53262
 Alpha  occ. eigenvalues --   -0.52595  -0.51830  -0.51476  -0.51326  -0.51244
 Alpha  occ. eigenvalues --   -0.51144  -0.50862  -0.50716  -0.50313  -0.49840
 Alpha  occ. eigenvalues --   -0.49480  -0.49208  -0.48858  -0.48535  -0.48450
 Alpha  occ. eigenvalues --   -0.48069  -0.47931  -0.47198  -0.47111  -0.46945
 Alpha  occ. eigenvalues --   -0.46657  -0.46439  -0.46333  -0.46126  -0.45996
 Alpha  occ. eigenvalues --   -0.45568  -0.45249  -0.45225  -0.45028  -0.44591
 Alpha  occ. eigenvalues --   -0.44395  -0.44250  -0.43942  -0.43652  -0.43439
 Alpha  occ. eigenvalues --   -0.43195  -0.42869  -0.42791  -0.42617  -0.42504
 Alpha  occ. eigenvalues --   -0.42189  -0.42037  -0.42011  -0.41813  -0.41699
 Alpha  occ. eigenvalues --   -0.41453  -0.41294  -0.40860  -0.40799  -0.40585
 Alpha  occ. eigenvalues --   -0.40467  -0.40075  -0.39915  -0.39762  -0.39604
 Alpha  occ. eigenvalues --   -0.39518  -0.39250  -0.39125  -0.39032  -0.38855
 Alpha  occ. eigenvalues --   -0.38580  -0.38447  -0.38400  -0.38221  -0.38059
 Alpha  occ. eigenvalues --   -0.37864  -0.37767  -0.37576  -0.37333  -0.37100
 Alpha  occ. eigenvalues --   -0.36902  -0.36660  -0.36130  -0.36055  -0.36032
 Alpha  occ. eigenvalues --   -0.35829  -0.35581  -0.35447  -0.35203  -0.34968
 Alpha  occ. eigenvalues --   -0.34525  -0.34423  -0.34265  -0.34206  -0.33651
 Alpha  occ. eigenvalues --   -0.33594  -0.33328  -0.32905  -0.32581  -0.32212
 Alpha  occ. eigenvalues --   -0.32075  -0.31831  -0.31105  -0.30708  -0.30551
 Alpha  occ. eigenvalues --   -0.29850  -0.29505  -0.29354  -0.28813  -0.27244
 Alpha  occ. eigenvalues --   -0.26992  -0.26253  -0.25902  -0.25196  -0.22340
 Alpha  occ. eigenvalues --   -0.19595
 Alpha virt. eigenvalues --   -0.07085  -0.03969  -0.00433   0.01619   0.02862
 Alpha virt. eigenvalues --    0.03777   0.04014   0.05065   0.05150   0.05636
 Alpha virt. eigenvalues --    0.06603   0.08001   0.09367   0.09406   0.09627

 Mulliken charges:
               1
     1  Mg   0.812132
     2  C    0.077064
     3  C   -0.186167
     4  C   -0.165160
     5  C   -0.181467
     6  N   -0.628301
     7  C    0.279965
     8  C   -0.157149
     9  C   -0.123628
    10  C    0.355031
    11  C   -0.315330
    12  C   -0.193150
    13  C   -0.272107
    14  C    0.602646
    15  O   -0.523315
    16  O   -0.437127
    17  N   -0.723483
    18  C    0.324940
    19  C    0.055524
    20  C    0.048963
    21  C    0.295635
    22  C   -0.386740
    23  C   -0.087986
    24  C   -0.247009
    25  N   -0.701714
    26  C    0.294913
    27  C    0.040260
    28  C    0.000860
    29  C    0.295951
    30  C   -0.360967
    31  C   -0.151422
    32  C   -0.329566
    33  N   -0.701114
    34  C    0.202247
    35  C    0.099437
    36  C    0.047605
    37  C    0.358784
    38  C   -0.405593
    39  C    0.296460
    40  O   -0.491362
    41  C   -0.317033
    42  C    0.640215
    43  O   -0.511404
    44  O   -0.426075
    45  C   -0.085232
    46  C    0.053929
    47  C   -0.175718
    48  C    0.161347
    49  C   -0.387253
    50  C   -0.211523
    51  C   -0.197029
    52  C   -0.135199
    53  C   -0.053231
    54  C   -0.292682
    55  C   -0.197364
    56  C   -0.191903
    57  C   -0.198436
    58  C   -0.085338
    59  C   -0.296496
    60  C   -0.173057
    61  C   -0.183930
    62  C   -0.143545
    63  C   -0.066183
    64  C   -0.283994
    65  C   -0.298876
    66  H    0.041794
    67  H    0.077727
    68  H    0.093491
    69  H    0.110438
    70  H    0.111106
    71  H    0.102084
    72  H    0.121107
    73  H    0.126652
    74  H    0.141897
    75  H    0.106915
    76  H    0.122312
    77  H    0.145413
    78  H    0.121190
    79  H    0.106216
    80  H    0.108935
    81  H    0.087395
    82  H    0.093362
    83  H    0.113630
    84  H    0.121676
    85  H    0.128105
    86  H    0.063403
    87  H    0.098336
    88  H    0.086133
    89  H    0.112098
    90  H    0.121196
    91  H    0.078792
    92  H    0.116877
    93  H    0.154442
    94  H    0.114485
    95  H    0.164567
    96  H    0.125869
    97  H    0.135801
    98  H    0.113598
    99  H    0.139031
   100  H    0.108007
   101  H    0.074007
   102  H    0.102381
   103  H    0.120895
   104  H    0.118207
   105  H    0.093009
   106  H    0.101585
   107  H    0.097456
   108  H    0.054773
   109  H    0.104018
   110  H    0.089398
   111  H    0.101144
   112  H    0.101867
   113  H    0.105494
   114  H    0.069504
   115  H    0.096562
   116  H    0.096828
   117  H    0.105835
   118  H    0.100814
   119  H    0.090724
   120  H    0.072494
   121  H    0.069098
   122  H    0.088256
   123  H    0.074000
   124  H    0.096052
   125  H    0.106577
   126  H    0.100278
   127  H    0.110363
   128  H    0.102550
   129  H    0.043759
   130  H    0.104088
   131  H    0.056335
   132  H    0.091389
   133  H    0.097874
   134  H    0.101578
   135  H    0.097370
   136  H    0.084697
   137  H    0.102118
 Sum of Mulliken charges =  -0.00000

 Dipole moment (field-independent basis, Debye):
    X=              1.5456    Y=              4.7852    Z=              0.3739  Tot=              5.0425
 Quadrupole moment (field-independent basis, Debye-Ang):
   XX=           -351.7402   YY=           -399.2393   ZZ=           -395.2770
   XY=            -20.7627   XZ=              8.5730   YZ=              0.9044

 Normal termination of Gaussian 16 at Wed Sep  4 23:32:11 2019.
