 Gaussian 16, Revision A.03,
 Gaussian 16:  ES64L-G16RevA.03 25-Dec-2016

 ----------------------------------------------------------------------
 # td=(NStates=1) iop(3/107=0140000000,3/108=0140000000) CAM-B3LYP/6-31
 G(d,p)
 ----------------------------------------------------------------------

 --
 TD
 --
 Symbolic Z-matrix:
 Charge =  0 Multiplicity = 1

                         Standard orientation:
 ---------------------------------------------------------------------
 Center     Atomic      Atomic             Coordinates (Angstroms)
 Number     Number       Type             X           Y           Z
 ---------------------------------------------------------------------
      1         12           0       -7.154151    0.641080    0.074265
      2          6           0       -4.861354   -1.903267    0.492449
      3          6           0       -4.870020    2.914334    1.092543
      4          6           0       -9.456691    3.121186   -0.456090
      5          6           0       -9.587616   -1.780733   -0.902473
      6          7           0       -5.111464    0.451526    0.697470
      7          6           0       -4.427372   -0.698434    0.836970
      8          6           0       -2.976636   -0.398171    1.297627
      9          6           0       -3.029902    1.091635    1.621499
     10          6           0       -4.425794    1.525133    1.215637
     11          6           0       -2.775619    1.423393    3.207775
     12          6           0       -1.978744   -0.673506    0.139393
     13          6           0       -0.520193   -0.315849    0.461604
     14          6           0        0.478708   -0.514558   -0.646083
     15          8           0        0.169874   -1.038760   -1.664255
     16          8           0        1.765919   -0.433606   -0.194960
     17          7           0       -7.188048    2.672384    0.373675
     18          6           0       -6.124249    3.384144    0.766741
     19          6           0       -6.421772    4.748747    0.787656
     20          6           0       -7.776936    4.906031    0.357908
     21          6           0       -8.167159    3.521914    0.005773
     22          6           0       -5.537228    5.917736    1.086533
     23          6           0       -8.614918    6.073790    0.180217
     24          6           0       -8.489225    7.301199    0.803939
     25          7           0       -9.119068    0.581211   -0.561840
     26          6           0       -9.828111    1.742701   -0.704838
     27          6           0      -11.244017    1.399890   -1.287386
     28          6           0      -11.182931   -0.011090   -1.361739
     29          6           0       -9.870165   -0.444248   -0.915170
     30          6           0      -12.208166    2.453072   -1.507261
     31          6           0      -12.314061   -0.818358   -1.791074
     32          6           0      -12.354187   -1.384862   -3.246679
     33          7           0       -7.233057   -1.382092   -0.042492
     34          6           0       -8.251189   -2.251055   -0.468886
     35          6           0       -7.771831   -3.549442   -0.405377
     36          6           0       -6.472173   -3.500472    0.078528
     37          6           0       -6.181080   -2.226139    0.202421
     38          6           0       -8.603462   -4.794992   -0.824162
     39          6           0       -5.380426   -4.432065    0.277892
     40          8           0       -5.291041   -5.628789    0.248788
     41          6           0       -4.176047   -3.347002    0.635902
     42          6           0       -3.550067   -3.613799    1.982454
     43          8           0       -3.693976   -3.140458    3.048834
     44          8           0       -2.707243   -4.772916    1.788093
     45          6           0       -2.025248   -5.175587    2.995758
     46          6           0        2.878423   -0.715317   -1.076307
     47          6           0        4.116304   -0.334279   -0.490151
     48          6           0        5.123902    0.319583   -1.001703
     49          6           0        4.964754    1.138200   -2.285049
     50          6           0        6.358918    0.466202   -0.196443
     51          6           0        7.629896   -0.214239   -0.995930
     52          6           0        9.009633   -0.107359   -0.187419
     53          6           0       10.291388   -0.649069   -0.927156
     54          6           0       10.137510   -2.177891   -1.273481
     55          6           0       11.500735   -0.261129   -0.069656
     56          6           0       12.903598   -0.583409   -0.712308
     57          6           0       14.048108   -0.198155    0.124083
     58          6           0       15.338352   -0.256594   -0.572396
     59          6           0       15.717185   -1.639756   -1.081728
     60          6           0       16.419685    0.369712    0.432711
     61          6           0       17.759217    0.635159   -0.178740
     62          6           0       18.791188    1.109948    0.892441
     63          6           0       20.267153    1.429760    0.271453
     64          6           0       20.237741    2.214848   -1.023133
     65          6           0       21.191136    2.062749    1.250971
     66          1           0       -4.168529    3.510294    1.636689
     67          1           0      -10.278644    3.664028   -0.637990
     68          1           0      -10.312455   -2.601567   -1.168933
     69          1           0       -2.703772   -1.095822    2.022551
     70          1           0       -2.233976    1.672284    1.172473
     71          1           0       -2.008422    1.266693    3.767155
     72          1           0       -2.711591    2.599696    3.390792
     73          1           0       -3.769477    0.890368    3.782399
     74          1           0       -2.068703   -1.852065    0.140492
     75          1           0       -2.375825   -0.332461   -0.776319
     76          1           0       -0.451068    0.718079    0.693559
     77          1           0       -0.099342   -1.012888    1.261198
     78          1           0       -5.843670    6.793636    0.155123
     79          1           0       -5.752273    6.382258    2.142908
     80          1           0       -4.393577    5.804739    0.858763
     81          1           0       -9.461414    6.009166   -0.618555
     82          1           0       -9.299126    8.040086    0.611527
     83          1           0       -7.752792    7.861038    1.563012
     84          1           0      -11.755922    3.156763   -2.344695
     85          1           0      -13.125907    1.914111   -2.036648
     86          1           0      -12.719231    3.176104   -0.590011
     87          1           0      -12.244875   -1.737420   -1.085308
     88          1           0      -13.171485   -0.343417   -1.569434
     89          1           0      -13.340273   -1.962491   -3.392203
     90          1           0      -12.671073   -0.522860   -3.849285
     91          1           0      -11.415640   -1.731421   -3.784910
     92          1           0       -8.924353   -4.610656   -1.904439
     93          1           0       -7.916535   -5.671612   -0.719632
     94          1           0       -9.522357   -5.044828   -0.327135
     95          1           0       -3.393276   -3.571056   -0.150057
     96          1           0       -1.353766   -4.318606    3.353235
     97          1           0       -2.741331   -5.232554    3.915192
     98          1           0       -1.495433   -6.249731    2.742599
     99          1           0        3.090735   -1.923616   -1.264536
    100          1           0        2.859689   -0.144563   -2.196382
    101          1           0        4.227312   -0.891001    0.552214
    102          1           0        3.946285    1.145069   -2.756766
    103          1           0        5.196843    2.244995   -2.264701
    104          1           0        5.777977    0.723484   -3.256473
    105          1           0        6.471188    1.535968   -0.050540
    106          1           0        6.428855    0.082339    0.790184
    107          1           0        7.442251   -1.228686   -1.165314
    108          1           0        7.695344    0.266055   -1.878486
    109          1           0        9.089844    0.893364    0.046004
    110          1           0        9.081366   -0.654773    0.794460
    111          1           0       10.624857   -0.054435   -1.909546
    112          1           0        9.344054   -2.460106   -2.123734
    113          1           0       11.084283   -2.489264   -1.735464
    114          1           0       10.028764   -2.655604   -0.156486
    115          1           0       11.512263    0.956280    0.111814
    116          1           0       11.300165   -0.649047    0.813856
    117          1           0       12.968325   -1.552442   -1.014719
    118          1           0       12.842068   -0.055738   -1.610784
    119          1           0       13.849488    0.892340    0.598142
    120          1           0       14.013216   -0.666498    0.937578
    121          1           0       15.557712    0.373555   -1.432065
    122          1           0       16.016589   -2.445044   -0.262108
    123          1           0       14.955045   -1.996450   -1.921230
    124          1           0       16.625493   -1.588449   -1.812974
    125          1           0       15.995802    1.356861    0.883578
    126          1           0       16.750301   -0.367907    1.219051
    127          1           0       17.881305   -0.433478   -0.780593
    128          1           0       17.686576    1.413967   -1.039989
    129          1           0       18.325338    2.216402    1.431325
    130          1           0       18.992200    0.338543    1.791482
    131          1           0       20.852149    0.563370    0.037920
    132          1           0       19.836274    3.281149   -1.030501
    133          1           0       21.226192    2.615122   -1.437909
    134          1           0       19.712576    1.618643   -1.574183
    135          1           0       21.266076    1.483836    2.319404
    136          1           0       22.235215    2.078258    1.017411
    137          1           0       20.895416    2.970242    1.645730
 ---------------------------------------------------------------------

 SCF Done:  E(RCAM-B3LYP) =  -2933.39443980     A.U. after   16 cycles

 Excitation energies and oscillator strengths:

 Excited State   1:      Singlet-A      2.0333 eV  609.77 nm  f=0.2786  <S**2>=0.000
     240 -> 243        0.22584
     241 -> 242        0.66807
 This state for optimization and/or second-order correction.
 Total Energy, E(TD-HF/TD-DFT) =  -2933.31971715
 Copying the excited state density for this state as the 1-particle RhoCI density.

 The electronic state is 1-A.
 Alpha  occ. eigenvalues --  -46.80416 -19.22056 -19.19872 -19.17888 -19.17052
 Alpha  occ. eigenvalues --  -19.16355 -14.38182 -14.35763 -14.35664 -14.34443
 Alpha  occ. eigenvalues --  -10.34320 -10.34080 -10.30953 -10.29380 -10.27695
 Alpha  occ. eigenvalues --  -10.27534 -10.26323 -10.26021 -10.25399 -10.25373
 Alpha  occ. eigenvalues --  -10.25347 -10.25032 -10.24886 -10.24831 -10.24695
 Alpha  occ. eigenvalues --  -10.24620 -10.24592 -10.24404 -10.24063 -10.23935
 Alpha  occ. eigenvalues --  -10.23896 -10.23464 -10.23275 -10.23016 -10.23004
 Alpha  occ. eigenvalues --  -10.22996 -10.22973 -10.22958 -10.22888 -10.22842
 Alpha  occ. eigenvalues --  -10.22635 -10.22634 -10.22534 -10.22503 -10.22451
 Alpha  occ. eigenvalues --  -10.22400 -10.22389 -10.22378 -10.22339 -10.22267
 Alpha  occ. eigenvalues --  -10.21966 -10.21683 -10.21588 -10.21510 -10.21465
 Alpha  occ. eigenvalues --  -10.21395 -10.21186 -10.20872 -10.20686 -10.20425
 Alpha  occ. eigenvalues --  -10.19544 -10.19378 -10.19346 -10.19170 -10.18956
 Alpha  occ. eigenvalues --   -3.08948  -1.83900  -1.83419  -1.83343  -1.12873
 Alpha  occ. eigenvalues --   -1.12117  -1.07251  -1.04999  -1.03501  -1.00332
 Alpha  occ. eigenvalues --   -0.99450  -0.98980  -0.97971  -0.87036  -0.86436
 Alpha  occ. eigenvalues --   -0.86174  -0.84822  -0.84367  -0.83870  -0.83740
 Alpha  occ. eigenvalues --   -0.83544  -0.82965  -0.82699  -0.81427  -0.80708
 Alpha  occ. eigenvalues --   -0.79869  -0.79151  -0.78459  -0.78088  -0.77441
 Alpha  occ. eigenvalues --   -0.76422  -0.75962  -0.75683  -0.74592  -0.73379
 Alpha  occ. eigenvalues --   -0.72427  -0.71759  -0.71547  -0.70985  -0.70357
 Alpha  occ. eigenvalues --   -0.70327  -0.69108  -0.69033  -0.68673  -0.68139
 Alpha  occ. eigenvalues --   -0.67254  -0.66294  -0.65814  -0.64980  -0.63933
 Alpha  occ. eigenvalues --   -0.63267  -0.62840  -0.61392  -0.61170  -0.60853
 Alpha  occ. eigenvalues --   -0.60484  -0.58850  -0.58326  -0.57473  -0.57293
 Alpha  occ. eigenvalues --   -0.57151  -0.56311  -0.55971  -0.55410  -0.54984
 Alpha  occ. eigenvalues --   -0.54822  -0.54223  -0.53338  -0.52998  -0.52752
 Alpha  occ. eigenvalues --   -0.52170  -0.51304  -0.51220  -0.51134  -0.50847
 Alpha  occ. eigenvalues --   -0.50287  -0.50076  -0.49468  -0.49315  -0.49058
 Alpha  occ. eigenvalues --   -0.48946  -0.48906  -0.48548  -0.48150  -0.48071
 Alpha  occ. eigenvalues --   -0.47548  -0.47453  -0.47080  -0.46974  -0.46733
 Alpha  occ. eigenvalues --   -0.46479  -0.46317  -0.45989  -0.45755  -0.45664
 Alpha  occ. eigenvalues --   -0.45400  -0.45095  -0.44932  -0.44700  -0.44392
 Alpha  occ. eigenvalues --   -0.44255  -0.43869  -0.43748  -0.43433  -0.43369
 Alpha  occ. eigenvalues --   -0.43194  -0.42869  -0.42567  -0.42422  -0.42279
 Alpha  occ. eigenvalues --   -0.42134  -0.41920  -0.41856  -0.41728  -0.41635
 Alpha  occ. eigenvalues --   -0.41388  -0.41087  -0.40952  -0.40670  -0.40395
 Alpha  occ. eigenvalues --   -0.40246  -0.40149  -0.40100  -0.39999  -0.39828
 Alpha  occ. eigenvalues --   -0.39745  -0.39639  -0.39454  -0.39300  -0.39235
 Alpha  occ. eigenvalues --   -0.38848  -0.38193  -0.38150  -0.37985  -0.37928
 Alpha  occ. eigenvalues --   -0.37782  -0.37562  -0.37186  -0.37162  -0.37123
 Alpha  occ. eigenvalues --   -0.36835  -0.36329  -0.36291  -0.36210  -0.36032
 Alpha  occ. eigenvalues --   -0.35790  -0.35605  -0.35106  -0.34734  -0.34529
 Alpha  occ. eigenvalues --   -0.34465  -0.33986  -0.33843  -0.33468  -0.33426
 Alpha  occ. eigenvalues --   -0.33199  -0.32966  -0.32708  -0.32662  -0.32391
 Alpha  occ. eigenvalues --   -0.32331  -0.31753  -0.31059  -0.30851  -0.30456
 Alpha  occ. eigenvalues --   -0.30154  -0.29970  -0.29609  -0.28897  -0.27076
 Alpha  occ. eigenvalues --   -0.26898  -0.26669  -0.25773  -0.24993  -0.21858
 Alpha  occ. eigenvalues --   -0.20602
 Alpha virt. eigenvalues --   -0.07862  -0.03903  -0.00398   0.01612   0.03461
 Alpha virt. eigenvalues --    0.04041   0.04135   0.04261   0.04372   0.05678
 Alpha virt. eigenvalues --    0.06798   0.07988   0.08698   0.09128   0.09490

 Mulliken charges:
               1
     1  Mg   0.818439
     2  C    0.066964
     3  C   -0.191365
     4  C   -0.131321
     5  C   -0.166458
     6  N   -0.627663
     7  C    0.285644
     8  C   -0.134551
     9  C   -0.157588
    10  C    0.321614
    11  C   -0.298716
    12  C   -0.170647
    13  C   -0.257240
    14  C    0.578420
    15  O   -0.427978
    16  O   -0.471438
    17  N   -0.719416
    18  C    0.378155
    19  C    0.020418
    20  C    0.053552
    21  C    0.293565
    22  C   -0.372214
    23  C   -0.118004
    24  C   -0.235404
    25  N   -0.706341
    26  C    0.260377
    27  C    0.062923
    28  C    0.019961
    29  C    0.369678
    30  C   -0.393778
    31  C   -0.242828
    32  C   -0.323057
    33  N   -0.736614
    34  C    0.263006
    35  C   -0.011034
    36  C    0.054868
    37  C    0.290242
    38  C   -0.386372
    39  C    0.364535
    40  O   -0.432411
    41  C   -0.340777
    42  C    0.624420
    43  O   -0.438721
    44  O   -0.477196
    45  C   -0.074073
    46  C    0.030998
    47  C   -0.116443
    48  C    0.167690
    49  C   -0.363325
    50  C   -0.242088
    51  C   -0.191608
    52  C   -0.174527
    53  C   -0.065344
    54  C   -0.294885
    55  C   -0.169652
    56  C   -0.186285
    57  C   -0.129889
    58  C   -0.046717
    59  C   -0.318250
    60  C   -0.166414
    61  C   -0.177002
    62  C   -0.145427
    63  C   -0.049184
    64  C   -0.299511
    65  C   -0.313138
    66  H    0.086871
    67  H    0.066801
    68  H    0.107396
    69  H    0.121724
    70  H    0.112996
    71  H    0.128633
    72  H    0.073192
    73  H    0.091235
    74  H    0.093385
    75  H    0.124648
    76  H    0.126690
    77  H    0.140170
    78  H    0.087591
    79  H    0.121052
    80  H    0.110113
    81  H    0.102237
    82  H    0.097309
    83  H    0.107935
    84  H    0.121173
    85  H    0.097046
    86  H    0.108241
    87  H    0.090210
    88  H    0.111160
    89  H    0.102665
    90  H    0.107930
    91  H    0.118707
    92  H    0.110559
    93  H    0.138292
    94  H    0.127262
    95  H    0.163905
    96  H    0.105756
    97  H    0.117946
    98  H    0.112189
    99  H    0.103060
   100  H    0.085667
   101  H    0.077911
   102  H    0.118800
   103  H    0.121028
   104  H    0.068114
   105  H    0.100310
   106  H    0.107874
   107  H    0.107699
   108  H    0.110265
   109  H    0.099804
   110  H    0.077926
   111  H    0.054742
   112  H    0.100385
   113  H    0.107361
   114  H    0.080756
   115  H    0.062932
   116  H    0.090514
   117  H    0.103692
   118  H    0.095349
   119  H    0.056752
   120  H    0.106057
   121  H    0.092759
   122  H    0.097039
   123  H    0.093850
   124  H    0.093900
   125  H    0.077495
   126  H    0.084591
   127  H    0.069815
   128  H    0.087239
   129  H    0.055848
   130  H    0.085378
   131  H    0.101373
   132  H    0.084997
   133  H    0.088387
   134  H    0.116983
   135  H    0.052553
   136  H    0.105527
   137  H    0.109675
 Sum of Mulliken charges =  -0.00000

 Dipole moment (field-independent basis, Debye):
    X=              0.5194    Y=              5.8467    Z=             -0.6152  Tot=              5.9019
 Quadrupole moment (field-independent basis, Debye-Ang):
   XX=           -335.7250   YY=           -400.8025   ZZ=           -397.8530
   XY=            -33.2226   XZ=             11.8682   YZ=              0.7601

 Normal termination of Gaussian 16 at Mon Sep 23 10:50:12 2019.
