 Gaussian 16, Revision A.03,
 Gaussian 16:  ES64L-G16RevA.03 25-Dec-2016

 ----------------------------------------------------------------------
 # td=(NStates=1) iop(3/107=0140000000,3/108=0140000000) CAM-B3LYP/6-31
 G(d,p)
 ----------------------------------------------------------------------

 --
 TD
 --
 Symbolic Z-matrix:
 Charge =  0 Multiplicity = 1

                         Standard orientation:
 ---------------------------------------------------------------------
 Center     Atomic      Atomic             Coordinates (Angstroms)
 Number     Number       Type             X           Y           Z
 ---------------------------------------------------------------------
      1         12           0       -7.070214    0.667188    0.176150
      2          6           0       -4.885909   -1.993304    0.433786
      3          6           0       -4.664416    2.829972    1.254497
      4          6           0       -9.304149    3.113044   -0.445245
      5          6           0       -9.559027   -1.760093   -0.971807
      6          7           0       -5.117182    0.463924    0.861651
      7          6           0       -4.351598   -0.719457    0.882101
      8          6           0       -2.963926   -0.509317    1.334044
      9          6           0       -3.121891    1.084616    1.850549
     10          6           0       -4.427800    1.472838    1.356151
     11          6           0       -2.924613    1.180796    3.311818
     12          6           0       -2.034055   -0.652715    0.342315
     13          6           0       -0.534999   -0.599043    0.514924
     14          6           0        0.401189   -0.766958   -0.590731
     15          8           0        0.169207   -1.194946   -1.689635
     16          8           0        1.742759   -0.410539   -0.235200
     17          7           0       -7.044272    2.596482    0.331193
     18          6           0       -5.935977    3.346658    0.830877
     19          6           0       -6.251679    4.748670    0.835794
     20          6           0       -7.559867    4.878319    0.306629
     21          6           0       -8.054831    3.488311    0.034449
     22          6           0       -5.340207    5.840861    1.290513
     23          6           0       -8.393507    6.080886    0.126962
     24          6           0       -8.264508    7.256177    0.670327
     25          7           0       -9.126430    0.703070   -0.483785
     26          6           0       -9.727115    1.854454   -0.632472
     27          6           0      -11.101171    1.655990   -1.224608
     28          6           0      -11.170387    0.272681   -1.394130
     29          6           0       -9.971211   -0.328135   -0.895975
     30          6           0      -12.117985    2.555378   -1.472121
     31          6           0      -12.404683   -0.543830   -1.799752
     32          6           0      -12.391866   -0.937257   -3.281217
     33          7           0       -7.225454   -1.366740   -0.277479
     34          6           0       -8.189454   -2.124864   -0.668192
     35          6           0       -7.869376   -3.605513   -0.630669
     36          6           0       -6.502625   -3.539910   -0.216042
     37          6           0       -6.150946   -2.126159   -0.089485
     38          6           0       -8.733104   -4.748473   -0.937382
     39          6           0       -5.341618   -4.391616    0.178283
     40          8           0       -5.313405   -5.578409    0.192574
     41          6           0       -4.263449   -3.326345    0.553368
     42          6           0       -3.665628   -3.695682    1.969027
     43          8           0       -3.816141   -3.232051    3.042279
     44          8           0       -2.852971   -4.790027    1.812284
     45          6           0       -2.254350   -5.301842    3.113460
     46          6           0        2.671135   -0.734981   -1.135724
     47          6           0        4.074573   -0.472896   -0.584248
     48          6           0        5.116349    0.233275   -1.018864
     49          6           0        5.193122    1.004235   -2.319724
     50          6           0        6.472058    0.212842   -0.200627
     51          6           0        7.638402   -0.310630   -0.922689
     52          6           0        8.885492   -0.229069   -0.128625
     53          6           0       10.220464   -0.591744   -0.918627
     54          6           0       10.115478   -2.078854   -1.435791
     55          6           0       11.497343   -0.305933   -0.026560
     56          6           0       12.807078   -0.452592   -0.779078
     57          6           0       14.025247   -0.012702    0.076992
     58          6           0       15.382416   -0.145655   -0.548699
     59          6           0       15.732689   -1.592979   -0.952732
     60          6           0       16.314615    0.405509    0.460662
     61          6           0       17.747703    0.694756   -0.140083
     62          6           0       18.744503    1.373577    0.781529
     63          6           0       20.188140    1.426108    0.168379
     64          6           0       20.287712    2.229948   -1.115723
     65          6           0       21.119060    1.975301    1.356398
     66          1           0       -4.030439    3.585705    1.859431
     67          1           0       -9.774144    3.916151   -0.750368
     68          1           0      -10.326930   -2.183849   -1.269362
     69          1           0       -2.571602   -1.232949    2.194390
     70          1           0       -2.245671    1.647448    1.362575
     71          1           0       -1.906588    0.601737    3.658261
     72          1           0       -2.940720    2.217431    3.497573
     73          1           0       -3.715796    0.540378    3.779506
     74          1           0       -2.231010   -1.760663   -0.136761
     75          1           0       -2.232426   -0.164034   -0.366161
     76          1           0       -0.324059    0.423987    1.062004
     77          1           0       -0.401637   -1.129257    1.395824
     78          1           0       -5.659500    6.775954    0.648702
     79          1           0       -5.530953    6.027256    2.374203
     80          1           0       -4.254881    5.742732    1.338955
     81          1           0       -9.362746    5.821467   -0.362077
     82          1           0       -8.921155    8.145395    0.257301
     83          1           0       -7.179165    7.744281    1.253220
     84          1           0      -12.116912    3.289371   -2.276821
     85          1           0      -13.241134    2.201196   -1.626704
     86          1           0      -12.444701    3.203457   -0.581191
     87          1           0      -12.378269   -1.303158   -1.261634
     88          1           0      -13.230433    0.055359   -1.910736
     89          1           0      -13.373590   -1.241955   -3.419811
     90          1           0      -12.263128    0.011097   -3.990372
     91          1           0      -11.417659   -1.729078   -3.531585
     92          1           0       -9.065476   -4.800958   -1.881876
     93          1           0       -8.319145   -5.666485   -0.732001
     94          1           0       -9.759040   -4.703481   -0.337820
     95          1           0       -3.375597   -3.486335   -0.114247
     96          1           0       -1.833631   -4.621359    3.426285
     97          1           0       -3.108819   -5.277313    3.750897
     98          1           0       -1.856017   -6.245931    2.871775
     99          1           0        2.515166   -1.778128   -1.375640
    100          1           0        2.525889   -0.006335   -2.155272
    101          1           0        4.034172   -1.133813    0.241937
    102          1           0        4.232372    1.003679   -2.768559
    103          1           0        5.490965    1.976972   -1.911386
    104          1           0        5.875232    0.429929   -3.124855
    105          1           0        6.470611    1.225927    0.077436
    106          1           0        6.339939   -0.344783    0.609193
    107          1           0        7.268190   -1.168521   -1.377850
    108          1           0        7.818648    0.174519   -1.908393
    109          1           0        8.990652    0.860168    0.192701
    110          1           0        9.234203   -0.852281    0.814279
    111          1           0       10.197672    0.100047   -1.775979
    112          1           0        9.246031   -2.254790   -2.260659
    113          1           0       11.079061   -2.433507   -1.808170
    114          1           0       10.162631   -3.041671   -0.757567
    115          1           0       11.404291    0.618288    0.393378
    116          1           0       11.367657   -1.061074    0.796688
    117          1           0       13.060416   -1.574282   -0.960016
    118          1           0       12.719181    0.238794   -1.677670
    119          1           0       13.855398    1.149850    0.399472
    120          1           0       13.993053   -0.717154    0.957180
    121          1           0       15.402806    0.412967   -1.526272
    122          1           0       15.495618   -2.270996   -0.083086
    123          1           0       14.988361   -1.928422   -1.734599
    124          1           0       16.753770   -1.558160   -1.249143
    125          1           0       16.055162    1.267387    0.975763
    126          1           0       16.313997   -0.364699    1.265682
    127          1           0       18.212612   -0.291354   -0.413844
    128          1           0       17.493955    1.278221   -1.053984
    129          1           0       18.445000    2.324097    1.138605
    130          1           0       18.885413    0.681332    1.731311
    131          1           0       20.500924    0.416013    0.002046
    132          1           0       19.972861    3.280668   -0.844773
    133          1           0       21.301309    2.079961   -1.525868
    134          1           0       19.312372    1.793027   -1.726944
    135          1           0       20.771638    1.273029    2.252060
    136          1           0       22.274372    1.867649    1.035532
    137          1           0       21.090695    3.088327    1.505328
 ---------------------------------------------------------------------

 SCF Done:  E(RCAM-B3LYP) =  -2933.32331485     A.U. after   16 cycles

 Excitation energies and oscillator strengths:

 Excited State   1:      Singlet-A      1.9895 eV  623.20 nm  f=0.2340  <S**2>=0.000
     240 -> 243       -0.25416
     241 -> 242        0.65850
 This state for optimization and/or second-order correction.
 Total Energy, E(TD-HF/TD-DFT) =  -2933.25020292
 Copying the excited state density for this state as the 1-particle RhoCI density.

 The electronic state is 1-A.
 Alpha  occ. eigenvalues --  -46.80367 -19.21046 -19.20494 -19.18238 -19.17303
 Alpha  occ. eigenvalues --  -19.16722 -14.38652 -14.36073 -14.35537 -14.34742
 Alpha  occ. eigenvalues --  -10.35683 -10.34587 -10.30699 -10.27470 -10.26946
 Alpha  occ. eigenvalues --  -10.26085 -10.25773 -10.25640 -10.25116 -10.25043
 Alpha  occ. eigenvalues --  -10.24781 -10.24655 -10.24372 -10.24245 -10.24044
 Alpha  occ. eigenvalues --  -10.24043 -10.23834 -10.23633 -10.23554 -10.23209
 Alpha  occ. eigenvalues --  -10.23141 -10.23105 -10.22934 -10.22835 -10.22788
 Alpha  occ. eigenvalues --  -10.22649 -10.22562 -10.22541 -10.22338 -10.22327
 Alpha  occ. eigenvalues --  -10.22173 -10.22096 -10.21885 -10.21878 -10.21785
 Alpha  occ. eigenvalues --  -10.21765 -10.21635 -10.21530 -10.21368 -10.21350
 Alpha  occ. eigenvalues --  -10.21336 -10.21218 -10.21153 -10.21086 -10.21023
 Alpha  occ. eigenvalues --  -10.21013 -10.20912 -10.20718 -10.20623 -10.20506
 Alpha  occ. eigenvalues --  -10.20290 -10.20275 -10.19774 -10.19734 -10.19435
 Alpha  occ. eigenvalues --   -3.09024  -1.83956  -1.83504  -1.83430  -1.13572
 Alpha  occ. eigenvalues --   -1.12984  -1.08042  -1.06153  -1.03617  -1.01397
 Alpha  occ. eigenvalues --   -0.99936  -0.98308  -0.96293  -0.88982  -0.87877
 Alpha  occ. eigenvalues --   -0.86046  -0.85710  -0.84683  -0.83972  -0.83554
 Alpha  occ. eigenvalues --   -0.83492  -0.83164  -0.82753  -0.82394  -0.81696
 Alpha  occ. eigenvalues --   -0.80604  -0.79962  -0.79407  -0.78705  -0.77949
 Alpha  occ. eigenvalues --   -0.77526  -0.77072  -0.75694  -0.75087  -0.74173
 Alpha  occ. eigenvalues --   -0.73930  -0.72973  -0.72057  -0.71061  -0.70844
 Alpha  occ. eigenvalues --   -0.70553  -0.69810  -0.69355  -0.69065  -0.67932
 Alpha  occ. eigenvalues --   -0.67222  -0.66298  -0.64869  -0.64588  -0.64340
 Alpha  occ. eigenvalues --   -0.62831  -0.62577  -0.61982  -0.60745  -0.60307
 Alpha  occ. eigenvalues --   -0.59966  -0.59593  -0.58547  -0.58425  -0.58236
 Alpha  occ. eigenvalues --   -0.57416  -0.57208  -0.56866  -0.55809  -0.55432
 Alpha  occ. eigenvalues --   -0.55241  -0.54861  -0.54241  -0.53927  -0.53716
 Alpha  occ. eigenvalues --   -0.52649  -0.52208  -0.51919  -0.51481  -0.51370
 Alpha  occ. eigenvalues --   -0.51159  -0.50684  -0.50420  -0.50170  -0.50066
 Alpha  occ. eigenvalues --   -0.49966  -0.49462  -0.49149  -0.49004  -0.48785
 Alpha  occ. eigenvalues --   -0.48449  -0.48145  -0.47630  -0.47560  -0.47041
 Alpha  occ. eigenvalues --   -0.46803  -0.46608  -0.46362  -0.46205  -0.46063
 Alpha  occ. eigenvalues --   -0.45980  -0.45555  -0.45462  -0.45276  -0.44975
 Alpha  occ. eigenvalues --   -0.44938  -0.44835  -0.44603  -0.44404  -0.44194
 Alpha  occ. eigenvalues --   -0.44077  -0.43729  -0.43637  -0.43392  -0.43118
 Alpha  occ. eigenvalues --   -0.43047  -0.42561  -0.42317  -0.42252  -0.41917
 Alpha  occ. eigenvalues --   -0.41734  -0.41635  -0.41376  -0.41220  -0.40766
 Alpha  occ. eigenvalues --   -0.40721  -0.40411  -0.40286  -0.40255  -0.39996
 Alpha  occ. eigenvalues --   -0.39761  -0.39655  -0.39500  -0.39222  -0.39097
 Alpha  occ. eigenvalues --   -0.38814  -0.38470  -0.38453  -0.38144  -0.38100
 Alpha  occ. eigenvalues --   -0.38019  -0.37710  -0.37501  -0.37249  -0.37093
 Alpha  occ. eigenvalues --   -0.36910  -0.36602  -0.36198  -0.35835  -0.35677
 Alpha  occ. eigenvalues --   -0.35153  -0.34886  -0.34874  -0.34442  -0.34371
 Alpha  occ. eigenvalues --   -0.33907  -0.33697  -0.33574  -0.33550  -0.33422
 Alpha  occ. eigenvalues --   -0.33269  -0.33143  -0.32865  -0.32476  -0.32301
 Alpha  occ. eigenvalues --   -0.31567  -0.31327  -0.31049  -0.30965  -0.30541
 Alpha  occ. eigenvalues --   -0.29838  -0.29822  -0.29660  -0.28692  -0.27285
 Alpha  occ. eigenvalues --   -0.26969  -0.26874  -0.25250  -0.24947  -0.21852
 Alpha  occ. eigenvalues --   -0.19853
 Alpha virt. eigenvalues --   -0.07068  -0.04436  -0.00826   0.01898   0.02435
 Alpha virt. eigenvalues --    0.04093   0.04762   0.04982   0.05371   0.05486
 Alpha virt. eigenvalues --    0.05983   0.08518   0.08937   0.09366   0.09587

 Mulliken charges:
               1
     1  Mg   0.829834
     2  C    0.096641
     3  C   -0.173955
     4  C   -0.094042
     5  C   -0.062065
     6  N   -0.655449
     7  C    0.291355
     8  C   -0.164610
     9  C   -0.190346
    10  C    0.387698
    11  C   -0.277765
    12  C   -0.097562
    13  C   -0.283059
    14  C    0.619581
    15  O   -0.438403
    16  O   -0.464996
    17  N   -0.754694
    18  C    0.280152
    19  C    0.039670
    20  C    0.005258
    21  C    0.282324
    22  C   -0.392717
    23  C   -0.040275
    24  C   -0.255179
    25  N   -0.694385
    26  C    0.349612
    27  C    0.094884
    28  C   -0.010091
    29  C    0.214123
    30  C   -0.450420
    31  C   -0.185888
    32  C   -0.303300
    33  N   -0.662406
    34  C    0.262766
    35  C    0.036874
    36  C   -0.044019
    37  C    0.285840
    38  C   -0.386050
    39  C    0.391580
    40  O   -0.429285
    41  C   -0.345118
    42  C    0.600688
    43  O   -0.459133
    44  O   -0.488577
    45  C   -0.045246
    46  C    0.034163
    47  C   -0.118736
    48  C    0.060348
    49  C   -0.340154
    50  C   -0.199259
    51  C   -0.173920
    52  C   -0.151549
    53  C   -0.072390
    54  C   -0.312041
    55  C   -0.170763
    56  C   -0.170500
    57  C   -0.159741
    58  C   -0.053169
    59  C   -0.311838
    60  C   -0.160160
    61  C   -0.186679
    62  C   -0.168380
    63  C   -0.055150
    64  C   -0.291527
    65  C   -0.299032
    66  H    0.084503
    67  H    0.057030
    68  H    0.025078
    69  H    0.096224
    70  H    0.098558
    71  H    0.083126
    72  H    0.109889
    73  H    0.125380
    74  H    0.073228
    75  H    0.105404
    76  H    0.119681
    77  H    0.146993
    78  H    0.114450
    79  H    0.127512
    80  H    0.118843
    81  H    0.091030
    82  H    0.093741
    83  H    0.073286
    84  H    0.127070
    85  H    0.101192
    86  H    0.112628
    87  H    0.105640
    88  H    0.104568
    89  H    0.114598
    90  H    0.095089
    91  H    0.072049
    92  H    0.142987
    93  H    0.150513
    94  H    0.102866
    95  H    0.170071
    96  H    0.115640
    97  H    0.134501
    98  H    0.137961
    99  H    0.109059
   100  H    0.050996
   101  H    0.079521
   102  H    0.118291
   103  H    0.118778
   104  H    0.107240
   105  H    0.099226
   106  H    0.110158
   107  H    0.108630
   108  H    0.086962
   109  H    0.078866
   110  H    0.078173
   111  H    0.081786
   112  H    0.088674
   113  H    0.101793
   114  H    0.083175
   115  H    0.100682
   116  H    0.083906
   117  H    0.084599
   118  H    0.088032
   119  H    0.060557
   120  H    0.081478
   121  H    0.074425
   122  H    0.091391
   123  H    0.102686
   124  H    0.111645
   125  H    0.096162
   126  H    0.080465
   127  H    0.088563
   128  H    0.093598
   129  H    0.095630
   130  H    0.070826
   131  H    0.092490
   132  H    0.098422
   133  H    0.109096
   134  H    0.080012
   135  H    0.089382
   136  H    0.071694
   137  H    0.102231
 Sum of Mulliken charges =  -0.00000

 Dipole moment (field-independent basis, Debye):
    X=              0.4401    Y=              3.0927    Z=              1.1468  Tot=              3.3277
 Quadrupole moment (field-independent basis, Debye-Ang):
   XX=           -348.9488   YY=           -393.0686   ZZ=           -400.6795
   XY=            -15.7457   XZ=             11.4175   YZ=             -4.5785

 Normal termination of Gaussian 16 at Sat Sep  7 08:54:56 2019.
