 Gaussian 16, Revision A.03,
 Gaussian 16:  ES64L-G16RevA.03 25-Dec-2016

 ----------------------------------------------------------------------
 # td=(NStates=1) iop(3/107=0140000000,3/108=0140000000) CAM-B3LYP/6-31
 G(d,p)
 ----------------------------------------------------------------------

 --
 TD
 --
 Symbolic Z-matrix:
 Charge =  0 Multiplicity = 1

                         Standard orientation:
 ---------------------------------------------------------------------
 Center     Atomic      Atomic             Coordinates (Angstroms)
 Number     Number       Type             X           Y           Z
 ---------------------------------------------------------------------
      1         12           0       -7.122467    0.622322   -0.002045
      2          6           0       -4.933177   -2.038538    0.576178
      3          6           0       -4.774670    2.832591    1.123137
      4          6           0       -9.328811    3.110698   -0.355751
      5          6           0       -9.631811   -1.688962   -0.798325
      6          7           0       -5.161467    0.450830    0.623016
      7          6           0       -4.388497   -0.742730    0.723935
      8          6           0       -3.016896   -0.324076    1.220028
      9          6           0       -3.070786    1.066299    1.616905
     10          6           0       -4.391781    1.469042    1.124936
     11          6           0       -2.924971    1.318155    3.101072
     12          6           0       -1.895018   -0.604409    0.010805
     13          6           0       -0.537834   -0.358039    0.497651
     14          6           0        0.518707   -0.670950   -0.584391
     15          8           0        0.128273   -1.123437   -1.689501
     16          8           0        1.843399   -0.563160   -0.171761
     17          7           0       -6.980431    2.587074    0.362507
     18          6           0       -5.978574    3.482991    0.829772
     19          6           0       -6.345618    4.801121    0.787998
     20          6           0       -7.679065    4.883328    0.367007
     21          6           0       -7.989928    3.506499    0.130619
     22          6           0       -5.439842    6.025586    1.084316
     23          6           0       -8.434614    6.044140    0.193175
     24          6           0       -8.294650    7.254691    0.731820
     25          7           0       -9.131049    0.726685   -0.642750
     26          6           0       -9.785208    1.872447   -0.776007
     27          6           0      -11.112494    1.540899   -1.265352
     28          6           0      -11.282901    0.132722   -1.317584
     29          6           0       -9.909767   -0.336216   -0.974085
     30          6           0      -12.289912    2.527689   -1.498484
     31          6           0      -12.321531   -0.794043   -1.797644
     32          6           0      -12.211616   -1.116365   -3.301985
     33          7           0       -7.271998   -1.404580   -0.050366
     34          6           0       -8.385469   -2.192393   -0.381554
     35          6           0       -7.940601   -3.566099   -0.326439
     36          6           0       -6.665258   -3.612804   -0.040093
     37          6           0       -6.287951   -2.205903    0.210888
     38          6           0       -8.868267   -4.772168   -0.707642
     39          6           0       -5.397080   -4.431393    0.158369
     40          8           0       -5.267710   -5.623876    0.063871
     41          6           0       -4.316506   -3.308717    0.422349
     42          6           0       -3.641261   -3.612483    1.765444
     43          8           0       -3.816232   -3.026351    2.811324
     44          8           0       -2.785357   -4.636029    1.759362
     45          6           0       -2.389253   -5.083785    3.113497
     46          6           0        2.854680   -0.851131   -1.166249
     47          6           0        4.175769   -0.623467   -0.449119
     48          6           0        5.158109    0.236754   -0.847807
     49          6           0        5.105204    1.088261   -2.147457
     50          6           0        6.448082    0.347593   -0.066470
     51          6           0        7.695990   -0.226076   -0.794582
     52          6           0        9.007408   -0.135149    0.002227
     53          6           0       10.184596   -0.669841   -0.823103
     54          6           0       10.183819   -2.133714   -1.224269
     55          6           0       11.463732   -0.382653    0.056187
     56          6           0       12.868114   -0.511194   -0.595548
     57          6           0       14.023587   -0.194522    0.337905
     58          6           0       15.418746   -0.183941   -0.426757
     59          6           0       15.733280   -1.665097   -0.902077
     60          6           0       16.417850    0.380263    0.409592
     61          6           0       17.813329    0.573255   -0.177903
     62          6           0       18.892880    1.324684    0.677233
     63          6           0       20.225641    1.324846    0.128882
     64          6           0       20.329272    2.112127   -1.274842
     65          6           0       21.211313    2.168913    1.060500
     66          1           0       -3.658906    3.392417    1.423724
     67          1           0      -10.060166    4.004070   -0.305832
     68          1           0      -10.428846   -2.306234   -1.043612
     69          1           0       -2.788646   -1.073266    1.952140
     70          1           0       -2.358533    1.488112    0.988285
     71          1           0       -1.863198    1.075599    3.369438
     72          1           0       -2.745559    2.435729    3.238564
     73          1           0       -3.708221    0.829242    3.717609
     74          1           0       -1.975844   -1.639038   -0.266016
     75          1           0       -2.251836    0.009538   -0.805678
     76          1           0       -0.365105    0.958738    0.702760
     77          1           0       -0.338124   -1.036772    1.320743
     78          1           0       -5.656340    6.749329    0.316844
     79          1           0       -5.639749    6.482414    2.223961
     80          1           0       -4.392024    5.722631    1.170841
     81          1           0       -9.293704    5.963059   -0.641270
     82          1           0       -9.191141    7.983534    0.588346
     83          1           0       -7.698757    7.437298    1.580208
     84          1           0      -11.904561    3.218980   -2.295350
     85          1           0      -13.364226    1.977874   -1.771807
     86          1           0      -12.495528    2.817133   -0.591954
     87          1           0      -12.406214   -1.763946   -1.352958
     88          1           0      -13.385757   -0.408614   -1.525999
     89          1           0      -13.090414   -1.582862   -3.586777
     90          1           0      -12.064619   -0.253744   -3.923260
     91          1           0      -11.338585   -1.766271   -3.329242
     92          1           0       -9.324448   -4.795443   -1.766698
     93          1           0       -8.273512   -5.650748   -0.499404
     94          1           0       -9.855013   -4.798800    0.014473
     95          1           0       -3.408153   -3.538117   -0.114610
     96          1           0       -1.843179   -4.239059    3.565358
     97          1           0       -3.232841   -5.127746    3.720903
     98          1           0       -1.884221   -6.121836    3.012088
     99          1           0        2.859475   -2.041523   -1.253493
    100          1           0        2.564000   -0.276162   -2.080531
    101          1           0        4.085286   -0.820101    0.666952
    102          1           0        4.186332    1.034209   -2.695446
    103          1           0        5.436647    2.262668   -1.862747
    104          1           0        5.844267    0.724342   -2.956671
    105          1           0        6.653791    1.446134    0.098444
    106          1           0        6.488844    0.019583    1.095140
    107          1           0        7.246688   -1.378136   -1.009751
    108          1           0        7.715788    0.171828   -1.793895
    109          1           0        9.196377    0.971355    0.239168
    110          1           0        8.887160   -0.854835    0.946474
    111          1           0       10.293197   -0.137327   -1.696359
    112          1           0        9.147822   -2.494948   -1.684499
    113          1           0       10.941627   -2.311203   -1.941032
    114          1           0       10.435803   -2.748844   -0.408930
    115          1           0       11.525170    0.583122    0.572646
    116          1           0       11.271576   -1.129864    0.928439
    117          1           0       12.995780   -1.727378   -1.035673
    118          1           0       13.082815    0.160859   -1.619175
    119          1           0       13.712498    0.863071    0.728180
    120          1           0       13.944837   -0.865471    1.192580
    121          1           0       15.230317    0.212039   -1.334328
    122          1           0       15.817487   -2.508195   -0.105885
    123          1           0       14.916459   -2.074156   -1.535237
    124          1           0       16.708344   -1.557809   -1.384714
    125          1           0       16.095836    1.301946    0.759480
    126          1           0       16.772280   -0.253274    1.363684
    127          1           0       18.217411   -0.411566   -0.623143
    128          1           0       17.890871    0.977005   -1.207406
    129          1           0       18.498318    2.453657    0.934783
    130          1           0       18.662334    0.730514    1.548946
    131          1           0       20.635584    0.262324   -0.138531
    132          1           0       19.992919    3.046512   -1.071958
    133          1           0       21.506370    2.433676   -1.357071
    134          1           0       19.722194    1.816373   -2.111282
    135          1           0       21.252698    1.629641    2.227186
    136          1           0       22.179277    2.208204    0.747077
    137          1           0       20.925790    3.301010    0.918658
 ---------------------------------------------------------------------

 SCF Done:  E(RCAM-B3LYP) =  -2933.46655350     A.U. after   16 cycles

 Excitation energies and oscillator strengths:

 Excited State   1:      Singlet-A      1.9302 eV  642.34 nm  f=0.2450  <S**2>=0.000
     240 -> 243       -0.21858
     241 -> 242        0.67005
 This state for optimization and/or second-order correction.
 Total Energy, E(TD-HF/TD-DFT) =  -2933.39561970
 Copying the excited state density for this state as the 1-particle RhoCI density.

 The electronic state is 1-A.
 Alpha  occ. eigenvalues --  -46.79562 -19.22499 -19.21907 -19.17578 -19.17050
 Alpha  occ. eigenvalues --  -19.16128 -14.37500 -14.35324 -14.35181 -14.34728
 Alpha  occ. eigenvalues --  -10.35387 -10.34030 -10.32039 -10.28927 -10.27220
 Alpha  occ. eigenvalues --  -10.26570 -10.25733 -10.25604 -10.25359 -10.24907
 Alpha  occ. eigenvalues --  -10.24747 -10.24515 -10.24423 -10.24364 -10.24248
 Alpha  occ. eigenvalues --  -10.24213 -10.24091 -10.23931 -10.23449 -10.23410
 Alpha  occ. eigenvalues --  -10.23255 -10.23133 -10.23116 -10.23071 -10.22955
 Alpha  occ. eigenvalues --  -10.22949 -10.22854 -10.22704 -10.22605 -10.22550
 Alpha  occ. eigenvalues --  -10.22394 -10.22363 -10.22266 -10.22245 -10.22233
 Alpha  occ. eigenvalues --  -10.22212 -10.22199 -10.22111 -10.22047 -10.21868
 Alpha  occ. eigenvalues --  -10.21798 -10.21686 -10.21679 -10.21678 -10.21543
 Alpha  occ. eigenvalues --  -10.21492 -10.21312 -10.21198 -10.20948 -10.20914
 Alpha  occ. eigenvalues --  -10.20887 -10.20721 -10.20544 -10.20091 -10.19926
 Alpha  occ. eigenvalues --   -3.08220  -1.83157  -1.82706  -1.82621  -1.13608
 Alpha  occ. eigenvalues --   -1.11263  -1.07781  -1.03466  -1.03189  -0.99944
 Alpha  occ. eigenvalues --   -0.98485  -0.98120  -0.97127  -0.88692  -0.86086
 Alpha  occ. eigenvalues --   -0.85618  -0.85337  -0.84620  -0.84170  -0.83972
 Alpha  occ. eigenvalues --   -0.83390  -0.82927  -0.82216  -0.82069  -0.80948
 Alpha  occ. eigenvalues --   -0.79745  -0.79017  -0.78572  -0.78133  -0.77604
 Alpha  occ. eigenvalues --   -0.76375  -0.75870  -0.75382  -0.74855  -0.72759
 Alpha  occ. eigenvalues --   -0.72643  -0.72434  -0.71464  -0.71166  -0.70880
 Alpha  occ. eigenvalues --   -0.70233  -0.69965  -0.69814  -0.68714  -0.68185
 Alpha  occ. eigenvalues --   -0.67241  -0.65900  -0.65461  -0.64796  -0.64273
 Alpha  occ. eigenvalues --   -0.63110  -0.62003  -0.61296  -0.60650  -0.59833
 Alpha  occ. eigenvalues --   -0.59658  -0.59174  -0.58479  -0.58353  -0.58200
 Alpha  occ. eigenvalues --   -0.58012  -0.56703  -0.56308  -0.55568  -0.55455
 Alpha  occ. eigenvalues --   -0.54430  -0.53778  -0.53606  -0.53197  -0.52440
 Alpha  occ. eigenvalues --   -0.51930  -0.51518  -0.51487  -0.50801  -0.50627
 Alpha  occ. eigenvalues --   -0.50241  -0.49969  -0.49862  -0.49611  -0.49254
 Alpha  occ. eigenvalues --   -0.48988  -0.48697  -0.48519  -0.48508  -0.47849
 Alpha  occ. eigenvalues --   -0.47669  -0.47557  -0.47138  -0.47069  -0.46824
 Alpha  occ. eigenvalues --   -0.46469  -0.46385  -0.46075  -0.45706  -0.45619
 Alpha  occ. eigenvalues --   -0.45514  -0.45463  -0.45395  -0.45197  -0.44941
 Alpha  occ. eigenvalues --   -0.44788  -0.44550  -0.43922  -0.43701  -0.43438
 Alpha  occ. eigenvalues --   -0.43161  -0.43083  -0.42770  -0.42551  -0.42164
 Alpha  occ. eigenvalues --   -0.42061  -0.41902  -0.41616  -0.41465  -0.41428
 Alpha  occ. eigenvalues --   -0.40978  -0.40930  -0.40734  -0.40671  -0.40489
 Alpha  occ. eigenvalues --   -0.40382  -0.40147  -0.39743  -0.39734  -0.39677
 Alpha  occ. eigenvalues --   -0.39447  -0.39366  -0.39293  -0.39063  -0.38890
 Alpha  occ. eigenvalues --   -0.38715  -0.38408  -0.38282  -0.38118  -0.37967
 Alpha  occ. eigenvalues --   -0.37732  -0.37709  -0.37303  -0.37090  -0.36795
 Alpha  occ. eigenvalues --   -0.36514  -0.36423  -0.36362  -0.36197  -0.36157
 Alpha  occ. eigenvalues --   -0.36099  -0.35853  -0.35132  -0.35012  -0.34884
 Alpha  occ. eigenvalues --   -0.34754  -0.34584  -0.34318  -0.33983  -0.33552
 Alpha  occ. eigenvalues --   -0.33032  -0.32999  -0.32785  -0.32724  -0.32594
 Alpha  occ. eigenvalues --   -0.32517  -0.32207  -0.31135  -0.30530  -0.30409
 Alpha  occ. eigenvalues --   -0.29962  -0.29823  -0.29184  -0.28778  -0.27733
 Alpha  occ. eigenvalues --   -0.27442  -0.26886  -0.25234  -0.24886  -0.21428
 Alpha  occ. eigenvalues --   -0.19564
 Alpha virt. eigenvalues --   -0.07156  -0.03722  -0.00256   0.01940   0.02405
 Alpha virt. eigenvalues --    0.02801   0.03986   0.04580   0.05149   0.05685
 Alpha virt. eigenvalues --    0.06616   0.07812   0.09328   0.09391   0.09464

 Mulliken charges:
               1
     1  Mg   0.813794
     2  C    0.174044
     3  C   -0.216991
     4  C   -0.196824
     5  C   -0.138079
     6  N   -0.629995
     7  C    0.290419
     8  C   -0.189634
     9  C   -0.109616
    10  C    0.324442
    11  C   -0.295564
    12  C   -0.171518
    13  C   -0.236369
    14  C    0.599396
    15  O   -0.474452
    16  O   -0.479885
    17  N   -0.703061
    18  C    0.302808
    19  C    0.019201
    20  C    0.085919
    21  C    0.295338
    22  C   -0.357632
    23  C   -0.102963
    24  C   -0.251284
    25  N   -0.698222
    26  C    0.370894
    27  C   -0.068502
    28  C    0.071416
    29  C    0.271575
    30  C   -0.352020
    31  C   -0.276915
    32  C   -0.297746
    33  N   -0.733579
    34  C    0.284683
    35  C   -0.052174
    36  C    0.060642
    37  C    0.250931
    38  C   -0.369766
    39  C    0.410564
    40  O   -0.433229
    41  C   -0.374785
    42  C    0.598315
    43  O   -0.476770
    44  O   -0.461095
    45  C   -0.089461
    46  C    0.028883
    47  C   -0.148644
    48  C    0.128071
    49  C   -0.351523
    50  C   -0.218214
    51  C   -0.161556
    52  C   -0.155150
    53  C   -0.055254
    54  C   -0.311031
    55  C   -0.173994
    56  C   -0.156759
    57  C   -0.165537
    58  C   -0.039604
    59  C   -0.323841
    60  C   -0.142308
    61  C   -0.220775
    62  C   -0.118183
    63  C   -0.052291
    64  C   -0.323198
    65  C   -0.300493
    66  H    0.048111
    67  H    0.086922
    68  H    0.076258
    69  H    0.121215
    70  H    0.109745
    71  H    0.103235
    72  H    0.101012
    73  H    0.136415
    74  H    0.119812
    75  H    0.122869
    76  H    0.085971
    77  H    0.141736
    78  H    0.136550
    79  H    0.090817
    80  H    0.115143
    81  H    0.081443
    82  H    0.093296
    83  H    0.107597
    84  H    0.120265
    85  H    0.083653
    86  H    0.145162
    87  H    0.115081
    88  H    0.083934
    89  H    0.111813
    90  H    0.117737
    91  H    0.107672
    92  H    0.119444
    93  H    0.142753
    94  H    0.095298
    95  H    0.167601
    96  H    0.131462
    97  H    0.147356
    98  H    0.125538
    99  H    0.114736
   100  H    0.128167
   101  H    0.108168
   102  H    0.117369
   103  H    0.098356
   104  H    0.114376
   105  H    0.083391
   106  H    0.079215
   107  H    0.065523
   108  H    0.101368
   109  H    0.095064
   110  H    0.082855
   111  H    0.095051
   112  H    0.087077
   113  H    0.115538
   114  H    0.106379
   115  H    0.085741
   116  H    0.078413
   117  H    0.043990
   118  H    0.061167
   119  H    0.069048
   120  H    0.102292
   121  H    0.101962
   122  H    0.088217
   123  H    0.101896
   124  H    0.101489
   125  H    0.101786
   126  H    0.077705
   127  H    0.077360
   128  H    0.074114
   129  H    0.064822
   130  H    0.094689
   131  H    0.084493
   132  H    0.116574
   133  H    0.076148
   134  H    0.110144
   135  H    0.069459
   136  H    0.117378
   137  H    0.090716
 Sum of Mulliken charges =  -0.00000

 Dipole moment (field-independent basis, Debye):
    X=              2.0617    Y=              3.2490    Z=              0.4150  Tot=              3.8703
 Quadrupole moment (field-independent basis, Debye-Ang):
   XX=           -356.6283   YY=           -399.7479   ZZ=           -396.8918
   XY=             -2.7829   XZ=              4.9479   YZ=             -6.1723

 Normal termination of Gaussian 16 at Wed Sep  4 04:37:18 2019.
