 Gaussian 16, Revision A.03,
 Gaussian 16:  ES64L-G16RevA.03 25-Dec-2016

 ----------------------------------------------------------------------
 # td=(NStates=1) iop(3/107=0140000000,3/108=0140000000) CAM-B3LYP/6-31
 G(d,p)
 ----------------------------------------------------------------------

 --
 TD
 --
 Symbolic Z-matrix:
 Charge =  0 Multiplicity = 1

                         Standard orientation:
 ---------------------------------------------------------------------
 Center     Atomic      Atomic             Coordinates (Angstroms)
 Number     Number       Type             X           Y           Z
 ---------------------------------------------------------------------
      1         12           0       -7.106173    0.630278    0.060541
      2          6           0       -4.889327   -1.993388    0.524203
      3          6           0       -4.744553    2.902113    1.061929
      4          6           0       -9.277053    3.184978   -0.459354
      5          6           0       -9.493012   -1.714027   -0.955464
      6          7           0       -5.138289    0.482232    0.728577
      7          6           0       -4.301327   -0.711375    0.800883
      8          6           0       -2.989068   -0.394832    1.223998
      9          6           0       -2.963851    1.122292    1.689940
     10          6           0       -4.406347    1.543811    1.065269
     11          6           0       -2.994719    1.114611    3.258496
     12          6           0       -1.849529   -0.630957    0.053333
     13          6           0       -0.479747   -0.487357    0.631373
     14          6           0        0.514875   -0.690648   -0.460576
     15          8           0        0.219969   -0.936318   -1.566895
     16          8           0        1.849846   -0.450831    0.014751
     17          7           0       -7.008196    2.629549    0.211944
     18          6           0       -5.930661    3.445067    0.736164
     19          6           0       -6.289893    4.798890    0.809038
     20          6           0       -7.627999    4.974354    0.437135
     21          6           0       -8.045783    3.482410    0.012072
     22          6           0       -5.447223    5.901187    1.214865
     23          6           0       -8.588096    5.998822    0.299317
     24          6           0       -8.382689    7.153291    0.766582
     25          7           0       -9.089747    0.666550   -0.707756
     26          6           0       -9.760780    1.787663   -0.750329
     27          6           0      -11.082260    1.474944   -1.229373
     28          6           0      -11.219595    0.116768   -1.296300
     29          6           0       -9.856698   -0.413717   -0.907830
     30          6           0      -12.100576    2.527222   -1.447784
     31          6           0      -12.419000   -0.685956   -1.738598
     32          6           0      -12.168556   -1.252209   -3.160289
     33          7           0       -7.164521   -1.341940   -0.298573
     34          6           0       -8.217250   -2.183339   -0.663244
     35          6           0       -7.810916   -3.620677   -0.633186
     36          6           0       -6.537414   -3.590345   -0.266950
     37          6           0       -6.192051   -2.212799   -0.012520
     38          6           0       -8.669545   -4.753077   -0.958115
     39          6           0       -5.340859   -4.324475    0.181931
     40          8           0       -5.233833   -5.529799    0.235866
     41          6           0       -4.216064   -3.303261    0.623966
     42          6           0       -3.698282   -3.681334    1.888737
     43          8           0       -3.747300   -3.112089    2.991541
     44          8           0       -2.849495   -4.777213    1.766366
     45          6           0       -2.378427   -5.299106    3.073499
     46          6           0        2.752983   -0.679685   -1.086369
     47          6           0        4.178944   -0.386212   -0.392673
     48          6           0        5.082361    0.310083   -1.017356
     49          6           0        5.029163    1.160438   -2.184989
     50          6           0        6.409605    0.340963   -0.189732
     51          6           0        7.636392   -0.089960   -1.034238
     52          6           0        8.914395   -0.137030   -0.212199
     53          6           0       10.246746   -0.659645   -0.844449
     54          6           0       10.118551   -2.099041   -1.102928
     55          6           0       11.400980   -0.276675   -0.114933
     56          6           0       12.782468   -0.673768   -0.659983
     57          6           0       13.914333   -0.174365    0.192022
     58          6           0       15.379448   -0.342401   -0.428609
     59          6           0       15.841803   -1.751077   -0.765296
     60          6           0       16.332999    0.403629    0.474982
     61          6           0       17.705703    0.599290   -0.182904
     62          6           0       18.732200    1.347863    0.743061
     63          6           0       20.080243    1.451314    0.053690
     64          6           0       20.079170    2.294479   -1.245829
     65          6           0       21.142744    1.959117    1.134828
     66          1           0       -3.912594    3.372567    1.718956
     67          1           0      -10.029133    3.878291   -0.508635
     68          1           0      -10.195712   -2.630152   -1.226937
     69          1           0       -2.806974   -0.910692    2.027722
     70          1           0       -2.083401    1.587436    1.259034
     71          1           0       -1.999725    0.971285    3.724215
     72          1           0       -3.277214    2.132075    3.678675
     73          1           0       -3.718368    0.395365    3.735474
     74          1           0       -2.119285   -1.576467   -0.268187
     75          1           0       -2.076583    0.201789   -0.622105
     76          1           0       -0.397692    0.674016    1.013950
     77          1           0       -0.446550   -1.312698    1.460940
     78          1           0       -5.408737    6.934092    0.810240
     79          1           0       -5.487978    6.236665    2.346695
     80          1           0       -4.576988    5.594539    1.214493
     81          1           0       -9.510825    5.941987   -0.204453
     82          1           0       -9.340960    7.889027    0.824738
     83          1           0       -7.387000    7.378662    1.421798
     84          1           0      -11.939290    3.326570   -2.217026
     85          1           0      -13.173096    2.279005   -1.617454
     86          1           0      -12.211729    2.861146   -0.504381
     87          1           0      -12.604165   -1.355098   -1.086592
     88          1           0      -13.337189   -0.124629   -1.485005
     89          1           0      -13.027195   -1.633507   -3.642292
     90          1           0      -11.988545   -0.355806   -3.954319
     91          1           0      -11.364762   -1.946530   -3.280996
     92          1           0       -8.991606   -4.960482   -2.050893
     93          1           0       -7.949493   -5.740399   -0.560301
     94          1           0       -9.658370   -4.849165   -0.380995
     95          1           0       -3.367161   -3.485160   -0.088063
     96          1           0       -1.849707   -4.289959    3.723391
     97          1           0       -3.251512   -5.857629    3.555021
     98          1           0       -1.546363   -5.979947    2.721840
     99          1           0        2.751185   -1.575712   -1.649156
    100          1           0        2.419007    0.152382   -1.903050
    101          1           0        4.138654   -0.794260    0.643916
    102          1           0        4.000725    1.239097   -2.627784
    103          1           0        5.301162    2.180563   -1.827217
    104          1           0        5.881730    0.915360   -2.888178
    105          1           0        6.666196    1.286716    0.300164
    106          1           0        6.372415   -0.599497    0.469535
    107          1           0        7.290330   -0.958235   -1.306683
    108          1           0        7.833076    0.266688   -1.941564
    109          1           0        9.105818    0.828768    0.300892
    110          1           0        8.703367   -0.798993    0.550695
    111          1           0       10.162663   -0.133961   -1.919662
    112          1           0        9.247689   -2.313433   -1.804762
    113          1           0       10.984005   -2.513023   -1.550832
    114          1           0        9.946244   -2.705972   -0.279751
    115          1           0       11.314547    0.854325    0.200138
    116          1           0       11.339810   -0.691675    1.003981
    117          1           0       12.787836   -1.604143   -1.039637
    118          1           0       12.713955   -0.174942   -1.621859
    119          1           0       13.891371    0.902801    0.310362
    120          1           0       13.858543   -0.746139    1.156543
    121          1           0       15.410524    0.207490   -1.332384
    122          1           0       15.937022   -2.429280    0.328036
    123          1           0       14.997953   -2.385984   -1.067726
    124          1           0       16.818158   -1.692325   -1.468347
    125          1           0       16.012687    1.300806    0.830553
    126          1           0       16.260376   -0.095667    1.418477
    127          1           0       18.297213   -0.350697   -0.594566
    128          1           0       17.458342    1.368026   -1.151590
    129          1           0       18.380166    2.374705    1.185792
    130          1           0       18.654178    0.765485    1.438595
    131          1           0       20.313882    0.451876   -0.329372
    132          1           0       19.881753    3.368191   -1.011442
    133          1           0       20.945175    2.111775   -1.679151
    134          1           0       19.381625    1.741164   -1.797347
    135          1           0       21.188039    1.198531    1.971736
    136          1           0       22.214316    2.249696    0.647066
    137          1           0       20.898302    2.888054    1.404688
 ---------------------------------------------------------------------

 SCF Done:  E(RCAM-B3LYP) =  -2933.38131727     A.U. after   16 cycles

 Excitation energies and oscillator strengths:

 Excited State   1:      Singlet-A      2.0864 eV  594.26 nm  f=0.2529  <S**2>=0.000
     240 -> 243       -0.23732
     241 -> 242        0.65829
 This state for optimization and/or second-order correction.
 Total Energy, E(TD-HF/TD-DFT) =  -2933.30464484
 Copying the excited state density for this state as the 1-particle RhoCI density.

 The electronic state is 1-A.
 Alpha  occ. eigenvalues --  -46.79841 -19.21556 -19.20893 -19.18584 -19.16299
 Alpha  occ. eigenvalues --  -19.16280 -14.37977 -14.35627 -14.35611 -14.34708
 Alpha  occ. eigenvalues --  -10.34757 -10.34037 -10.30907 -10.28754 -10.27237
 Alpha  occ. eigenvalues --  -10.26987 -10.26482 -10.26020 -10.25291 -10.25197
 Alpha  occ. eigenvalues --  -10.24696 -10.24378 -10.24366 -10.24336 -10.24232
 Alpha  occ. eigenvalues --  -10.23910 -10.23830 -10.23743 -10.23389 -10.23252
 Alpha  occ. eigenvalues --  -10.23178 -10.23168 -10.23119 -10.23114 -10.22742
 Alpha  occ. eigenvalues --  -10.22573 -10.22312 -10.22129 -10.21948 -10.21859
 Alpha  occ. eigenvalues --  -10.21769 -10.21717 -10.21643 -10.21446 -10.21405
 Alpha  occ. eigenvalues --  -10.21400 -10.21326 -10.21251 -10.21176 -10.21106
 Alpha  occ. eigenvalues --  -10.21105 -10.20872 -10.20828 -10.20782 -10.20763
 Alpha  occ. eigenvalues --  -10.20581 -10.20360 -10.20299 -10.19599 -10.19554
 Alpha  occ. eigenvalues --  -10.19244 -10.19159 -10.19025 -10.18339 -10.18134
 Alpha  occ. eigenvalues --   -3.08504  -1.83442  -1.82979  -1.82913  -1.13400
 Alpha  occ. eigenvalues --   -1.10771  -1.06593  -1.05526  -1.01763  -0.99634
 Alpha  occ. eigenvalues --   -0.98708  -0.97798  -0.96503  -0.88283  -0.86731
 Alpha  occ. eigenvalues --   -0.85967  -0.85636  -0.85381  -0.84906  -0.84462
 Alpha  occ. eigenvalues --   -0.83282  -0.83154  -0.83051  -0.82575  -0.80973
 Alpha  occ. eigenvalues --   -0.80841  -0.80399  -0.79358  -0.78291  -0.78186
 Alpha  occ. eigenvalues --   -0.76517  -0.76093  -0.75704  -0.74909  -0.73704
 Alpha  occ. eigenvalues --   -0.73003  -0.72125  -0.71732  -0.71516  -0.70779
 Alpha  occ. eigenvalues --   -0.70435  -0.70395  -0.70262  -0.68670  -0.67638
 Alpha  occ. eigenvalues --   -0.67596  -0.66781  -0.66142  -0.64626  -0.64218
 Alpha  occ. eigenvalues --   -0.62483  -0.62145  -0.61743  -0.61030  -0.60777
 Alpha  occ. eigenvalues --   -0.59478  -0.59443  -0.58791  -0.58497  -0.57813
 Alpha  occ. eigenvalues --   -0.57167  -0.56890  -0.56326  -0.55602  -0.54978
 Alpha  occ. eigenvalues --   -0.54692  -0.54412  -0.53364  -0.53298  -0.52958
 Alpha  occ. eigenvalues --   -0.52648  -0.52039  -0.51755  -0.51152  -0.50798
 Alpha  occ. eigenvalues --   -0.50716  -0.50333  -0.50155  -0.49883  -0.49445
 Alpha  occ. eigenvalues --   -0.49081  -0.48793  -0.48469  -0.48357  -0.47922
 Alpha  occ. eigenvalues --   -0.47715  -0.47365  -0.47323  -0.47050  -0.46688
 Alpha  occ. eigenvalues --   -0.46488  -0.46439  -0.46241  -0.45821  -0.45693
 Alpha  occ. eigenvalues --   -0.45523  -0.45299  -0.45140  -0.44846  -0.44774
 Alpha  occ. eigenvalues --   -0.44445  -0.44319  -0.44237  -0.43825  -0.43785
 Alpha  occ. eigenvalues --   -0.43671  -0.43368  -0.43197  -0.42708  -0.42573
 Alpha  occ. eigenvalues --   -0.42418  -0.42178  -0.41880  -0.41533  -0.41399
 Alpha  occ. eigenvalues --   -0.41283  -0.41167  -0.41097  -0.40944  -0.40847
 Alpha  occ. eigenvalues --   -0.40644  -0.40547  -0.40428  -0.40306  -0.40181
 Alpha  occ. eigenvalues --   -0.40071  -0.39917  -0.39652  -0.39417  -0.39133
 Alpha  occ. eigenvalues --   -0.39040  -0.38829  -0.38329  -0.38118  -0.38043
 Alpha  occ. eigenvalues --   -0.37629  -0.37350  -0.37189  -0.37151  -0.36984
 Alpha  occ. eigenvalues --   -0.36600  -0.36547  -0.36377  -0.36366  -0.35856
 Alpha  occ. eigenvalues --   -0.35646  -0.35538  -0.35237  -0.35217  -0.34770
 Alpha  occ. eigenvalues --   -0.34442  -0.34262  -0.33905  -0.33491  -0.33400
 Alpha  occ. eigenvalues --   -0.33255  -0.33149  -0.32870  -0.32749  -0.32550
 Alpha  occ. eigenvalues --   -0.31996  -0.31779  -0.31290  -0.31040  -0.30545
 Alpha  occ. eigenvalues --   -0.29809  -0.29757  -0.29624  -0.28444  -0.27664
 Alpha  occ. eigenvalues --   -0.27114  -0.26946  -0.25488  -0.25223  -0.21959
 Alpha  occ. eigenvalues --   -0.19505
 Alpha virt. eigenvalues --   -0.06337  -0.04266  -0.00339   0.02188   0.02852
 Alpha virt. eigenvalues --    0.03227   0.04329   0.05454   0.05634   0.05936
 Alpha virt. eigenvalues --    0.06837   0.08437   0.09273   0.09706   0.10069

 Mulliken charges:
               1
     1  Mg   0.809008
     2  C    0.083843
     3  C   -0.215614
     4  C   -0.157008
     5  C   -0.161444
     6  N   -0.624898
     7  C    0.292342
     8  C   -0.174965
     9  C   -0.140899
    10  C    0.322177
    11  C   -0.328256
    12  C   -0.158556
    13  C   -0.271317
    14  C    0.628658
    15  O   -0.417615
    16  O   -0.499759
    17  N   -0.726809
    18  C    0.337671
    19  C    0.048208
    20  C    0.029137
    21  C    0.322548
    22  C   -0.376988
    23  C   -0.025560
    24  C   -0.251967
    25  N   -0.682946
    26  C    0.305640
    27  C    0.021478
    28  C   -0.011311
    29  C    0.285130
    30  C   -0.395511
    31  C   -0.212532
    32  C   -0.314874
    33  N   -0.712151
    34  C    0.243213
    35  C    0.037273
    36  C    0.089341
    37  C    0.257446
    38  C   -0.410017
    39  C    0.346605
    40  O   -0.449322
    41  C   -0.350076
    42  C    0.640796
    43  O   -0.493259
    44  O   -0.472395
    45  C   -0.067959
    46  C    0.001708
    47  C   -0.155596
    48  C    0.156217
    49  C   -0.362490
    50  C   -0.238511
    51  C   -0.188072
    52  C   -0.172921
    53  C   -0.040503
    54  C   -0.310491
    55  C   -0.159981
    56  C   -0.180502
    57  C   -0.177662
    58  C   -0.055969
    59  C   -0.291258
    60  C   -0.163684
    61  C   -0.192474
    62  C   -0.125558
    63  C   -0.080477
    64  C   -0.298339
    65  C   -0.306331
    66  H    0.085046
    67  H    0.070798
    68  H    0.092373
    69  H    0.125481
    70  H    0.094682
    71  H    0.115056
    72  H    0.097343
    73  H    0.138118
    74  H    0.119993
    75  H    0.119112
    76  H    0.118409
    77  H    0.136423
    78  H    0.132296
    79  H    0.098952
    80  H    0.113301
    81  H    0.104015
    82  H    0.083118
    83  H    0.090340
    84  H    0.113470
    85  H    0.101216
    86  H    0.136149
    87  H    0.116170
    88  H    0.093020
    89  H    0.109657
    90  H    0.087747
    91  H    0.120074
    92  H    0.125940
    93  H    0.115139
    94  H    0.121137
    95  H    0.178743
    96  H    0.105360
    97  H    0.139539
    98  H    0.123760
    99  H    0.137459
   100  H    0.085104
   101  H    0.108343
   102  H    0.110021
   103  H    0.124009
   104  H    0.119087
   105  H    0.097524
   106  H    0.097029
   107  H    0.105732
   108  H    0.087739
   109  H    0.075401
   110  H    0.092824
   111  H    0.055727
   112  H    0.090575
   113  H    0.100783
   114  H    0.108567
   115  H    0.073614
   116  H    0.057051
   117  H    0.101490
   118  H    0.091077
   119  H    0.099723
   120  H    0.087385
   121  H    0.089185
   122  H    0.048990
   123  H    0.111066
   124  H    0.100018
   125  H    0.097340
   126  H    0.085704
   127  H    0.080678
   128  H    0.061459
   129  H    0.065867
   130  H    0.106638
   131  H    0.076775
   132  H    0.094757
   133  H    0.112271
   134  H    0.106178
   135  H    0.098832
   136  H    0.064459
   137  H    0.117931
 Sum of Mulliken charges =  -0.00000

 Dipole moment (field-independent basis, Debye):
    X=             -0.1835    Y=              4.1952    Z=              0.9452  Tot=              4.3043
 Quadrupole moment (field-independent basis, Debye-Ang):
   XX=           -360.8898   YY=           -391.0127   ZZ=           -398.2351
   XY=            -21.9424   XZ=              1.2799   YZ=              4.2992

 Normal termination of Gaussian 16 at Wed Sep  4 15:47:33 2019.
