 Gaussian 09, Revision D.01,
 Gaussian 09:  ES64L-G09RevD.01 24-Apr-2013

 -------------------------------------
 # td=(NStates=1) CAM-B3LYP/6-31G(d,p)
 -------------------------------------

 --
 TD
 --
 Symbolic Z-matrix:
 Charge =  0 Multiplicity = 1

                         Standard orientation:
 ---------------------------------------------------------------------
 Center     Atomic      Atomic             Coordinates (Angstroms)
 Number     Number       Type             X           Y           Z
 ---------------------------------------------------------------------
      1         12           0       -7.214460    0.604841    0.131857
      2          6           0       -4.797161   -1.939184    0.466018
      3          6           0       -4.823513    2.796537    1.236148
      4          6           0       -9.419576    3.185222   -0.395526
      5          6           0       -9.544015   -1.592409   -0.990758
      6          7           0       -5.100412    0.469508    0.646985
      7          6           0       -4.349013   -0.654933    0.867705
      8          6           0       -2.934531   -0.413478    1.352291
      9          6           0       -3.089280    1.070058    1.714609
     10          6           0       -4.483047    1.500787    1.200992
     11          6           0       -2.959917    1.164908    3.221625
     12          6           0       -1.998557   -0.682864    0.122627
     13          6           0       -0.549204   -0.581289    0.680136
     14          6           0        0.520419   -0.678785   -0.502970
     15          8           0        0.172176   -0.994087   -1.591742
     16          8           0        1.801362   -0.428073   -0.082139
     17          7           0       -7.142825    2.577220    0.358525
     18          6           0       -6.047188    3.335392    0.800811
     19          6           0       -6.431201    4.661904    0.791314
     20          6           0       -7.681176    4.792829    0.375014
     21          6           0       -8.133518    3.440784    0.078274
     22          6           0       -5.504964    5.820287    1.141772
     23          6           0       -8.535927    6.015341    0.161343
     24          6           0       -8.491064    7.183275    0.792446
     25          7           0       -9.102799    0.722226   -0.581915
     26          6           0       -9.872468    1.845325   -0.647542
     27          6           0      -11.267384    1.456396   -1.122976
     28          6           0      -11.156031    0.111650   -1.319361
     29          6           0       -9.934218   -0.300743   -0.962489
     30          6           0      -12.306034    2.446407   -1.439299
     31          6           0      -12.447571   -0.682161   -1.754714
     32          6           0      -12.325669   -1.114282   -3.257567
     33          7           0       -7.203594   -1.385550   -0.109585
     34          6           0       -8.229717   -2.205970   -0.465139
     35          6           0       -7.845880   -3.616202   -0.536486
     36          6           0       -6.488987   -3.499998   -0.224251
     37          6           0       -6.176828   -2.128748    0.012491
     38          6           0       -8.670268   -4.766383   -0.873103
     39          6           0       -5.287131   -4.385642    0.108800
     40          8           0       -5.260730   -5.633739    0.177293
     41          6           0       -4.198878   -3.336292    0.492008
     42          6           0       -3.452472   -3.775094    1.818867
     43          8           0       -3.697979   -3.261451    2.890002
     44          8           0       -2.542921   -4.840342    1.665248
     45          6           0       -2.054714   -5.377342    2.923639
     46          6           0        2.785896   -0.652263   -1.104842
     47          6           0        4.055803   -0.390183   -0.470012
     48          6           0        5.177965    0.327485   -0.881606
     49          6           0        5.058042    1.147258   -2.196424
     50          6           0        6.478978    0.312556   -0.173369
     51          6           0        7.649406   -0.019664   -0.995242
     52          6           0        8.866785   -0.123167   -0.157259
     53          6           0       10.191345   -0.518170   -0.875217
     54          6           0       10.261960   -2.003712   -1.353037
     55          6           0       11.423922   -0.077482    0.048969
     56          6           0       12.739188   -0.277307   -0.797991
     57          6           0       13.959660    0.009768    0.122322
     58          6           0       15.400405   -0.159998   -0.499959
     59          6           0       15.572058   -1.652576   -0.840981
     60          6           0       16.496283    0.336882    0.343463
     61          6           0       17.823352    0.510965   -0.229779
     62          6           0       18.833150    1.300672    0.659215
     63          6           0       20.316403    1.342837    0.163689
     64          6           0       20.420718    2.107499   -1.077663
     65          6           0       21.153587    1.780033    1.342989
     66          1           0       -4.085246    3.501963    1.548605
     67          1           0      -10.129400    3.925271   -0.672716
     68          1           0      -10.307115   -2.316417   -1.286776
     69          1           0       -2.611663   -0.955196    2.292529
     70          1           0       -2.225137    1.560467    1.248141
     71          1           0       -1.873527    0.812953    3.554788
     72          1           0       -3.144383    2.044546    3.600319
     73          1           0       -3.720754    0.525917    3.752237
     74          1           0       -1.961784   -1.596128   -0.473186
     75          1           0       -2.315509    0.208635   -0.427846
     76          1           0       -0.293659    0.541160    1.013858
     77          1           0       -0.306423   -1.202453    1.468815
     78          1           0       -5.780465    6.846264    0.699925
     79          1           0       -5.561247    5.867124    2.407242
     80          1           0       -4.390138    5.470511    0.906792
     81          1           0       -9.308239    5.804654   -0.530043
     82          1           0       -9.290799    7.962246    0.562014
     83          1           0       -7.787272    7.524262    1.697039
     84          1           0      -12.343054    3.098153   -2.322571
     85          1           0      -13.280084    1.979626   -1.530437
     86          1           0      -12.635192    3.157640   -0.541533
     87          1           0      -12.650190   -1.700654   -1.188455
     88          1           0      -13.421262   -0.130016   -1.650287
     89          1           0      -13.214047   -1.890470   -3.588714
     90          1           0      -12.349208   -0.119560   -3.855357
     91          1           0      -11.436636   -1.529986   -3.719690
     92          1           0       -8.973458   -4.321315   -1.979931
     93          1           0       -8.168345   -5.712144   -0.924880
     94          1           0       -9.588654   -4.994736   -0.119897
     95          1           0       -3.426127   -3.473578   -0.220367
     96          1           0       -1.407470   -4.583549    3.565576
     97          1           0       -2.974020   -5.745482    3.460459
     98          1           0       -1.258861   -6.129863    2.747603
     99          1           0        2.819059   -1.527604   -1.549981
    100          1           0        2.635197    0.213352   -1.709817
    101          1           0        4.329707   -0.782554    0.463209
    102          1           0        3.952796    1.557978   -2.229917
    103          1           0        5.734118    2.247593   -2.201225
    104          1           0        5.351346    0.569091   -3.094891
    105          1           0        6.807989    1.407154    0.109757
    106          1           0        6.336280   -0.126442    0.667252
    107          1           0        7.660266   -1.004650   -1.532755
    108          1           0        7.802328    0.731418   -1.864682
    109          1           0        9.028751    0.879503    0.368035
    110          1           0        8.756681   -0.926619    0.500697
    111          1           0       10.186863   -0.015612   -1.732165
    112          1           0        9.232071   -2.065928   -1.624547
    113          1           0       11.144707   -2.049165   -1.940828
    114          1           0       10.382866   -2.777224   -0.334404
    115          1           0       11.423780    0.937647    0.393863
    116          1           0       11.471629   -0.763121    0.983596
    117          1           0       12.657027   -1.481890   -0.985327
    118          1           0       12.892048    0.303068   -1.811538
    119          1           0       13.908839    1.159404    0.332732
    120          1           0       13.895745   -0.508220    0.987403
    121          1           0       15.464233    0.559321   -1.461784
    122          1           0       15.763917   -2.365924    0.061848
    123          1           0       14.793589   -2.040074   -1.731686
    124          1           0       16.520370   -1.727485   -1.389574
    125          1           0       16.050284    1.281792    0.600910
    126          1           0       16.350464   -0.250487    1.261400
    127          1           0       18.299662   -0.433605   -0.243041
    128          1           0       17.842806    0.989818   -1.300059
    129          1           0       18.660191    2.460134    1.020625
    130          1           0       18.860127    0.596385    1.465915
    131          1           0       20.645453    0.354010    0.136350
    132          1           0       20.218399    3.222214   -0.984015
    133          1           0       21.293921    2.047684   -1.357886
    134          1           0       19.815666    1.869638   -1.932440
    135          1           0       20.980340    1.008874    2.266966
    136          1           0       21.983930    1.964893    0.766570
    137          1           0       20.722265    2.994984    1.518444
 ---------------------------------------------------------------------

 SCF Done:  E(RCAM-B3LYP) =  -2932.58612201     A.U. after   18 cycles

 Excitation energies and oscillator strengths:

 Excited State   1:      Singlet-A      2.0470 eV  605.70 nm  f=0.2685  <S**2>=0.000
     240 -> 242       -0.16634
     240 -> 243        0.20357
     241 -> 242        0.64276
     241 -> 243        0.11246
 This state for optimization and/or second-order correction.
 Total Energy, E(TD-HF/TD-KS) =  -2932.51089726
 Copying the excited state density for this state as the 1-particle RhoCI density.

 The electronic state is 1-A.
 Alpha  occ. eigenvalues --  -46.84099 -19.26371 -19.25988 -19.21511 -19.21256
 Alpha  occ. eigenvalues --  -19.20260 -14.41939 -14.39542 -14.39512 -14.39303
 Alpha  occ. eigenvalues --  -10.39797 -10.39265 -10.35478 -10.32350 -10.30632
 Alpha  occ. eigenvalues --  -10.30590 -10.30549 -10.30156 -10.29818 -10.29670
 Alpha  occ. eigenvalues --  -10.29375 -10.29110 -10.29053 -10.28699 -10.28279
 Alpha  occ. eigenvalues --  -10.28135 -10.28080 -10.28011 -10.27908 -10.27898
 Alpha  occ. eigenvalues --  -10.27718 -10.27644 -10.27595 -10.27584 -10.27345
 Alpha  occ. eigenvalues --  -10.27122 -10.27098 -10.27094 -10.27093 -10.26909
 Alpha  occ. eigenvalues --  -10.26897 -10.26854 -10.26840 -10.26624 -10.26620
 Alpha  occ. eigenvalues --  -10.26323 -10.26211 -10.26076 -10.26008 -10.25913
 Alpha  occ. eigenvalues --  -10.25897 -10.25862 -10.25546 -10.25373 -10.25354
 Alpha  occ. eigenvalues --  -10.25318 -10.25202 -10.25111 -10.25018 -10.24753
 Alpha  occ. eigenvalues --  -10.24579 -10.24517 -10.24432 -10.23620 -10.22714
 Alpha  occ. eigenvalues --   -3.13312  -1.88003  -1.87553  -1.87506  -1.18417
 Alpha  occ. eigenvalues --   -1.16161  -1.10843  -1.08696  -1.08507  -1.05890
 Alpha  occ. eigenvalues --   -1.05043  -1.04474  -1.03579  -0.92123  -0.91525
 Alpha  occ. eigenvalues --   -0.91233  -0.90213  -0.89799  -0.89579  -0.89253
 Alpha  occ. eigenvalues --   -0.89132  -0.88284  -0.87405  -0.87286  -0.86707
 Alpha  occ. eigenvalues --   -0.85257  -0.84363  -0.83758  -0.82566  -0.82061
 Alpha  occ. eigenvalues --   -0.81657  -0.80407  -0.80202  -0.79772  -0.78067
 Alpha  occ. eigenvalues --   -0.77588  -0.77445  -0.76866  -0.75889  -0.75790
 Alpha  occ. eigenvalues --   -0.74770  -0.74527  -0.74201  -0.73081  -0.72473
 Alpha  occ. eigenvalues --   -0.70960  -0.70178  -0.68813  -0.68682  -0.67709
 Alpha  occ. eigenvalues --   -0.66813  -0.66718  -0.65479  -0.64843  -0.64128
 Alpha  occ. eigenvalues --   -0.63976  -0.63659  -0.63173  -0.62125  -0.61978
 Alpha  occ. eigenvalues --   -0.60982  -0.60845  -0.60541  -0.59635  -0.59235
 Alpha  occ. eigenvalues --   -0.58716  -0.58557  -0.58204  -0.57962  -0.56339
 Alpha  occ. eigenvalues --   -0.56183  -0.56019  -0.55592  -0.55471  -0.55086
 Alpha  occ. eigenvalues --   -0.54697  -0.54392  -0.54196  -0.54116  -0.53201
 Alpha  occ. eigenvalues --   -0.52729  -0.52694  -0.52375  -0.52352  -0.51741
 Alpha  occ. eigenvalues --   -0.51622  -0.51360  -0.51035  -0.50722  -0.50642
 Alpha  occ. eigenvalues --   -0.50234  -0.50142  -0.49942  -0.49789  -0.49622
 Alpha  occ. eigenvalues --   -0.49246  -0.48781  -0.48573  -0.48326  -0.48177
 Alpha  occ. eigenvalues --   -0.47938  -0.47547  -0.47408  -0.47289  -0.47264
 Alpha  occ. eigenvalues --   -0.47072  -0.46912  -0.46841  -0.46436  -0.46053
 Alpha  occ. eigenvalues --   -0.45707  -0.45640  -0.45508  -0.45292  -0.45246
 Alpha  occ. eigenvalues --   -0.44972  -0.44806  -0.44588  -0.44523  -0.44000
 Alpha  occ. eigenvalues --   -0.43976  -0.43945  -0.43646  -0.43474  -0.43331
 Alpha  occ. eigenvalues --   -0.42988  -0.42797  -0.42337  -0.42280  -0.42063
 Alpha  occ. eigenvalues --   -0.41918  -0.41592  -0.41500  -0.41181  -0.41072
 Alpha  occ. eigenvalues --   -0.40727  -0.40650  -0.40590  -0.40372  -0.40285
 Alpha  occ. eigenvalues --   -0.39868  -0.39683  -0.39634  -0.39188  -0.38764
 Alpha  occ. eigenvalues --   -0.38719  -0.38327  -0.38146  -0.37771  -0.37621
 Alpha  occ. eigenvalues --   -0.37249  -0.37168  -0.37142  -0.36689  -0.36648
 Alpha  occ. eigenvalues --   -0.36554  -0.36141  -0.36024  -0.35837  -0.35541
 Alpha  occ. eigenvalues --   -0.35431  -0.35273  -0.34102  -0.34008  -0.33444
 Alpha  occ. eigenvalues --   -0.33253  -0.32945  -0.31904  -0.31048  -0.29603
 Alpha  occ. eigenvalues --   -0.29314  -0.28909  -0.28696  -0.28462  -0.23158
 Alpha  occ. eigenvalues --   -0.21146
 Alpha virt. eigenvalues --   -0.06688  -0.02772   0.02041   0.04443   0.05538
 Alpha virt. eigenvalues --    0.05649   0.06033   0.06626   0.06890   0.07418
 Alpha virt. eigenvalues --    0.08433   0.10464   0.11230   0.11258   0.11570

 Mulliken charges:
               1
     1  Mg   0.831680
     2  C    0.081647
     3  C   -0.202542
     4  C   -0.169484
     5  C   -0.190045
     6  N   -0.627808
     7  C    0.270459
     8  C   -0.159677
     9  C   -0.163865
    10  C    0.385158
    11  C   -0.306579
    12  C   -0.155159
    13  C   -0.273133
    14  C    0.592516
    15  O   -0.443874
    16  O   -0.493104
    17  N   -0.755178
    18  C    0.326241
    19  C    0.016636
    20  C    0.013262
    21  C    0.336683
    22  C   -0.354652
    23  C   -0.042959
    24  C   -0.256136
    25  N   -0.709056
    26  C    0.265383
    27  C    0.024201
    28  C    0.065430
    29  C    0.336265
    30  C   -0.405502
    31  C   -0.231536
    32  C   -0.306353
    33  N   -0.687300
    34  C    0.196398
    35  C    0.049440
    36  C   -0.068522
    37  C    0.306294
    38  C   -0.367172
    39  C    0.399057
    40  O   -0.477845
    41  C   -0.311814
    42  C    0.613498
    43  O   -0.451376
    44  O   -0.477765
    45  C   -0.070226
    46  C    0.059563
    47  C   -0.157501
    48  C    0.105712
    49  C   -0.356830
    50  C   -0.185732
    51  C   -0.179048
    52  C   -0.179108
    53  C   -0.075033
    54  C   -0.295473
    55  C   -0.170332
    56  C   -0.177443
    57  C   -0.158422
    58  C   -0.064494
    59  C   -0.304743
    60  C   -0.148365
    61  C   -0.176784
    62  C   -0.147909
    63  C   -0.081589
    64  C   -0.299457
    65  C   -0.269214
    66  H    0.087361
    67  H    0.098511
    68  H    0.096977
    69  H    0.131137
    70  H    0.102503
    71  H    0.091891
    72  H    0.114138
    73  H    0.118814
    74  H    0.137844
    75  H    0.116398
    76  H    0.106284
    77  H    0.142283
    78  H    0.126570
    79  H    0.089763
    80  H    0.101610
    81  H    0.096529
    82  H    0.101655
    83  H    0.107371
    84  H    0.132885
    85  H    0.114963
    86  H    0.101149
    87  H    0.096211
    88  H    0.117343
    89  H    0.078985
    90  H    0.094477
    91  H    0.122459
    92  H    0.109113
    93  H    0.154617
    94  H    0.113157
    95  H    0.164111
    96  H    0.099810
    97  H    0.139394
    98  H    0.127428
    99  H    0.148421
   100  H    0.118101
   101  H    0.080295
   102  H    0.106650
   103  H    0.070365
   104  H    0.129886
   105  H    0.089734
   106  H    0.097705
   107  H    0.085922
   108  H    0.090635
   109  H    0.079633
   110  H    0.102054
   111  H    0.097549
   112  H    0.108686
   113  H    0.126559
   114  H    0.054722
   115  H    0.095790
   116  H    0.085339
   117  H    0.075711
   118  H    0.084967
   119  H    0.066763
   120  H    0.097422
   121  H    0.054451
   122  H    0.091497
   123  H    0.080402
   124  H    0.100844
   125  H    0.092583
   126  H    0.082607
   127  H    0.100891
   128  H    0.077547
   129  H    0.061536
   130  H    0.079465
   131  H    0.091803
   132  H    0.088422
   133  H    0.108832
   134  H    0.109865
   135  H    0.106002
   136  H    0.110284
   137  H    0.046944
 Sum of Mulliken charges =   0.00000

 Dipole moment (field-independent basis, Debye):
    X=              1.3356    Y=              4.8872    Z=              0.1599  Tot=              5.0689
 Quadrupole moment (field-independent basis, Debye-Ang):
   XX=           -324.5467   YY=           -398.6126   ZZ=           -398.2628
   XY=            -37.1841   XZ=              2.9697   YZ=             -4.4770

 Normal termination of Gaussian 09 at Fri Jul  5 09:19:53 2019.
