 Gaussian 16, Revision A.03,
 Gaussian 16:  ES64L-G16RevA.03 25-Dec-2016

 ----------------------------------------------------------------------
 # td=(NStates=1) iop(3/107=0140000000,3/108=0140000000) CAM-B3LYP/6-31
 G(d,p)
 ----------------------------------------------------------------------

 --
 TD
 --
 Symbolic Z-matrix:
 Charge =  0 Multiplicity = 1

                         Standard orientation:
 ---------------------------------------------------------------------
 Center     Atomic      Atomic             Coordinates (Angstroms)
 Number     Number       Type             X           Y           Z
 ---------------------------------------------------------------------
      1         12           0       -7.126299    0.679049    0.056028
      2          6           0       -4.893387   -1.974624    0.529395
      3          6           0       -4.778001    2.776344    1.233706
      4          6           0       -9.280654    3.195128   -0.452417
      5          6           0       -9.560468   -1.630188   -0.988007
      6          7           0       -5.161122    0.342781    0.819293
      7          6           0       -4.417214   -0.750517    0.881472
      8          6           0       -2.941038   -0.512700    1.261220
      9          6           0       -2.950838    0.965902    1.765705
     10          6           0       -4.417486    1.427094    1.244374
     11          6           0       -2.978451    1.065274    3.320655
     12          6           0       -1.951869   -0.684819    0.122796
     13          6           0       -0.572049   -0.538968    0.620785
     14          6           0        0.560731   -0.698934   -0.520895
     15          8           0        0.197176   -1.002762   -1.616670
     16          8           0        1.802587   -0.560272   -0.125264
     17          7           0       -7.104993    2.627056    0.345557
     18          6           0       -6.037091    3.399552    0.791448
     19          6           0       -6.302252    4.843898    0.884042
     20          6           0       -7.621573    4.943957    0.465879
     21          6           0       -8.057999    3.617877    0.073628
     22          6           0       -5.303222    5.902848    1.217294
     23          6           0       -8.459967    6.040067    0.232005
     24          6           0       -8.269123    7.319916    0.723200
     25          7           0       -9.004613    0.763334   -0.583064
     26          6           0       -9.814705    1.881477   -0.722220
     27          6           0      -11.097147    1.585498   -1.127196
     28          6           0      -11.198554    0.199452   -1.344441
     29          6           0       -9.832412   -0.272875   -0.894400
     30          6           0      -12.248696    2.615583   -1.406062
     31          6           0      -12.286104   -0.600562   -1.888633
     32          6           0      -12.197282   -1.002977   -3.243919
     33          7           0       -7.281653   -1.350314   -0.204539
     34          6           0       -8.346719   -2.155855   -0.607758
     35          6           0       -7.887325   -3.555257   -0.638822
     36          6           0       -6.603042   -3.582975   -0.218197
     37          6           0       -6.262774   -2.183478    0.053205
     38          6           0       -8.701694   -4.851903   -0.926838
     39          6           0       -5.376505   -4.389768    0.154249
     40          8           0       -5.186065   -5.597339    0.064046
     41          6           0       -4.267594   -3.318868    0.560536
     42          6           0       -3.625601   -3.828379    1.855890
     43          8           0       -3.930945   -3.402237    3.039157
     44          8           0       -2.821491   -4.838953    1.645137
     45          6           0       -2.198391   -5.527898    2.805037
     46          6           0        2.836984   -0.678388   -1.188790
     47          6           0        4.156907   -0.521613   -0.509211
     48          6           0        5.060054    0.362110   -0.936303
     49          6           0        4.909351    1.220097   -2.186401
     50          6           0        6.348551    0.460171   -0.136428
     51          6           0        7.552989   -0.091145   -0.892996
     52          6           0        8.859405   -0.217653   -0.138313
     53          6           0       10.172529   -0.545661   -0.877594
     54          6           0       10.165729   -2.018921   -1.263477
     55          6           0       11.418934   -0.171135    0.032516
     56          6           0       12.761225   -0.594626   -0.613064
     57          6           0       13.956103    0.032781    0.120720
     58          6           0       15.311370   -0.142625   -0.598577
     59          6           0       15.624447   -1.593168   -1.058241
     60          6           0       16.499569    0.347204    0.360121
     61          6           0       17.876542    0.417960   -0.257598
     62          6           0       18.840248    1.194537    0.687445
     63          6           0       20.297567    1.341718    0.213147
     64          6           0       20.311373    2.411746   -0.957716
     65          6           0       21.171613    1.824761    1.221081
     66          1           0       -4.177510    3.519673    1.704937
     67          1           0      -10.098841    4.061819   -0.692198
     68          1           0      -10.219462   -2.335242   -1.314591
     69          1           0       -2.665520   -1.091038    2.081857
     70          1           0       -2.217995    1.520899    1.265563
     71          1           0       -2.086037    0.524064    3.831855
     72          1           0       -3.211202    2.072325    3.706926
     73          1           0       -3.877141    0.449005    3.815632
     74          1           0       -2.081087   -1.727122   -0.231585
     75          1           0       -2.120467   -0.038001   -0.632051
     76          1           0       -0.281120    0.463981    1.215010
     77          1           0       -0.372892   -1.239226    1.364273
     78          1           0       -5.475889    6.746356    0.603498
     79          1           0       -5.458725    6.098491    2.298975
     80          1           0       -4.408872    5.454165    1.350208
     81          1           0       -9.258645    5.641368   -0.420941
     82          1           0       -9.084179    8.090861    0.377505
     83          1           0       -7.703637    7.657875    1.565734
     84          1           0      -11.992363    3.334285   -1.966258
     85          1           0      -13.221984    1.952338   -1.906586
     86          1           0      -12.472810    3.175615   -0.587815
     87          1           0      -12.499825   -1.517000   -1.078875
     88          1           0      -13.191927    0.057722   -1.524308
     89          1           0      -12.981728   -1.599807   -3.512849
     90          1           0      -11.874041   -0.197836   -3.917471
     91          1           0      -11.487643   -1.822564   -3.556262
     92          1           0       -8.744641   -4.587514   -2.124032
     93          1           0       -8.118170   -5.764351   -0.469915
     94          1           0       -9.735397   -4.660717   -0.440624
     95          1           0       -3.408155   -3.390983   -0.152783
     96          1           0       -1.544228   -4.790969    3.461254
     97          1           0       -2.875548   -6.065226    3.520349
     98          1           0       -1.383225   -6.384196    2.269785
     99          1           0        2.822475   -1.589537   -1.429454
    100          1           0        2.604788    0.035063   -1.960014
    101          1           0        4.267851   -1.130103    0.357294
    102          1           0        4.067775    1.121536   -2.490713
    103          1           0        4.994357    2.353865   -2.160765
    104          1           0        5.761881    1.022400   -2.937260
    105          1           0        6.800123    1.592274    0.138023
    106          1           0        6.382827    0.036167    1.027843
    107          1           0        7.285327   -1.072038   -1.227234
    108          1           0        7.556003    0.627822   -1.737822
    109          1           0        9.153291    0.656364    0.457088
    110          1           0        8.846128   -0.990834    0.637527
    111          1           0       10.521933   -0.030524   -1.776256
    112          1           0        9.164327   -2.049066   -1.823590
    113          1           0       11.060549   -2.267685   -1.694247
    114          1           0        9.907216   -2.558332   -0.200596
    115          1           0       11.286167    0.932478    0.435080
    116          1           0       11.157608   -0.835432    0.981451
    117          1           0       12.832039   -1.672602   -0.868652
    118          1           0       12.753467   -0.047280   -1.747637
    119          1           0       13.827749    0.981474    0.267049
    120          1           0       14.075067   -0.232987    1.335047
    121          1           0       15.557425    0.345156   -1.749001
    122          1           0       15.549169   -2.179100   -0.165201
    123          1           0       14.780961   -1.768419   -1.640132
    124          1           0       16.456755   -1.550373   -1.338191
    125          1           0       16.273073    1.305322    0.687905
    126          1           0       16.358580   -0.332803    1.202155
    127          1           0       18.384613   -0.530611   -0.483261
    128          1           0       17.710604    0.790809   -1.288622
    129          1           0       18.410944    2.163699    1.006580
    130          1           0       18.891626    0.725863    1.785501
    131          1           0       20.714908    0.370888   -0.123168
    132          1           0       20.135355    3.345723   -0.681087
    133          1           0       21.277345    2.526293   -1.498145
    134          1           0       19.448726    2.235717   -1.851632
    135          1           0       21.477391    0.764445    1.759795
    136          1           0       22.227510    2.329714    0.649778
    137          1           0       20.709145    2.810690    1.853806
 ---------------------------------------------------------------------

 SCF Done:  E(RCAM-B3LYP) =  -2933.34372930     A.U. after   16 cycles

 Excitation energies and oscillator strengths:

 Excited State   1:      Singlet-A      2.0855 eV  594.51 nm  f=0.2416  <S**2>=0.000
     240 -> 243       -0.25920
     241 -> 242        0.65137
 This state for optimization and/or second-order correction.
 Total Energy, E(TD-HF/TD-DFT) =  -2933.26708866
 Copying the excited state density for this state as the 1-particle RhoCI density.

 The electronic state is 1-A.
 Alpha  occ. eigenvalues --  -46.79184 -19.23583 -19.22307 -19.16769 -19.15790
 Alpha  occ. eigenvalues --  -19.15050 -14.37207 -14.35511 -14.35033 -14.34911
 Alpha  occ. eigenvalues --  -10.34571 -10.34015 -10.31562 -10.30586 -10.26558
 Alpha  occ. eigenvalues --  -10.26435 -10.25875 -10.25463 -10.24896 -10.24684
 Alpha  occ. eigenvalues --  -10.24581 -10.24545 -10.24399 -10.24371 -10.24288
 Alpha  occ. eigenvalues --  -10.24218 -10.24129 -10.24102 -10.24101 -10.23871
 Alpha  occ. eigenvalues --  -10.23771 -10.23458 -10.23120 -10.23057 -10.23038
 Alpha  occ. eigenvalues --  -10.22920 -10.22848 -10.22818 -10.22780 -10.22671
 Alpha  occ. eigenvalues --  -10.22144 -10.22087 -10.22077 -10.21898 -10.21858
 Alpha  occ. eigenvalues --  -10.21848 -10.21744 -10.21726 -10.21701 -10.21633
 Alpha  occ. eigenvalues --  -10.21548 -10.21546 -10.21456 -10.21442 -10.21350
 Alpha  occ. eigenvalues --  -10.21258 -10.21193 -10.21102 -10.21068 -10.20984
 Alpha  occ. eigenvalues --  -10.20957 -10.20395 -10.20385 -10.19897 -10.16800
 Alpha  occ. eigenvalues --   -3.07988  -1.82907  -1.82457  -1.82425  -1.13797
 Alpha  occ. eigenvalues --   -1.12930  -1.05851  -1.04796  -0.99769  -0.99020
 Alpha  occ. eigenvalues --   -0.98045  -0.97623  -0.96704  -0.87119  -0.86703
 Alpha  occ. eigenvalues --   -0.85551  -0.85396  -0.84945  -0.84719  -0.84385
 Alpha  occ. eigenvalues --   -0.83809  -0.83018  -0.82137  -0.81844  -0.81319
 Alpha  occ. eigenvalues --   -0.80029  -0.79452  -0.79319  -0.78415  -0.77798
 Alpha  occ. eigenvalues --   -0.77554  -0.76402  -0.75953  -0.74943  -0.73599
 Alpha  occ. eigenvalues --   -0.73334  -0.73234  -0.71961  -0.71486  -0.71198
 Alpha  occ. eigenvalues --   -0.70607  -0.70161  -0.69791  -0.69022  -0.67759
 Alpha  occ. eigenvalues --   -0.66925  -0.65944  -0.65410  -0.64463  -0.64198
 Alpha  occ. eigenvalues --   -0.62716  -0.62259  -0.61464  -0.60654  -0.60240
 Alpha  occ. eigenvalues --   -0.59928  -0.59889  -0.58300  -0.57959  -0.57927
 Alpha  occ. eigenvalues --   -0.57467  -0.56614  -0.56281  -0.55568  -0.54853
 Alpha  occ. eigenvalues --   -0.54690  -0.54500  -0.53926  -0.53281  -0.52081
 Alpha  occ. eigenvalues --   -0.52023  -0.51503  -0.51393  -0.51217  -0.50760
 Alpha  occ. eigenvalues --   -0.50464  -0.49927  -0.49877  -0.49797  -0.49344
 Alpha  occ. eigenvalues --   -0.49142  -0.49117  -0.48997  -0.48853  -0.48331
 Alpha  occ. eigenvalues --   -0.48082  -0.47760  -0.47311  -0.47230  -0.47097
 Alpha  occ. eigenvalues --   -0.46302  -0.46217  -0.46139  -0.45773  -0.45596
 Alpha  occ. eigenvalues --   -0.45563  -0.45241  -0.45056  -0.44878  -0.44787
 Alpha  occ. eigenvalues --   -0.44638  -0.44542  -0.44303  -0.44110  -0.44021
 Alpha  occ. eigenvalues --   -0.43781  -0.43379  -0.43231  -0.42962  -0.42733
 Alpha  occ. eigenvalues --   -0.42586  -0.42287  -0.42129  -0.42109  -0.41758
 Alpha  occ. eigenvalues --   -0.41578  -0.41543  -0.41362  -0.41156  -0.40808
 Alpha  occ. eigenvalues --   -0.40734  -0.40388  -0.40372  -0.40241  -0.40046
 Alpha  occ. eigenvalues --   -0.39659  -0.39479  -0.39318  -0.39105  -0.38875
 Alpha  occ. eigenvalues --   -0.38801  -0.38689  -0.38105  -0.37986  -0.37803
 Alpha  occ. eigenvalues --   -0.37758  -0.37561  -0.37462  -0.37282  -0.37129
 Alpha  occ. eigenvalues --   -0.36732  -0.36628  -0.36519  -0.36303  -0.35977
 Alpha  occ. eigenvalues --   -0.35573  -0.35098  -0.34646  -0.34579  -0.34450
 Alpha  occ. eigenvalues --   -0.34053  -0.33963  -0.33824  -0.33726  -0.33627
 Alpha  occ. eigenvalues --   -0.33422  -0.33269  -0.32995  -0.32183  -0.31951
 Alpha  occ. eigenvalues --   -0.31811  -0.31747  -0.31402  -0.30640  -0.30499
 Alpha  occ. eigenvalues --   -0.29534  -0.29312  -0.28652  -0.28000  -0.27836
 Alpha  occ. eigenvalues --   -0.27106  -0.27061  -0.25784  -0.24508  -0.21169
 Alpha  occ. eigenvalues --   -0.19850
 Alpha virt. eigenvalues --   -0.06603  -0.03833   0.00135   0.01797   0.02896
 Alpha virt. eigenvalues --    0.03658   0.04608   0.05483   0.05873   0.06338
 Alpha virt. eigenvalues --    0.06642   0.08631   0.08797   0.09292   0.09470

 Mulliken charges:
               1
     1  Mg   0.818518
     2  C    0.098709
     3  C   -0.205628
     4  C   -0.223198
     5  C   -0.134995
     6  N   -0.630707
     7  C    0.334840
     8  C   -0.149019
     9  C   -0.119005
    10  C    0.307211
    11  C   -0.317554
    12  C   -0.146501
    13  C   -0.272322
    14  C    0.585828
    15  O   -0.463982
    16  O   -0.469277
    17  N   -0.697759
    18  C    0.286811
    19  C    0.003789
    20  C    0.070596
    21  C    0.292303
    22  C   -0.354659
    23  C   -0.065043
    24  C   -0.277142
    25  N   -0.698450
    26  C    0.311075
    27  C    0.020675
    28  C    0.029609
    29  C    0.283813
    30  C   -0.348676
    31  C   -0.244580
    32  C   -0.301617
    33  N   -0.713676
    34  C    0.284432
    35  C   -0.080859
    36  C    0.067446
    37  C    0.261212
    38  C   -0.341956
    39  C    0.389899
    40  O   -0.459542
    41  C   -0.333912
    42  C    0.594565
    43  O   -0.525147
    44  O   -0.404401
    45  C   -0.078740
    46  C    0.027634
    47  C   -0.133000
    48  C    0.129388
    49  C   -0.337121
    50  C   -0.229126
    51  C   -0.157862
    52  C   -0.178373
    53  C   -0.072651
    54  C   -0.278597
    55  C   -0.168976
    56  C   -0.188600
    57  C   -0.145506
    58  C   -0.091626
    59  C   -0.258374
    60  C   -0.169924
    61  C   -0.177183
    62  C   -0.167710
    63  C   -0.030066
    64  C   -0.308310
    65  C   -0.259048
    66  H    0.062341
    67  H    0.065736
    68  H    0.073993
    69  H    0.117312
    70  H    0.105891
    71  H    0.099945
    72  H    0.112368
    73  H    0.113714
    74  H    0.110958
    75  H    0.122797
    76  H    0.101508
    77  H    0.132401
    78  H    0.139185
    79  H    0.122968
    80  H    0.121188
    81  H    0.086835
    82  H    0.087106
    83  H    0.117942
    84  H    0.130105
    85  H    0.080666
    86  H    0.125954
    87  H    0.078326
    88  H    0.098167
    89  H    0.117758
    90  H    0.120115
    91  H    0.101018
    92  H    0.120501
    93  H    0.150245
    94  H    0.119168
    95  H    0.155547
    96  H    0.127599
    97  H    0.153792
    98  H    0.102060
    99  H    0.134567
   100  H    0.132700
   101  H    0.105885
   102  H    0.104443
   103  H    0.114396
   104  H    0.117440
   105  H    0.069533
   106  H    0.072947
   107  H    0.101114
   108  H    0.098636
   109  H    0.083233
   110  H    0.093727
   111  H    0.083496
   112  H    0.100385
   113  H    0.107159
   114  H    0.068355
   115  H    0.082856
   116  H    0.067262
   117  H    0.114783
   118  H    0.062452
   119  H    0.116839
   120  H    0.060013
   121  H    0.036682
   122  H    0.088346
   123  H    0.101904
   124  H    0.092797
   125  H    0.094867
   126  H    0.091557
   127  H    0.094570
   128  H    0.097871
   129  H    0.090789
   130  H    0.067363
   131  H    0.091283
   132  H    0.119408
   133  H    0.093702
   134  H    0.058438
   135  H    0.083392
   136  H    0.060478
   137  H    0.081170
 Sum of Mulliken charges =  -0.00000

 Dipole moment (field-independent basis, Debye):
    X=              2.4192    Y=              3.6099    Z=             -0.2853  Tot=              4.3549
 Quadrupole moment (field-independent basis, Debye-Ang):
   XX=           -368.1408   YY=           -391.5343   ZZ=           -398.8802
   XY=            -12.9103   XZ=             13.4430   YZ=             -0.8692

 Normal termination of Gaussian 16 at Mon Sep 23 03:51:23 2019.
