 Gaussian 09, Revision D.01,
 Gaussian 09:  ES64L-G09RevD.01 24-Apr-2013

 -------------------------------------
 # td=(NStates=1) CAM-B3LYP/6-31G(d,p)
 -------------------------------------

 --
 TD
 --
 Symbolic Z-matrix:
 Charge =  0 Multiplicity = 1

                         Standard orientation:
 ---------------------------------------------------------------------
 Center     Atomic      Atomic             Coordinates (Angstroms)
 Number     Number       Type             X           Y           Z
 ---------------------------------------------------------------------
      1         12           0       -7.159449    0.603012   -0.054440
      2          6           0       -4.880176   -1.938753    0.585058
      3          6           0       -4.860194    2.806996    1.014217
      4          6           0       -9.476594    3.068552   -0.327506
      5          6           0       -9.530785   -1.764736   -0.859069
      6          7           0       -5.047107    0.430113    0.562411
      7          6           0       -4.352225   -0.661925    0.606101
      8          6           0       -2.923908   -0.361885    1.142288
      9          6           0       -2.959595    1.118875    1.566445
     10          6           0       -4.423815    1.473825    1.011602
     11          6           0       -2.840329    1.277673    3.060555
     12          6           0       -1.828591   -0.785213    0.126060
     13          6           0       -0.352258   -0.472516    0.539225
     14          6           0        0.574520   -0.659180   -0.624017
     15          8           0        0.254609   -1.171514   -1.708704
     16          8           0        1.760129   -0.364923   -0.265676
     17          7           0       -7.084763    2.665664    0.267221
     18          6           0       -6.082202    3.376015    0.698804
     19          6           0       -6.492049    4.830477    0.715660
     20          6           0       -7.816545    4.880326    0.407494
     21          6           0       -8.224552    3.466326    0.028317
     22          6           0       -5.494980    5.942717    1.155077
     23          6           0       -8.707064    6.022761    0.203130
     24          6           0       -8.499627    7.207697    0.852859
     25          7           0       -9.116615    0.676703   -0.585214
     26          6           0       -9.948486    1.745297   -0.641572
     27          6           0      -11.332338    1.407893   -1.092048
     28          6           0      -11.311883    0.066247   -1.246014
     29          6           0       -9.965713   -0.400003   -0.911161
     30          6           0      -12.375464    2.363531   -1.323245
     31          6           0      -12.437309   -0.726608   -1.762949
     32          6           0      -12.306505   -1.165557   -3.226825
     33          7           0       -7.251149   -1.358869   -0.208333
     34          6           0       -8.315702   -2.216011   -0.580202
     35          6           0       -7.815765   -3.604608   -0.483678
     36          6           0       -6.543338   -3.536323   -0.018861
     37          6           0       -6.187560   -2.146301    0.072382
     38          6           0       -8.767705   -4.834380   -0.684704
     39          6           0       -5.349514   -4.246485    0.318594
     40          8           0       -5.276448   -5.536303    0.301225
     41          6           0       -4.220562   -3.253926    0.671366
     42          6           0       -3.638630   -3.644832    2.006686
     43          8           0       -3.835149   -3.002499    3.037695
     44          8           0       -2.784451   -4.668511    1.885886
     45          6           0       -2.154380   -5.070840    3.114369
     46          6           0        2.749607   -0.700001   -1.137891
     47          6           0        4.117426   -0.413662   -0.504967
     48          6           0        5.153729    0.273396   -1.004781
     49          6           0        5.218646    0.960086   -2.290159
     50          6           0        6.467714    0.335092   -0.289667
     51          6           0        7.697143   -0.254775   -1.063360
     52          6           0        8.988188   -0.207501   -0.197629
     53          6           0       10.300526   -0.642841   -0.948048
     54          6           0       10.310057   -2.258628   -1.240199
     55          6           0       11.574845   -0.277995   -0.037679
     56          6           0       12.877879   -0.590824   -0.776672
     57          6           0       14.028342   -0.182117    0.149303
     58          6           0       15.431123   -0.280146   -0.556634
     59          6           0       15.877175   -1.642350   -0.845372
     60          6           0       16.439645    0.454604    0.374097
     61          6           0       17.934716    0.662133   -0.091446
     62          6           0       18.749903    1.388634    0.774103
     63          6           0       20.247142    1.518043    0.308480
     64          6           0       20.332392    2.225596   -1.052730
     65          6           0       20.976615    2.161807    1.353052
     66          1           0       -4.120655    3.653137    1.458537
     67          1           0       -9.913738    3.873944   -0.611383
     68          1           0      -10.349268   -2.433267   -1.149945
     69          1           0       -2.670154   -1.088653    1.942577
     70          1           0       -2.142472    1.837073    0.962364
     71          1           0       -1.871550    0.950862    3.423511
     72          1           0       -2.921661    2.428848    3.040987
     73          1           0       -3.492054    0.810291    3.823485
     74          1           0       -1.982129   -1.727140   -0.445769
     75          1           0       -2.117324   -0.177267   -0.879598
     76          1           0       -0.347749    0.602332    0.844633
     77          1           0       -0.061857   -1.231504    1.343669
     78          1           0       -5.786754    6.737198    0.525485
     79          1           0       -5.616306    6.267401    2.141666
     80          1           0       -4.583275    5.646990    1.066007
     81          1           0       -9.630731    5.966970   -0.382418
     82          1           0       -9.313703    7.947362    0.763315
     83          1           0       -7.878482    7.401572    1.758436
     84          1           0      -12.321246    3.105034   -2.189576
     85          1           0      -13.296380    1.736531   -1.385477
     86          1           0      -12.593158    3.069313   -0.567272
     87          1           0      -12.445144   -1.368602   -1.142870
     88          1           0      -13.333599   -0.153413   -1.610146
     89          1           0      -13.140078   -1.848043   -3.567064
     90          1           0      -12.492148   -0.356810   -3.867456
     91          1           0      -11.516525   -1.704046   -3.438241
     92          1           0       -9.447577   -4.922974   -1.648670
     93          1           0       -8.046029   -5.528939   -0.658675
     94          1           0       -9.380906   -4.762668    0.215173
     95          1           0       -3.300531   -3.314963   -0.041841
     96          1           0       -1.606738   -4.127956    3.514998
     97          1           0       -2.845827   -5.444939    3.925180
     98          1           0       -1.395660   -5.876971    2.939616
     99          1           0        2.876169   -1.726960   -1.501067
    100          1           0        2.685725   -0.041144   -1.993481
    101          1           0        4.414960   -0.864301    0.388624
    102          1           0        4.302879    0.885149   -2.741640
    103          1           0        5.479384    2.127448   -2.239055
    104          1           0        6.103690    0.597487   -2.860953
    105          1           0        6.804094    1.415577    0.246146
    106          1           0        6.268022   -0.273087    0.703518
    107          1           0        7.334844   -1.269153   -1.229010
    108          1           0        7.912496    0.286573   -1.848543
    109          1           0        9.282739    0.854922    0.000891
    110          1           0        8.841303   -0.688718    0.688364
    111          1           0       10.275260   -0.137017   -1.913057
    112          1           0        9.435991   -2.539633   -1.646837
    113          1           0       11.055086   -2.602762   -1.818355
    114          1           0       10.325415   -2.898338   -0.329402
    115          1           0       11.359323    0.825868   -0.132591
    116          1           0       11.319389   -0.506082    1.018619
    117          1           0       12.998865   -1.638284   -0.940850
    118          1           0       12.830785   -0.184720   -1.745529
    119          1           0       13.923071    0.820550    0.371680
    120          1           0       14.012017   -0.803467    0.942090
    121          1           0       15.510185    0.323061   -1.506825
    122          1           0       15.556359   -2.261493    0.117137
    123          1           0       15.332317   -2.128684   -1.649906
    124          1           0       16.825870   -1.723935   -1.107316
    125          1           0       16.038608    1.379452    0.629527
    126          1           0       16.594408   -0.301537    1.356318
    127          1           0       18.383730   -0.511594   -0.374258
    128          1           0       17.741169    1.064192   -0.933015
    129          1           0       18.349616    2.308679    1.035636
    130          1           0       18.855041    1.041200    1.829889
    131          1           0       20.686519    0.544212    0.355073
    132          1           0       20.148950    3.357824   -1.060997
    133          1           0       21.419483    2.086680   -1.353316
    134          1           0       19.731318    1.650257   -1.711707
    135          1           0       20.859406    1.640119    2.327925
    136          1           0       22.081547    2.096564    1.212087
    137          1           0       20.680719    3.084908    1.490796
 ---------------------------------------------------------------------

 SCF Done:  E(RCAM-B3LYP) =  -2932.65630911     A.U. after   15 cycles

 Excitation energies and oscillator strengths:

 Excited State   1:      Singlet-A      2.1811 eV  568.44 nm  f=0.1986  <S**2>=0.000
     240 -> 243        0.29406
     241 -> 242        0.63202
 This state for optimization and/or second-order correction.
 Total Energy, E(TD-HF/TD-KS) =  -2932.57615462
 Copying the excited state density for this state as the 1-particle RhoCI density.

 The electronic state is 1-A.
 Alpha  occ. eigenvalues --  -46.84622 -19.28536 -19.27298 -19.20872 -19.20449
 Alpha  occ. eigenvalues --  -19.19410 -14.41555 -14.39705 -14.39433 -14.39304
 Alpha  occ. eigenvalues --  -10.39545 -10.39307 -10.34944 -10.32647 -10.32485
 Alpha  occ. eigenvalues --  -10.31506 -10.30374 -10.29976 -10.29550 -10.29424
 Alpha  occ. eigenvalues --  -10.29283 -10.29120 -10.28972 -10.28809 -10.28577
 Alpha  occ. eigenvalues --  -10.28539 -10.28343 -10.28326 -10.27690 -10.27669
 Alpha  occ. eigenvalues --  -10.27550 -10.27315 -10.27166 -10.26979 -10.26957
 Alpha  occ. eigenvalues --  -10.26913 -10.26773 -10.26429 -10.26411 -10.26096
 Alpha  occ. eigenvalues --  -10.25975 -10.25685 -10.25621 -10.25550 -10.25547
 Alpha  occ. eigenvalues --  -10.25520 -10.25462 -10.25332 -10.25297 -10.25269
 Alpha  occ. eigenvalues --  -10.25061 -10.24949 -10.24857 -10.24804 -10.24504
 Alpha  occ. eigenvalues --  -10.24406 -10.24392 -10.24333 -10.23850 -10.23760
 Alpha  occ. eigenvalues --  -10.23519 -10.23467 -10.23354 -10.22486 -10.22356
 Alpha  occ. eigenvalues --   -3.13674  -1.88378  -1.87925  -1.87838  -1.23448
 Alpha  occ. eigenvalues --   -1.18646  -1.08855  -1.08835  -1.06980  -1.06556
 Alpha  occ. eigenvalues --   -1.03521  -1.03062  -1.01800  -0.93347  -0.91849
 Alpha  occ. eigenvalues --   -0.91429  -0.90301  -0.90078  -0.89663  -0.89579
 Alpha  occ. eigenvalues --   -0.88438  -0.88146  -0.87490  -0.86959  -0.86817
 Alpha  occ. eigenvalues --   -0.85457  -0.84949  -0.84464  -0.83661  -0.83438
 Alpha  occ. eigenvalues --   -0.82649  -0.81581  -0.80853  -0.80469  -0.78446
 Alpha  occ. eigenvalues --   -0.78364  -0.77906  -0.76779  -0.76510  -0.76397
 Alpha  occ. eigenvalues --   -0.76100  -0.75339  -0.74988  -0.73784  -0.73192
 Alpha  occ. eigenvalues --   -0.72249  -0.71538  -0.70703  -0.69184  -0.68444
 Alpha  occ. eigenvalues --   -0.67379  -0.67189  -0.66005  -0.65433  -0.65296
 Alpha  occ. eigenvalues --   -0.64564  -0.63736  -0.63648  -0.63647  -0.62541
 Alpha  occ. eigenvalues --   -0.61976  -0.60655  -0.60269  -0.60088  -0.59616
 Alpha  occ. eigenvalues --   -0.59100  -0.58432  -0.58398  -0.57814  -0.57112
 Alpha  occ. eigenvalues --   -0.56549  -0.56082  -0.55816  -0.55594  -0.55028
 Alpha  occ. eigenvalues --   -0.54899  -0.54576  -0.54471  -0.54215  -0.54078
 Alpha  occ. eigenvalues --   -0.53758  -0.53354  -0.52918  -0.52666  -0.51974
 Alpha  occ. eigenvalues --   -0.51832  -0.51217  -0.51138  -0.51021  -0.50906
 Alpha  occ. eigenvalues --   -0.50583  -0.50279  -0.50075  -0.50013  -0.49829
 Alpha  occ. eigenvalues --   -0.49669  -0.49188  -0.49061  -0.48930  -0.48793
 Alpha  occ. eigenvalues --   -0.48489  -0.48174  -0.48147  -0.47754  -0.47421
 Alpha  occ. eigenvalues --   -0.47168  -0.46989  -0.46840  -0.46352  -0.46231
 Alpha  occ. eigenvalues --   -0.46034  -0.45932  -0.45754  -0.45278  -0.45230
 Alpha  occ. eigenvalues --   -0.45136  -0.44973  -0.44970  -0.44567  -0.44436
 Alpha  occ. eigenvalues --   -0.44326  -0.44068  -0.43805  -0.43688  -0.43493
 Alpha  occ. eigenvalues --   -0.43369  -0.43324  -0.42907  -0.42679  -0.42583
 Alpha  occ. eigenvalues --   -0.42380  -0.42220  -0.41680  -0.41599  -0.41428
 Alpha  occ. eigenvalues --   -0.41271  -0.40880  -0.40635  -0.40495  -0.40400
 Alpha  occ. eigenvalues --   -0.40297  -0.40088  -0.39391  -0.39300  -0.39100
 Alpha  occ. eigenvalues --   -0.39058  -0.38573  -0.38441  -0.38357  -0.38030
 Alpha  occ. eigenvalues --   -0.37997  -0.37517  -0.37365  -0.37112  -0.36573
 Alpha  occ. eigenvalues --   -0.36353  -0.36173  -0.35979  -0.35816  -0.35604
 Alpha  occ. eigenvalues --   -0.35247  -0.35012  -0.34057  -0.33762  -0.33580
 Alpha  occ. eigenvalues --   -0.33114  -0.32490  -0.32292  -0.30689  -0.29949
 Alpha  occ. eigenvalues --   -0.29799  -0.29512  -0.28417  -0.27761  -0.23209
 Alpha  occ. eigenvalues --   -0.20877
 Alpha virt. eigenvalues --   -0.05344  -0.03400   0.01060   0.03322   0.05717
 Alpha virt. eigenvalues --    0.05825   0.05911   0.06185   0.06685   0.07359
 Alpha virt. eigenvalues --    0.08388   0.10565   0.11197   0.11796   0.12309

 Mulliken charges:
               1
     1  Mg   0.833526
     2  C    0.108551
     3  C   -0.218715
     4  C   -0.114749
     5  C   -0.188806
     6  N   -0.602330
     7  C    0.290592
     8  C   -0.156514
     9  C   -0.139764
    10  C    0.331930
    11  C   -0.292776
    12  C   -0.204096
    13  C   -0.262558
    14  C    0.606025
    15  O   -0.500365
    16  O   -0.392058
    17  N   -0.709245
    18  C    0.361313
    19  C   -0.029686
    20  C    0.027624
    21  C    0.244968
    22  C   -0.343447
    23  C   -0.094677
    24  C   -0.251258
    25  N   -0.675179
    26  C    0.262977
    27  C    0.069814
    28  C   -0.007502
    29  C    0.248353
    30  C   -0.392631
    31  C   -0.194256
    32  C   -0.311769
    33  N   -0.751768
    34  C    0.301758
    35  C   -0.043977
    36  C    0.080967
    37  C    0.276055
    38  C   -0.349456
    39  C    0.345462
    40  O   -0.508795
    41  C   -0.337614
    42  C    0.638494
    43  O   -0.480364
    44  O   -0.435010
    45  C   -0.085737
    46  C    0.009763
    47  C   -0.161073
    48  C    0.149294
    49  C   -0.358390
    50  C   -0.231522
    51  C   -0.164989
    52  C   -0.185842
    53  C   -0.080421
    54  C   -0.328577
    55  C   -0.181952
    56  C   -0.182570
    57  C   -0.159313
    58  C   -0.076951
    59  C   -0.285007
    60  C   -0.176083
    61  C   -0.147955
    62  C   -0.163448
    63  C   -0.054365
    64  C   -0.307273
    65  C   -0.305235
    66  H    0.065044
    67  H    0.057317
    68  H    0.092855
    69  H    0.122375
    70  H    0.094445
    71  H    0.110935
    72  H    0.093722
    73  H    0.134960
    74  H    0.125843
    75  H    0.083071
    76  H    0.133772
    77  H    0.135160
    78  H    0.130957
    79  H    0.128238
    80  H    0.115895
    81  H    0.111662
    82  H    0.095758
    83  H    0.114867
    84  H    0.113144
    85  H    0.102458
    86  H    0.126322
    87  H    0.108398
    88  H    0.094598
    89  H    0.087077
    90  H    0.119592
    91  H    0.121877
    92  H    0.109860
    93  H    0.157591
    94  H    0.138160
    95  H    0.169221
    96  H    0.115310
    97  H    0.136832
    98  H    0.127499
    99  H    0.143170
   100  H    0.117532
   101  H    0.080681
   102  H    0.108056
   103  H    0.097568
   104  H    0.122112
   105  H    0.072121
   106  H    0.071649
   107  H    0.108186
   108  H    0.106539
   109  H    0.081167
   110  H    0.101250
   111  H    0.082707
   112  H    0.102486
   113  H    0.107830
   114  H    0.086294
   115  H    0.083757
   116  H    0.099729
   117  H    0.103761
   118  H    0.099859
   119  H    0.097042
   120  H    0.105679
   121  H    0.068056
   122  H    0.075362
   123  H    0.096222
   124  H    0.111021
   125  H    0.090003
   126  H    0.047318
   127  H    0.043890
   128  H    0.106926
   129  H    0.091563
   130  H    0.078687
   131  H    0.093220
   132  H    0.096807
   133  H    0.090278
   134  H    0.114043
   135  H    0.088663
   136  H    0.086186
   137  H    0.106367
 Sum of Mulliken charges =   0.00000

 Dipole moment (field-independent basis, Debye):
    X=              1.7681    Y=              4.8286    Z=              0.4363  Tot=              5.1606
 Quadrupole moment (field-independent basis, Debye-Ang):
   XX=           -346.8555   YY=           -395.7599   ZZ=           -395.7868
   XY=            -24.1410   XZ=              6.2921   YZ=             -2.1633

 Normal termination of Gaussian 09 at Sat Jul  6 01:40:34 2019.
