 Gaussian 09, Revision D.01,
 Gaussian 09:  ES64L-G09RevD.01 24-Apr-2013

 -------------------------------------
 # td=(NStates=1) CAM-B3LYP/6-31G(d,p)
 -------------------------------------

 --
 TD
 --
 Symbolic Z-matrix:
 Charge =  0 Multiplicity = 1

                         Standard orientation:
 ---------------------------------------------------------------------
 Center     Atomic      Atomic             Coordinates (Angstroms)
 Number     Number       Type             X           Y           Z
 ---------------------------------------------------------------------
      1         12           0       -7.099862    0.615238    0.069920
      2          6           0       -4.907178   -1.992582    0.451307
      3          6           0       -4.853195    2.753850    1.107034
      4          6           0       -9.447606    3.076985   -0.324510
      5          6           0       -9.599160   -1.746220   -0.899794
      6          7           0       -5.033915    0.374152    0.624911
      7          6           0       -4.385019   -0.731198    0.756119
      8          6           0       -2.955779   -0.491595    1.237801
      9          6           0       -3.031715    1.061711    1.534433
     10          6           0       -4.393680    1.486197    1.126804
     11          6           0       -2.870660    1.295141    3.073229
     12          6           0       -1.888953   -0.649627    0.094653
     13          6           0       -0.440250   -0.551223    0.477226
     14          6           0        0.540407   -0.762880   -0.693748
     15          8           0        0.319056   -1.085370   -1.823731
     16          8           0        1.749965   -0.498695   -0.203348
     17          7           0       -7.216108    2.605736    0.387739
     18          6           0       -6.079546    3.284132    0.788359
     19          6           0       -6.435704    4.791260    0.786111
     20          6           0       -7.723227    4.836176    0.336614
     21          6           0       -8.141335    3.521842    0.046372
     22          6           0       -5.507502    5.874956    1.138295
     23          6           0       -8.558061    6.071800    0.057200
     24          6           0       -8.543925    7.137373    0.905242
     25          7           0       -9.054985    0.692465   -0.656707
     26          6           0       -9.869195    1.861166   -0.632243
     27          6           0      -11.168874    1.484177   -1.069552
     28          6           0      -11.242190    0.204619   -1.207422
     29          6           0       -9.903209   -0.361499   -0.899502
     30          6           0      -12.366959    2.555406   -1.219522
     31          6           0      -12.415304   -0.621294   -1.603365
     32          6           0      -12.412489   -0.982703   -3.035375
     33          7           0       -7.164133   -1.451390   -0.243160
     34          6           0       -8.334724   -2.275628   -0.620411
     35          6           0       -7.943348   -3.624148   -0.457390
     36          6           0       -6.587613   -3.619554   -0.104170
     37          6           0       -6.252998   -2.197791    0.121127
     38          6           0       -8.702524   -4.855508   -0.775396
     39          6           0       -5.373955   -4.440212    0.189273
     40          8           0       -5.295655   -5.607378    0.210117
     41          6           0       -4.203342   -3.362571    0.539409
     42          6           0       -3.574395   -3.615162    1.889370
     43          8           0       -3.794408   -3.115898    3.006164
     44          8           0       -2.716626   -4.685076    1.796374
     45          6           0       -2.218608   -5.141107    3.037730
     46          6           0        2.855529   -0.595851   -1.252878
     47          6           0        4.078790   -0.430358   -0.574324
     48          6           0        5.082449    0.347069   -1.109181
     49          6           0        5.228749    1.298796   -2.249439
     50          6           0        6.369748    0.334868   -0.196212
     51          6           0        7.582181   -0.156532   -1.064124
     52          6           0        8.919181    0.022696   -0.261996
     53          6           0       10.168381   -0.561536   -0.936027
     54          6           0       10.194569   -2.057835   -1.288650
     55          6           0       11.427987   -0.250862   -0.018930
     56          6           0       12.834352   -0.477618   -0.733930
     57          6           0       13.968611   -0.100104    0.153934
     58          6           0       15.339163    0.068177   -0.494574
     59          6           0       15.703677   -1.372731   -1.060392
     60          6           0       16.481415    0.479525    0.573931
     61          6           0       17.891974    0.382891    0.002179
     62          6           0       18.876847    1.132961    0.918547
     63          6           0       20.358816    1.229384    0.326885
     64          6           0       20.383163    1.885014   -1.018625
     65          6           0       21.240708    2.081996    1.351799
     66          1           0       -4.389012    3.631757    1.738346
     67          1           0      -10.238121    3.930103   -0.570220
     68          1           0      -10.368794   -2.348170   -1.053302
     69          1           0       -2.838287   -1.082406    2.242492
     70          1           0       -2.201106    1.625592    1.052655
     71          1           0       -1.794771    0.841962    3.288277
     72          1           0       -2.965785    2.285699    3.240023
     73          1           0       -3.501765    0.882883    3.731454
     74          1           0       -2.005833   -1.632139   -0.205572
     75          1           0       -2.092007    0.028508   -0.714825
     76          1           0       -0.043688    0.518721    0.709385
     77          1           0       -0.122642   -1.191824    1.352929
     78          1           0       -5.729871    6.674594    0.524045
     79          1           0       -5.717592    6.301049    2.089845
     80          1           0       -4.584095    5.501297    0.991517
     81          1           0       -9.122934    5.841267   -0.826723
     82          1           0       -8.999723    7.796572    0.599357
     83          1           0       -7.744626    7.160206    1.555614
     84          1           0      -11.832139    3.404634   -2.020134
     85          1           0      -13.217273    1.962303   -1.575563
     86          1           0      -12.560265    3.190635   -0.378744
     87          1           0      -12.445182   -1.747449   -1.000323
     88          1           0      -13.256976   -0.269092   -1.068083
     89          1           0      -13.151242   -1.603592   -3.305403
     90          1           0      -12.353142   -0.311507   -3.980108
     91          1           0      -11.339204   -1.334058   -3.341176
     92          1           0       -9.349653   -4.847500   -1.729605
     93          1           0       -7.995344   -5.876665   -1.059374
     94          1           0       -9.433670   -4.928664    0.062433
     95          1           0       -3.414099   -3.527747   -0.195615
     96          1           0       -1.717591   -4.479387    3.620386
     97          1           0       -3.060182   -5.535416    3.564765
     98          1           0       -1.747758   -5.986724    2.700380
     99          1           0        2.800160   -1.655067   -1.563982
    100          1           0        2.746429    0.158558   -2.056363
    101          1           0        4.016065   -1.049206    0.256016
    102          1           0        4.400086    1.355813   -2.897874
    103          1           0        5.721753    2.218631   -2.039191
    104          1           0        5.895735    0.873064   -3.159198
    105          1           0        6.414138    1.389590    0.267294
    106          1           0        6.232762   -0.303274    0.721626
    107          1           0        7.406420   -1.170052   -1.375378
    108          1           0        7.811763    0.484297   -1.962918
    109          1           0        9.200090    1.021457    0.003384
    110          1           0        8.893532   -0.665287    0.519138
    111          1           0       10.424424    0.062527   -1.865744
    112          1           0        9.458982   -2.338364   -2.033864
    113          1           0       11.183676   -2.363365   -1.667593
    114          1           0        9.929673   -2.661053   -0.576306
    115          1           0       11.592754    0.816468    0.185639
    116          1           0       11.441089   -0.909476    0.766757
    117          1           0       12.995697   -1.523371   -0.990609
    118          1           0       13.087888    0.123884   -1.730544
    119          1           0       13.642563    0.910282    0.703717
    120          1           0       14.288808   -0.784226    1.084181
    121          1           0       15.342107    0.899404   -1.402802
    122          1           0       15.465727   -2.161517   -0.155824
    123          1           0       14.790819   -1.697385   -1.899416
    124          1           0       16.743838   -1.557868   -1.400648
    125          1           0       16.080654    1.559354    1.067027
    126          1           0       16.236420   -0.356100    1.362948
    127          1           0       18.173580   -0.615672    0.057314
    128          1           0       17.902996    0.694066   -1.076727
    129          1           0       18.667053    2.326257    1.139239
    130          1           0       18.918949    0.832391    2.027500
    131          1           0       20.772775    0.318466    0.296086
    132          1           0       19.887280    2.867544   -1.223933
    133          1           0       21.395653    1.821098   -1.288802
    134          1           0       19.929296    1.140432   -1.857160
    135          1           0       21.451178    1.636086    2.369789
    136          1           0       22.307913    2.045221    0.984623
    137          1           0       20.900477    3.185233    1.544508
 ---------------------------------------------------------------------

 SCF Done:  E(RCAM-B3LYP) =  -2932.58681240     A.U. after   17 cycles

 Excitation energies and oscillator strengths:

 Excited State   1:      Singlet-A      1.9677 eV  630.08 nm  f=0.2838  <S**2>=0.000
     240 -> 243        0.21768
     241 -> 242        0.66936
 This state for optimization and/or second-order correction.
 Total Energy, E(TD-HF/TD-KS) =  -2932.51449897
 Copying the excited state density for this state as the 1-particle RhoCI density.

 The electronic state is 1-A.
 Alpha  occ. eigenvalues --  -46.84828 -19.25486 -19.25345 -19.21299 -19.20851
 Alpha  occ. eigenvalues --  -19.20293 -14.41414 -14.39309 -14.39292 -14.38918
 Alpha  occ. eigenvalues --  -10.39205 -10.38241 -10.35825 -10.31054 -10.30275
 Alpha  occ. eigenvalues --  -10.30220 -10.29756 -10.29616 -10.29239 -10.28944
 Alpha  occ. eigenvalues --  -10.28642 -10.28517 -10.28465 -10.28422 -10.28054
 Alpha  occ. eigenvalues --  -10.28040 -10.27916 -10.27866 -10.27863 -10.27768
 Alpha  occ. eigenvalues --  -10.27665 -10.27580 -10.27516 -10.27502 -10.27319
 Alpha  occ. eigenvalues --  -10.27262 -10.27188 -10.26962 -10.26887 -10.26804
 Alpha  occ. eigenvalues --  -10.26561 -10.26522 -10.26309 -10.26306 -10.26280
 Alpha  occ. eigenvalues --  -10.26160 -10.26089 -10.25866 -10.25817 -10.25774
 Alpha  occ. eigenvalues --  -10.25739 -10.25706 -10.25529 -10.25509 -10.25481
 Alpha  occ. eigenvalues --  -10.25473 -10.25316 -10.25163 -10.25081 -10.24919
 Alpha  occ. eigenvalues --  -10.24293 -10.24197 -10.24135 -10.23572 -10.23260
 Alpha  occ. eigenvalues --   -3.13722  -1.88447  -1.87948  -1.87889  -1.17598
 Alpha  occ. eigenvalues --   -1.17259  -1.14192  -1.08686  -1.07595  -1.05654
 Alpha  occ. eigenvalues --   -1.04288  -1.03264  -1.01791  -0.91564  -0.91233
 Alpha  occ. eigenvalues --   -0.90064  -0.89486  -0.89291  -0.89215  -0.88963
 Alpha  occ. eigenvalues --   -0.88623  -0.88350  -0.87752  -0.87532  -0.85857
 Alpha  occ. eigenvalues --   -0.85192  -0.84350  -0.83797  -0.83489  -0.82821
 Alpha  occ. eigenvalues --   -0.81697  -0.81621  -0.80699  -0.79567  -0.78992
 Alpha  occ. eigenvalues --   -0.78006  -0.76881  -0.76673  -0.76320  -0.75294
 Alpha  occ. eigenvalues --   -0.74901  -0.74455  -0.72985  -0.72570  -0.72466
 Alpha  occ. eigenvalues --   -0.72028  -0.70610  -0.70112  -0.68632  -0.68404
 Alpha  occ. eigenvalues --   -0.67354  -0.66347  -0.65521  -0.64605  -0.64060
 Alpha  occ. eigenvalues --   -0.63889  -0.62994  -0.62949  -0.62818  -0.62216
 Alpha  occ. eigenvalues --   -0.60864  -0.60774  -0.60050  -0.59937  -0.59244
 Alpha  occ. eigenvalues --   -0.58779  -0.58139  -0.57642  -0.57472  -0.56941
 Alpha  occ. eigenvalues --   -0.56481  -0.55825  -0.55427  -0.55288  -0.55062
 Alpha  occ. eigenvalues --   -0.54262  -0.54104  -0.53656  -0.53369  -0.53272
 Alpha  occ. eigenvalues --   -0.53109  -0.53005  -0.52567  -0.52116  -0.51756
 Alpha  occ. eigenvalues --   -0.51524  -0.51178  -0.51155  -0.50864  -0.50355
 Alpha  occ. eigenvalues --   -0.50160  -0.49972  -0.49842  -0.49678  -0.49497
 Alpha  occ. eigenvalues --   -0.49463  -0.49200  -0.48973  -0.48895  -0.48769
 Alpha  occ. eigenvalues --   -0.48660  -0.48305  -0.48043  -0.47585  -0.47505
 Alpha  occ. eigenvalues --   -0.47278  -0.46990  -0.46583  -0.46425  -0.46090
 Alpha  occ. eigenvalues --   -0.45858  -0.45716  -0.45541  -0.45429  -0.45213
 Alpha  occ. eigenvalues --   -0.45064  -0.44721  -0.44565  -0.44548  -0.44261
 Alpha  occ. eigenvalues --   -0.44074  -0.43902  -0.43656  -0.43447  -0.43400
 Alpha  occ. eigenvalues --   -0.42999  -0.42621  -0.42390  -0.42224  -0.42088
 Alpha  occ. eigenvalues --   -0.41820  -0.41762  -0.41643  -0.41606  -0.41430
 Alpha  occ. eigenvalues --   -0.41168  -0.41028  -0.40879  -0.40517  -0.40416
 Alpha  occ. eigenvalues --   -0.40253  -0.39451  -0.39417  -0.39386  -0.39229
 Alpha  occ. eigenvalues --   -0.38747  -0.38232  -0.37879  -0.37610  -0.37551
 Alpha  occ. eigenvalues --   -0.37008  -0.36628  -0.36258  -0.36230  -0.36174
 Alpha  occ. eigenvalues --   -0.36131  -0.35863  -0.35694  -0.35375  -0.35106
 Alpha  occ. eigenvalues --   -0.35011  -0.34538  -0.34106  -0.33566  -0.33146
 Alpha  occ. eigenvalues --   -0.32988  -0.32652  -0.32570  -0.31297  -0.30153
 Alpha  occ. eigenvalues --   -0.29695  -0.29140  -0.28612  -0.27723  -0.23217
 Alpha  occ. eigenvalues --   -0.20543
 Alpha virt. eigenvalues --   -0.06563  -0.02206   0.02368   0.04113   0.04836
 Alpha virt. eigenvalues --    0.05265   0.06077   0.06456   0.07343   0.08150
 Alpha virt. eigenvalues --    0.08813   0.10506   0.11445   0.11670   0.11727

 Mulliken charges:
               1
     1  Mg   0.809883
     2  C    0.040673
     3  C   -0.194990
     4  C   -0.202783
     5  C   -0.130178
     6  N   -0.643422
     7  C    0.327589
     8  C   -0.183870
     9  C   -0.169448
    10  C    0.353714
    11  C   -0.305712
    12  C   -0.157912
    13  C   -0.273141
    14  C    0.607368
    15  O   -0.475655
    16  O   -0.500270
    17  N   -0.700594
    18  C    0.283934
    19  C   -0.020757
    20  C    0.003721
    21  C    0.274498
    22  C   -0.369432
    23  C   -0.081851
    24  C   -0.175071
    25  N   -0.697863
    26  C    0.311664
    27  C    0.045101
    28  C    0.009103
    29  C    0.289145
    30  C   -0.339723
    31  C   -0.232508
    32  C   -0.302002
    33  N   -0.703789
    34  C    0.246969
    35  C    0.015114
    36  C   -0.028655
    37  C    0.343398
    38  C   -0.373371
    39  C    0.383362
    40  O   -0.409088
    41  C   -0.315826
    42  C    0.618096
    43  O   -0.498733
    44  O   -0.462710
    45  C   -0.070987
    46  C    0.008126
    47  C   -0.109421
    48  C    0.102317
    49  C   -0.366747
    50  C   -0.224090
    51  C   -0.180155
    52  C   -0.161253
    53  C   -0.078666
    54  C   -0.325364
    55  C   -0.174856
    56  C   -0.193020
    57  C   -0.142656
    58  C   -0.065364
    59  C   -0.290948
    60  C   -0.151799
    61  C   -0.176506
    62  C   -0.164141
    63  C   -0.049969
    64  C   -0.294604
    65  C   -0.322775
    66  H    0.088615
    67  H    0.076659
    68  H    0.078017
    69  H    0.138488
    70  H    0.108872
    71  H    0.084863
    72  H    0.108597
    73  H    0.129869
    74  H    0.119140
    75  H    0.124605
    76  H    0.122690
    77  H    0.133910
    78  H    0.131338
    79  H    0.128912
    80  H    0.119221
    81  H    0.099825
    82  H    0.072235
    83  H    0.094510
    84  H    0.081721
    85  H    0.118898
    86  H    0.136795
    87  H    0.065234
    88  H    0.114813
    89  H    0.118224
    90  H    0.099005
    91  H    0.101370
    92  H    0.115283
    93  H    0.126367
    94  H    0.131104
    95  H    0.164222
    96  H    0.131171
    97  H    0.125266
    98  H    0.123126
    99  H    0.132647
   100  H    0.119053
   101  H    0.105041
   102  H    0.121126
   103  H    0.138815
   104  H    0.107711
   105  H    0.092196
   106  H    0.098625
   107  H    0.106918
   108  H    0.093528
   109  H    0.099159
   110  H    0.094576
   111  H    0.066261
   112  H    0.096943
   113  H    0.107708
   114  H    0.112338
   115  H    0.093651
   116  H    0.106560
   117  H    0.101182
   118  H    0.081600
   119  H    0.060646
   120  H    0.068610
   121  H    0.059533
   122  H    0.075161
   123  H    0.073465
   124  H    0.107900
   125  H    0.070452
   126  H    0.076220
   127  H    0.116159
   128  H    0.106332
   129  H    0.058217
   130  H    0.087808
   131  H    0.099691
   132  H    0.110791
   133  H    0.109806
   134  H    0.068717
   135  H    0.094844
   136  H    0.089716
   137  H    0.096227
 Sum of Mulliken charges =   0.00000

 Dipole moment (field-independent basis, Debye):
    X=              1.9984    Y=              3.2889    Z=             -0.2467  Tot=              3.8563
 Quadrupole moment (field-independent basis, Debye-Ang):
   XX=           -334.0941   YY=           -392.5657   ZZ=           -398.7041
   XY=            -20.7041   XZ=              7.2363   YZ=             -2.7031

 Normal termination of Gaussian 09 at Sat Jul  6 02:40:42 2019.
