 Gaussian 16, Revision A.03,
 Gaussian 16:  ES64L-G16RevA.03 25-Dec-2016

 ----------------------------------------------------------------------
 # td=(NStates=1) iop(3/107=0140000000,3/108=0140000000) CAM-B3LYP/6-31
 G(d,p)
 ----------------------------------------------------------------------

 --
 TD
 --
 Symbolic Z-matrix:
 Charge =  0 Multiplicity = 1

                         Standard orientation:
 ---------------------------------------------------------------------
 Center     Atomic      Atomic             Coordinates (Angstroms)
 Number     Number       Type             X           Y           Z
 ---------------------------------------------------------------------
      1         12           0       -7.112460    0.562532    0.106926
      2          6           0       -4.836080   -2.002421    0.437634
      3          6           0       -4.733417    2.865401    1.236383
      4          6           0       -9.366785    3.148830   -0.355736
      5          6           0       -9.595022   -1.740779   -0.760779
      6          7           0       -5.059592    0.397289    0.708635
      7          6           0       -4.364528   -0.829595    0.764033
      8          6           0       -2.917689   -0.460415    1.163146
      9          6           0       -3.077874    1.028264    1.681267
     10          6           0       -4.357143    1.516009    1.130607
     11          6           0       -2.937226    1.106371    3.212524
     12          6           0       -1.939514   -0.612756    0.022139
     13          6           0       -0.476780   -0.611788    0.484865
     14          6           0        0.449718   -0.693551   -0.582735
     15          8           0        0.166570   -1.182397   -1.721845
     16          8           0        1.790287   -0.256196   -0.256471
     17          7           0       -7.021506    2.733693    0.309912
     18          6           0       -5.915190    3.388625    0.802517
     19          6           0       -6.315964    4.830914    0.824415
     20          6           0       -7.598240    4.909910    0.258167
     21          6           0       -8.028573    3.596215    0.001230
     22          6           0       -5.438226    5.931420    1.230402
     23          6           0       -8.306332    6.000114   -0.035447
     24          6           0       -8.385086    7.295524    0.511404
     25          7           0       -9.130247    0.750035   -0.516913
     26          6           0       -9.763895    1.877087   -0.606961
     27          6           0      -11.167101    1.547066   -0.959273
     28          6           0      -11.245029    0.214118   -1.116730
     29          6           0       -9.901224   -0.368211   -0.765122
     30          6           0      -12.271334    2.591933   -1.110752
     31          6           0      -12.395683   -0.678055   -1.621468
     32          6           0      -12.358044   -1.021256   -3.129046
     33          7           0       -7.232190   -1.469658   -0.205465
     34          6           0       -8.254595   -2.269337   -0.588925
     35          6           0       -7.885059   -3.660910   -0.521298
     36          6           0       -6.507776   -3.613349   -0.268737
     37          6           0       -6.147387   -2.230202   -0.126840
     38          6           0       -8.666778   -4.912883   -0.723638
     39          6           0       -5.366311   -4.404126    0.068127
     40          8           0       -5.216624   -5.607493    0.056700
     41          6           0       -4.137910   -3.407821    0.562102
     42          6           0       -3.603251   -3.763956    1.801699
     43          8           0       -3.819728   -3.209943    2.940116
     44          8           0       -2.802681   -4.751577    1.724752
     45          6           0       -2.221385   -5.263556    2.974301
     46          6           0        2.769200   -0.603891   -1.270328
     47          6           0        4.119826   -0.327242   -0.567029
     48          6           0        5.040827    0.496081   -0.932545
     49          6           0        5.100161    1.128080   -2.337173
     50          6           0        6.420961    0.507504   -0.204647
     51          6           0        7.630160   -0.275075   -1.046726
     52          6           0        8.892442   -0.020850   -0.253406
     53          6           0       10.149204   -0.470452   -0.933283
     54          6           0       10.086013   -1.893578   -1.453604
     55          6           0       11.390077   -0.269572   -0.053597
     56          6           0       12.792583   -0.377028   -0.696280
     57          6           0       13.933143   -0.259895    0.204213
     58          6           0       15.298192   -0.281666   -0.494340
     59          6           0       15.601618   -1.620489   -1.085594
     60          6           0       16.451413    0.346062    0.533246
     61          6           0       17.787168    0.570597   -0.160264
     62          6           0       18.799630    1.215026    0.831140
     63          6           0       20.219341    1.344886    0.319015
     64          6           0       20.237447    2.205002   -0.982202
     65          6           0       21.233323    1.833174    1.509719
     66          1           0       -3.927383    3.575503    1.689032
     67          1           0      -10.015092    3.808936   -0.631124
     68          1           0      -10.451242   -2.410965   -1.039069
     69          1           0       -2.582355   -1.114060    2.052240
     70          1           0       -2.010615    1.653121    1.316290
     71          1           0       -2.077267    0.871170    3.560682
     72          1           0       -3.194968    2.145038    3.671931
     73          1           0       -3.555490    0.483683    3.935488
     74          1           0       -2.147494   -1.582358   -0.598315
     75          1           0       -2.159465    0.364382   -0.538244
     76          1           0       -0.231320    0.215698    1.306105
     77          1           0       -0.345978   -1.642856    0.991486
     78          1           0       -5.600349    6.820056    0.580230
     79          1           0       -5.552945    6.164571    2.358907
     80          1           0       -4.344305    5.685862    1.192402
     81          1           0       -8.999603    5.825250   -0.761270
     82          1           0       -9.122406    8.043471    0.316308
     83          1           0       -7.947684    7.570874    1.595366
     84          1           0      -12.048808    3.046748   -2.183098
     85          1           0      -13.405059    2.214876   -1.012550
     86          1           0      -12.140155    3.377306   -0.379587
     87          1           0      -12.506149   -1.669696   -0.987812
     88          1           0      -13.228229    0.053654   -1.475830
     89          1           0      -13.362284   -1.613244   -3.181616
     90          1           0      -12.634773   -0.152797   -3.748630
     91          1           0      -11.607237   -1.571230   -3.536095
     92          1           0       -9.033283   -4.865818   -1.678873
     93          1           0       -8.199806   -5.868101   -0.198199
     94          1           0       -9.607933   -4.844089   -0.050215
     95          1           0       -3.176533   -3.599337   -0.134873
     96          1           0       -1.906310   -4.416826    3.506207
     97          1           0       -3.194061   -5.784148    3.499418
     98          1           0       -1.412229   -5.984059    2.805538
     99          1           0        2.892258   -1.586659   -1.675275
    100          1           0        2.712392    0.010797   -2.139341
    101          1           0        4.282593   -0.810640    0.238387
    102          1           0        3.967156    1.371009   -2.536971
    103          1           0        5.699554    2.001574   -2.068861
    104          1           0        5.642812    0.639671   -3.034566
    105          1           0        6.857994    1.516828   -0.089178
    106          1           0        6.579392   -0.041258    0.699405
    107          1           0        7.282141   -1.310169   -0.842987
    108          1           0        7.720866    0.145575   -2.099294
    109          1           0        8.927298    0.960924    0.048909
    110          1           0        8.856701   -0.767701    0.738960
    111          1           0       10.261878    0.068912   -1.770763
    112          1           0        9.264114   -1.896274   -2.224446
    113          1           0       10.958526   -1.964208   -1.947447
    114          1           0        9.794795   -2.740757   -0.591854
    115          1           0       11.533085    0.701254    0.382743
    116          1           0       11.284258   -1.013218    0.836429
    117          1           0       12.881470   -1.233323   -1.237354
    118          1           0       12.998861    0.360242   -1.722120
    119          1           0       13.794151    0.757625    0.807647
    120          1           0       14.038289   -1.091765    0.894969
    121          1           0       15.245321    0.476659   -1.249584
    122          1           0       15.932613   -2.498601   -0.113711
    123          1           0       14.684253   -1.906039   -1.349380
    124          1           0       16.557863   -1.720560   -1.908736
    125          1           0       16.100113    1.285787    0.780243
    126          1           0       16.553715   -0.281264    1.440943
    127          1           0       18.012256   -0.470002   -0.313484
    128          1           0       17.833699    1.180633   -0.945002
    129          1           0       18.253275    2.203979    1.308868
    130          1           0       18.871291    0.419648    1.751880
    131          1           0       20.612489    0.479332   -0.042868
    132          1           0       19.721272    3.201364   -0.919212
    133          1           0       21.289229    2.486346   -1.461074
    134          1           0       19.613600    1.492245   -1.635284
    135          1           0       21.062488    1.236857    2.359521
    136          1           0       22.217193    1.910991    1.157768
    137          1           0       20.929132    2.757471    2.008822
 ---------------------------------------------------------------------

 SCF Done:  E(RCAM-B3LYP) =  -2933.42844029     A.U. after   16 cycles

 Excitation energies and oscillator strengths:

 Excited State   1:      Singlet-A      1.9957 eV  621.27 nm  f=0.3308  <S**2>=0.000
     240 -> 243        0.18989
     241 -> 242        0.67750
 This state for optimization and/or second-order correction.
 Total Energy, E(TD-HF/TD-DFT) =  -2933.35510136
 Copying the excited state density for this state as the 1-particle RhoCI density.

 The electronic state is 1-A.
 Alpha  occ. eigenvalues --  -46.81697 -19.22336 -19.22104 -19.17070 -19.15956
 Alpha  occ. eigenvalues --  -19.13830 -14.38329 -14.35990 -14.35510 -14.35351
 Alpha  occ. eigenvalues --  -10.35156 -10.33038 -10.30581 -10.27978 -10.27530
 Alpha  occ. eigenvalues --  -10.26511 -10.25908 -10.25830 -10.25720 -10.25351
 Alpha  occ. eigenvalues --  -10.25232 -10.25231 -10.25115 -10.24769 -10.24686
 Alpha  occ. eigenvalues --  -10.24637 -10.24367 -10.23808 -10.23706 -10.23666
 Alpha  occ. eigenvalues --  -10.23642 -10.23450 -10.23302 -10.23218 -10.23157
 Alpha  occ. eigenvalues --  -10.23009 -10.22997 -10.22608 -10.22521 -10.22438
 Alpha  occ. eigenvalues --  -10.22138 -10.22090 -10.21903 -10.21846 -10.21687
 Alpha  occ. eigenvalues --  -10.21638 -10.21631 -10.21535 -10.21517 -10.21513
 Alpha  occ. eigenvalues --  -10.21497 -10.21426 -10.21264 -10.21214 -10.21139
 Alpha  occ. eigenvalues --  -10.21091 -10.20939 -10.20900 -10.20809 -10.20735
 Alpha  occ. eigenvalues --  -10.20354 -10.20090 -10.19175 -10.19111 -10.18893
 Alpha  occ. eigenvalues --   -3.09897  -1.84879  -1.84323  -1.84306  -1.14531
 Alpha  occ. eigenvalues --   -1.09529  -1.06059  -1.02106  -1.00283  -0.99480
 Alpha  occ. eigenvalues --   -0.99295  -0.98443  -0.97339  -0.87245  -0.86504
 Alpha  occ. eigenvalues --   -0.85533  -0.85388  -0.85023  -0.84411  -0.84103
 Alpha  occ. eigenvalues --   -0.83272  -0.83139  -0.82849  -0.82368  -0.81161
 Alpha  occ. eigenvalues --   -0.80371  -0.79812  -0.79175  -0.78270  -0.77763
 Alpha  occ. eigenvalues --   -0.77619  -0.76883  -0.76191  -0.75403  -0.74065
 Alpha  occ. eigenvalues --   -0.73299  -0.72581  -0.71828  -0.71233  -0.70991
 Alpha  occ. eigenvalues --   -0.70777  -0.70245  -0.69344  -0.68974  -0.68295
 Alpha  occ. eigenvalues --   -0.67671  -0.66239  -0.65417  -0.64894  -0.64544
 Alpha  occ. eigenvalues --   -0.64069  -0.62357  -0.61541  -0.61195  -0.60537
 Alpha  occ. eigenvalues --   -0.60153  -0.58721  -0.58599  -0.58277  -0.57973
 Alpha  occ. eigenvalues --   -0.57764  -0.56334  -0.56139  -0.55996  -0.55348
 Alpha  occ. eigenvalues --   -0.54997  -0.54391  -0.54084  -0.52939  -0.52559
 Alpha  occ. eigenvalues --   -0.52256  -0.51881  -0.51733  -0.51335  -0.51060
 Alpha  occ. eigenvalues --   -0.50777  -0.50677  -0.50553  -0.50363  -0.49511
 Alpha  occ. eigenvalues --   -0.49050  -0.48634  -0.48356  -0.48110  -0.47991
 Alpha  occ. eigenvalues --   -0.47789  -0.47519  -0.47309  -0.47060  -0.46851
 Alpha  occ. eigenvalues --   -0.46631  -0.46582  -0.46244  -0.46014  -0.45842
 Alpha  occ. eigenvalues --   -0.45787  -0.45476  -0.45329  -0.45153  -0.44812
 Alpha  occ. eigenvalues --   -0.44700  -0.44587  -0.44304  -0.43661  -0.43572
 Alpha  occ. eigenvalues --   -0.43305  -0.43238  -0.43035  -0.42880  -0.42797
 Alpha  occ. eigenvalues --   -0.42636  -0.42360  -0.42010  -0.41717  -0.41563
 Alpha  occ. eigenvalues --   -0.41204  -0.40952  -0.40891  -0.40824  -0.40760
 Alpha  occ. eigenvalues --   -0.40513  -0.40321  -0.40198  -0.40113  -0.39868
 Alpha  occ. eigenvalues --   -0.39722  -0.39448  -0.39216  -0.39010  -0.38860
 Alpha  occ. eigenvalues --   -0.38799  -0.38488  -0.38333  -0.38291  -0.38011
 Alpha  occ. eigenvalues --   -0.37845  -0.37441  -0.37354  -0.37316  -0.36962
 Alpha  occ. eigenvalues --   -0.36839  -0.36758  -0.36141  -0.35822  -0.35577
 Alpha  occ. eigenvalues --   -0.35510  -0.35164  -0.34830  -0.34694  -0.34677
 Alpha  occ. eigenvalues --   -0.34181  -0.33946  -0.33923  -0.33828  -0.33502
 Alpha  occ. eigenvalues --   -0.33316  -0.32957  -0.32661  -0.32501  -0.32272
 Alpha  occ. eigenvalues --   -0.32059  -0.32001  -0.31298  -0.30246  -0.30013
 Alpha  occ. eigenvalues --   -0.29778  -0.29561  -0.29307  -0.27939  -0.27158
 Alpha  occ. eigenvalues --   -0.27042  -0.26535  -0.26164  -0.23942  -0.22465
 Alpha  occ. eigenvalues --   -0.20436
 Alpha virt. eigenvalues --   -0.08044  -0.03579  -0.00573   0.01002   0.01527
 Alpha virt. eigenvalues --    0.03439   0.04229   0.04347   0.04934   0.05636
 Alpha virt. eigenvalues --    0.06395   0.08449   0.08870   0.09438   0.09603

 Mulliken charges:
               1
     1  Mg   0.818774
     2  C    0.109447
     3  C   -0.184724
     4  C   -0.111259
     5  C   -0.167484
     6  N   -0.681103
     7  C    0.301701
     8  C   -0.166623
     9  C   -0.149266
    10  C    0.379314
    11  C   -0.312685
    12  C   -0.150230
    13  C   -0.264286
    14  C    0.633205
    15  O   -0.486371
    16  O   -0.495821
    17  N   -0.722808
    18  C    0.344038
    19  C    0.018941
    20  C    0.089770
    21  C    0.299168
    22  C   -0.393080
    23  C   -0.131236
    24  C   -0.259538
    25  N   -0.730649
    26  C    0.364894
    27  C    0.004460
    28  C    0.018000
    29  C    0.299229
    30  C   -0.377805
    31  C   -0.240545
    32  C   -0.303662
    33  N   -0.682014
    34  C    0.249131
    35  C    0.035831
    36  C    0.030588
    37  C    0.249726
    38  C   -0.379824
    39  C    0.342910
    40  O   -0.459795
    41  C   -0.321430
    42  C    0.634909
    43  O   -0.551727
    44  O   -0.416396
    45  C   -0.080127
    46  C    0.018840
    47  C   -0.097456
    48  C    0.105202
    49  C   -0.354929
    50  C   -0.249454
    51  C   -0.194107
    52  C   -0.137598
    53  C   -0.068119
    54  C   -0.291362
    55  C   -0.161889
    56  C   -0.177410
    57  C   -0.171865
    58  C   -0.059594
    59  C   -0.271557
    60  C   -0.185420
    61  C   -0.176677
    62  C   -0.159242
    63  C   -0.039784
    64  C   -0.314540
    65  C   -0.329691
    66  H    0.099746
    67  H    0.052826
    68  H    0.092753
    69  H    0.113687
    70  H    0.061439
    71  H    0.123706
    72  H    0.087429
    73  H    0.120717
    74  H    0.123138
    75  H    0.107829
    76  H    0.126899
    77  H    0.148013
    78  H    0.130490
    79  H    0.117835
    80  H    0.107679
    81  H    0.087095
    82  H    0.111869
    83  H    0.084772
    84  H    0.113230
    85  H    0.106464
    86  H    0.128772
    87  H    0.095172
    88  H    0.098555
    89  H    0.091465
    90  H    0.113079
    91  H    0.125335
    92  H    0.142110
    93  H    0.145427
    94  H    0.105718
    95  H    0.142785
    96  H    0.149092
    97  H    0.125495
    98  H    0.130303
    99  H    0.132436
   100  H    0.109278
   101  H    0.066792
   102  H    0.103472
   103  H    0.104868
   104  H    0.135713
   105  H    0.089999
   106  H    0.102915
   107  H    0.112170
   108  H    0.088389
   109  H    0.097150
   110  H    0.050769
   111  H    0.092135
   112  H    0.098758
   113  H    0.113179
   114  H    0.073469
   115  H    0.093276
   116  H    0.078022
   117  H    0.109371
   118  H    0.039678
   119  H    0.071990
   120  H    0.097889
   121  H    0.089877
   122  H    0.037381
   123  H    0.119306
   124  H    0.090187
   125  H    0.090874
   126  H    0.087541
   127  H    0.101878
   128  H    0.104970
   129  H    0.068263
   130  H    0.058400
   131  H    0.107094
   132  H    0.098247
   133  H    0.083247
   134  H    0.096202
   135  H    0.104977
   136  H    0.104828
   137  H    0.097188
 Sum of Mulliken charges =  -0.00000

 Dipole moment (field-independent basis, Debye):
    X=             -0.2542    Y=              3.2670    Z=              0.3844  Tot=              3.2993
 Quadrupole moment (field-independent basis, Debye-Ang):
   XX=           -349.7262   YY=           -397.7849   ZZ=           -398.0589
   XY=            -21.4281   XZ=              6.2444   YZ=             -2.6676

 Normal termination of Gaussian 16 at Fri Sep 13 20:03:56 2019.
