 Gaussian 09, Revision D.01,
 Gaussian 09:  ES64L-G09RevD.01 24-Apr-2013

 -------------------------------------
 # td=(NStates=1) CAM-B3LYP/6-31G(d,p)
 -------------------------------------

 --
 TD
 --
 Symbolic Z-matrix:
 Charge =  0 Multiplicity = 1

                         Standard orientation:
 ---------------------------------------------------------------------
 Center     Atomic      Atomic             Coordinates (Angstroms)
 Number     Number       Type             X           Y           Z
 ---------------------------------------------------------------------
      1         12           0       -7.266160    0.586147    0.179038
      2          6           0       -4.873768   -1.893110    0.646588
      3          6           0       -4.827905    2.833572    1.138984
      4          6           0       -9.411585    3.101321   -0.441932
      5          6           0       -9.539844   -1.748872   -0.920793
      6          7           0       -5.130652    0.557448    0.907337
      7          6           0       -4.412296   -0.669463    0.909694
      8          6           0       -2.908935   -0.412504    1.283165
      9          6           0       -3.064107    1.101408    1.613315
     10          6           0       -4.438334    1.526995    1.190226
     11          6           0       -2.820039    1.476502    3.055189
     12          6           0       -1.980448   -0.659957    0.097653
     13          6           0       -0.510103   -0.451352    0.456574
     14          6           0        0.503913   -0.749817   -0.630511
     15          8           0        0.305489   -1.026400   -1.799329
     16          8           0        1.816648   -0.657321   -0.132692
     17          7           0       -7.169567    2.700703    0.323492
     18          6           0       -6.036383    3.429628    0.664757
     19          6           0       -6.380596    4.796162    0.651541
     20          6           0       -7.691164    4.847080    0.216429
     21          6           0       -8.212551    3.565775    0.103124
     22          6           0       -5.384952    5.887802    0.987254
     23          6           0       -8.581270    6.053687    0.210933
     24          6           0       -8.464872    7.211659    0.758550
     25          7           0       -9.167632    0.610426   -0.531459
     26          6           0       -9.894062    1.777990   -0.688622
     27          6           0      -11.223496    1.369062   -1.172322
     28          6           0      -11.216214    0.019390   -1.341925
     29          6           0       -9.850438   -0.459716   -1.038275
     30          6           0      -12.292997    2.375926   -1.414449
     31          6           0      -12.271576   -0.916100   -1.807435
     32          6           0      -12.017987   -1.384578   -3.234448
     33          7           0       -7.182859   -1.479033    0.064932
     34          6           0       -8.190083   -2.196624   -0.373055
     35          6           0       -7.774727   -3.596748   -0.528454
     36          6           0       -6.382664   -3.622062   -0.090111
     37          6           0       -6.086640   -2.197650    0.186176
     38          6           0       -8.622584   -4.754815   -0.858784
     39          6           0       -5.187804   -4.308012    0.118876
     40          8           0       -5.103158   -5.556792    0.151608
     41          6           0       -4.083309   -3.281392    0.526356
     42          6           0       -3.439739   -3.531216    1.911849
     43          8           0       -3.748402   -2.895322    2.951206
     44          8           0       -2.745183   -4.672698    1.965090
     45          6           0       -2.235301   -5.171691    3.201286
     46          6           0        2.856653   -0.744047   -1.281914
     47          6           0        4.039333   -0.565098   -0.607863
     48          6           0        5.019408    0.365535   -0.898187
     49          6           0        5.024973    1.243310   -2.146468
     50          6           0        6.315041    0.442331   -0.325984
     51          6           0        7.634197   -0.007891   -0.957811
     52          6           0        8.934746    0.036831   -0.115044
     53          6           0       10.176148   -0.604194   -0.773311
     54          6           0       10.040182   -2.009475   -1.236425
     55          6           0       11.375477   -0.271491   -0.024763
     56          6           0       12.683492   -0.493578   -0.688944
     57          6           0       13.930295   -0.136894    0.125665
     58          6           0       15.320195   -0.155708   -0.576122
     59          6           0       15.611129   -1.583232   -1.033513
     60          6           0       16.376038    0.411499    0.397843
     61          6           0       17.793141    0.554461   -0.245941
     62          6           0       18.787383    1.275464    0.745803
     63          6           0       20.234322    1.221859    0.273951
     64          6           0       20.330157    1.907328   -1.066626
     65          6           0       21.133815    1.976357    1.324063
     66          1           0       -3.930438    3.389943    1.418143
     67          1           0      -10.146663    3.811952   -0.610361
     68          1           0      -10.047401   -2.587708   -1.552054
     69          1           0       -2.707878   -1.094283    2.049693
     70          1           0       -2.353581    1.875625    1.050415
     71          1           0       -1.757183    1.137169    3.453946
     72          1           0       -2.957128    2.568321    3.393456
     73          1           0       -3.563743    0.825522    3.707610
     74          1           0       -2.036677   -1.631152   -0.216214
     75          1           0       -2.068652    0.027299   -0.755571
     76          1           0       -0.167805    0.303384    1.197517
     77          1           0       -0.314310   -1.523348    1.164287
     78          1           0       -5.635542    6.739602    0.515866
     79          1           0       -5.574415    6.300147    1.926155
     80          1           0       -4.312330    5.554728    0.829345
     81          1           0       -9.546124    5.887413   -0.478512
     82          1           0       -9.200688    8.032203    0.430556
     83          1           0       -7.575508    7.476720    1.293735
     84          1           0      -11.935899    2.975699   -2.407270
     85          1           0      -13.298931    1.853914   -1.687967
     86          1           0      -12.258781    2.991132   -0.505916
     87          1           0      -12.510097   -1.835780   -1.123903
     88          1           0      -13.249628   -0.456485   -1.681885
     89          1           0      -12.724693   -2.226969   -3.580179
     90          1           0      -12.062901   -0.373608   -3.800900
     91          1           0      -11.065235   -1.922516   -3.339100
     92          1           0       -9.027576   -4.709296   -1.920381
     93          1           0       -8.048250   -5.779976   -0.602538
     94          1           0       -9.561151   -4.688377   -0.252653
     95          1           0       -3.355009   -3.139523   -0.224257
     96          1           0       -1.719355   -4.318091    3.814258
     97          1           0       -3.136238   -5.626368    3.687913
     98          1           0       -1.186423   -5.615885    3.050698
     99          1           0        2.778974   -1.683237   -1.812230
    100          1           0        2.920395   -0.021299   -2.092508
    101          1           0        4.334709   -1.192611    0.274646
    102          1           0        3.985258    1.363417   -2.517942
    103          1           0        5.569179    2.215227   -1.964907
    104          1           0        5.643384    0.771173   -3.004738
    105          1           0        6.388894    1.492554    0.064836
    106          1           0        6.198134   -0.074710    0.789766
    107          1           0        7.179044   -1.095629   -1.241806
    108          1           0        7.686964    0.504139   -1.842895
    109          1           0        9.083639    1.097813    0.124876
    110          1           0        8.648677   -0.489104    0.799809
    111          1           0       10.370612   -0.174099   -1.843458
    112          1           0        8.935123   -2.140512   -1.701873
    113          1           0       11.040005   -2.186916   -1.775519
    114          1           0       10.059613   -2.535388   -0.277619
    115          1           0       11.144170    0.682523    0.690302
    116          1           0       11.450712   -1.043942    0.793144
    117          1           0       12.783915   -1.521926   -1.035171
    118          1           0       12.822757    0.093445   -1.683168
    119          1           0       13.896799    0.893939    0.559992
    120          1           0       13.899115   -0.837822    0.943818
    121          1           0       15.274329    0.571675   -1.531062
    122          1           0       15.569032   -2.251189   -0.234436
    123          1           0       14.755433   -1.753116   -1.721611
    124          1           0       16.562380   -1.637716   -1.604812
    125          1           0       15.813751    1.400168    0.710488
    126          1           0       16.340466   -0.162804    1.354073
    127          1           0       18.201173   -0.331973   -0.525085
    128          1           0       17.800769    1.152705   -1.051153
    129          1           0       18.325419    2.201423    1.191515
    130          1           0       18.840692    0.891118    1.760977
    131          1           0       20.365015    0.188407    0.204883
    132          1           0       19.981902    2.847468   -0.979848
    133          1           0       21.362488    1.893055   -1.464044
    134          1           0       19.759186    1.239765   -1.838044
    135          1           0       20.900012    1.678529    2.426487
    136          1           0       22.108160    1.913137    1.220954
    137          1           0       20.934082    3.138710    1.348932
 ---------------------------------------------------------------------

 SCF Done:  E(RCAM-B3LYP) =  -2932.66720994     A.U. after   16 cycles

 Excitation energies and oscillator strengths:

 Excited State   1:      Singlet-A      2.0037 eV  618.79 nm  f=0.3234  <S**2>=0.000
     240 -> 243        0.21132
     241 -> 242        0.67162
 This state for optimization and/or second-order correction.
 Total Energy, E(TD-HF/TD-KS) =  -2932.59357700
 Copying the excited state density for this state as the 1-particle RhoCI density.

 The electronic state is 1-A.
 Alpha  occ. eigenvalues --  -46.85697 -19.26844 -19.25305 -19.21229 -19.20821
 Alpha  occ. eigenvalues --  -19.18741 -14.41682 -14.39835 -14.39636 -14.38832
 Alpha  occ. eigenvalues --  -10.40271 -10.39525 -10.34198 -10.33075 -10.30918
 Alpha  occ. eigenvalues --  -10.30776 -10.30235 -10.30095 -10.29830 -10.29625
 Alpha  occ. eigenvalues --  -10.29617 -10.29579 -10.29554 -10.28750 -10.28637
 Alpha  occ. eigenvalues --  -10.28422 -10.28131 -10.28129 -10.27740 -10.27643
 Alpha  occ. eigenvalues --  -10.27641 -10.27502 -10.27470 -10.27433 -10.26996
 Alpha  occ. eigenvalues --  -10.26952 -10.26929 -10.26903 -10.26895 -10.26860
 Alpha  occ. eigenvalues --  -10.26745 -10.26681 -10.26670 -10.26623 -10.26611
 Alpha  occ. eigenvalues --  -10.26566 -10.26534 -10.26317 -10.26093 -10.25997
 Alpha  occ. eigenvalues --  -10.25909 -10.25879 -10.25873 -10.25852 -10.25722
 Alpha  occ. eigenvalues --  -10.25708 -10.25681 -10.25539 -10.24932 -10.24859
 Alpha  occ. eigenvalues --  -10.24854 -10.24285 -10.23989 -10.23964 -10.23950
 Alpha  occ. eigenvalues --   -3.14460  -1.89196  -1.88684  -1.88614  -1.18146
 Alpha  occ. eigenvalues --   -1.15516  -1.08097  -1.07670  -1.07154  -1.06714
 Alpha  occ. eigenvalues --   -1.05048  -1.03812  -1.02876  -0.93459  -0.92476
 Alpha  occ. eigenvalues --   -0.91644  -0.90666  -0.90056  -0.89400  -0.88942
 Alpha  occ. eigenvalues --   -0.88712  -0.88669  -0.87791  -0.86910  -0.86801
 Alpha  occ. eigenvalues --   -0.85615  -0.84763  -0.83894  -0.83525  -0.83255
 Alpha  occ. eigenvalues --   -0.81957  -0.81728  -0.81435  -0.80283  -0.79116
 Alpha  occ. eigenvalues --   -0.78366  -0.77465  -0.76601  -0.76098  -0.75885
 Alpha  occ. eigenvalues --   -0.75515  -0.75328  -0.74614  -0.73401  -0.72573
 Alpha  occ. eigenvalues --   -0.71339  -0.71177  -0.70042  -0.69557  -0.68631
 Alpha  occ. eigenvalues --   -0.67426  -0.66999  -0.65926  -0.65547  -0.65240
 Alpha  occ. eigenvalues --   -0.64301  -0.64055  -0.62819  -0.62461  -0.62423
 Alpha  occ. eigenvalues --   -0.61208  -0.60960  -0.59984  -0.59333  -0.59088
 Alpha  occ. eigenvalues --   -0.58743  -0.58145  -0.57875  -0.57513  -0.56873
 Alpha  occ. eigenvalues --   -0.56208  -0.56076  -0.55727  -0.55243  -0.54870
 Alpha  occ. eigenvalues --   -0.54291  -0.54132  -0.53943  -0.53246  -0.53095
 Alpha  occ. eigenvalues --   -0.53015  -0.52420  -0.52392  -0.52185  -0.52115
 Alpha  occ. eigenvalues --   -0.51623  -0.51329  -0.51273  -0.50994  -0.50667
 Alpha  occ. eigenvalues --   -0.50508  -0.50406  -0.50272  -0.50069  -0.49782
 Alpha  occ. eigenvalues --   -0.49522  -0.49339  -0.48888  -0.48599  -0.48397
 Alpha  occ. eigenvalues --   -0.48300  -0.48247  -0.47764  -0.47497  -0.47325
 Alpha  occ. eigenvalues --   -0.47008  -0.46572  -0.46446  -0.46226  -0.46127
 Alpha  occ. eigenvalues --   -0.45944  -0.45796  -0.45685  -0.45513  -0.45422
 Alpha  occ. eigenvalues --   -0.45395  -0.45145  -0.44936  -0.44668  -0.44569
 Alpha  occ. eigenvalues --   -0.44212  -0.43872  -0.43838  -0.43758  -0.43517
 Alpha  occ. eigenvalues --   -0.43461  -0.43173  -0.42998  -0.42833  -0.42657
 Alpha  occ. eigenvalues --   -0.42036  -0.41956  -0.41908  -0.41760  -0.41381
 Alpha  occ. eigenvalues --   -0.41164  -0.40796  -0.40721  -0.40369  -0.39855
 Alpha  occ. eigenvalues --   -0.39779  -0.39664  -0.39099  -0.38806  -0.38786
 Alpha  occ. eigenvalues --   -0.38732  -0.38654  -0.37997  -0.37821  -0.37731
 Alpha  occ. eigenvalues --   -0.37332  -0.37174  -0.37051  -0.36509  -0.36446
 Alpha  occ. eigenvalues --   -0.36043  -0.35992  -0.35919  -0.35724  -0.35619
 Alpha  occ. eigenvalues --   -0.35585  -0.35059  -0.34183  -0.33880  -0.33808
 Alpha  occ. eigenvalues --   -0.33622  -0.32966  -0.32587  -0.31600  -0.29393
 Alpha  occ. eigenvalues --   -0.29041  -0.28945  -0.28325  -0.27862  -0.23221
 Alpha  occ. eigenvalues --   -0.21567
 Alpha virt. eigenvalues --   -0.07523  -0.02598   0.00670   0.03960   0.04168
 Alpha virt. eigenvalues --    0.05186   0.05671   0.05953   0.06317   0.07606
 Alpha virt. eigenvalues --    0.08520   0.10353   0.10941   0.11401   0.11628

 Mulliken charges:
               1
     1  Mg   0.827547
     2  C    0.122336
     3  C   -0.180102
     4  C   -0.172503
     5  C   -0.157765
     6  N   -0.616263
     7  C    0.216981
     8  C   -0.135702
     9  C   -0.166143
    10  C    0.407512
    11  C   -0.304991
    12  C   -0.153903
    13  C   -0.274789
    14  C    0.629105
    15  O   -0.474609
    16  O   -0.515843
    17  N   -0.717968
    18  C    0.313931
    19  C    0.018316
    20  C   -0.020538
    21  C    0.336738
    22  C   -0.369149
    23  C   -0.038213
    24  C   -0.260576
    25  N   -0.722954
    26  C    0.312812
    27  C    0.016960
    28  C    0.032876
    29  C    0.319838
    30  C   -0.361111
    31  C   -0.254139
    32  C   -0.296235
    33  N   -0.704822
    34  C    0.268724
    35  C   -0.003116
    36  C    0.071212
    37  C    0.214883
    38  C   -0.391013
    39  C    0.322332
    40  O   -0.491529
    41  C   -0.310203
    42  C    0.612042
    43  O   -0.480979
    44  O   -0.432572
    45  C   -0.083310
    46  C    0.008942
    47  C   -0.089281
    48  C    0.111756
    49  C   -0.370457
    50  C   -0.238841
    51  C   -0.166027
    52  C   -0.180021
    53  C   -0.045813
    54  C   -0.295961
    55  C   -0.155295
    56  C   -0.195643
    57  C   -0.172237
    58  C   -0.066066
    59  C   -0.300842
    60  C   -0.171014
    61  C   -0.180270
    62  C   -0.189185
    63  C   -0.053077
    64  C   -0.294954
    65  C   -0.311494
    66  H    0.069403
    67  H    0.072987
    68  H    0.105929
    69  H    0.138666
    70  H    0.088829
    71  H    0.095199
    72  H    0.109470
    73  H    0.109539
    74  H    0.117859
    75  H    0.125204
    76  H    0.150251
    77  H    0.091564
    78  H    0.130550
    79  H    0.133551
    80  H    0.119355
    81  H    0.072435
    82  H    0.101869
    83  H    0.087378
    84  H    0.110261
    85  H    0.110649
    86  H    0.130545
    87  H    0.095768
    88  H    0.102636
    89  H    0.097187
    90  H    0.106797
    91  H    0.111969
    92  H    0.113582
    93  H    0.141973
    94  H    0.125904
    95  H    0.169195
    96  H    0.112269
    97  H    0.153237
    98  H    0.129915
    99  H    0.141240
   100  H    0.113474
   101  H    0.086548
   102  H    0.111027
   103  H    0.111104
   104  H    0.118255
   105  H    0.093338
   106  H    0.053710
   107  H    0.076395
   108  H    0.108073
   109  H    0.103609
   110  H    0.102053
   111  H    0.067747
   112  H    0.102741
   113  H    0.101982
   114  H    0.091484
   115  H    0.080016
   116  H    0.079486
   117  H    0.104538
   118  H    0.073477
   119  H    0.083981
   120  H    0.090630
   121  H    0.062167
   122  H    0.108451
   123  H    0.096672
   124  H    0.096032
   125  H    0.071870
   126  H    0.089378
   127  H    0.102161
   128  H    0.116887
   129  H    0.078939
   130  H    0.081334
   131  H    0.098145
   132  H    0.117959
   133  H    0.091590
   134  H    0.082483
   135  H    0.083244
   136  H    0.113936
   137  H    0.084596
 Sum of Mulliken charges =   0.00000

 Dipole moment (field-independent basis, Debye):
    X=              1.5577    Y=              4.8561    Z=              0.1705  Tot=              5.1027
 Quadrupole moment (field-independent basis, Debye-Ang):
   XX=           -333.8187   YY=           -400.7718   ZZ=           -398.8510
   XY=            -23.9322   XZ=             15.2637   YZ=             -2.7844

 Normal termination of Gaussian 09 at Thu Jul  4 19:21:27 2019.
