 Gaussian 09, Revision D.01,
 Gaussian 09:  ES64L-G09RevD.01 24-Apr-2013

 -------------------------------------
 # td=(NStates=1) CAM-B3LYP/6-31G(d,p)
 -------------------------------------

 --
 TD
 --
 Symbolic Z-matrix:
 Charge =  0 Multiplicity = 1

                         Standard orientation:
 ---------------------------------------------------------------------
 Center     Atomic      Atomic             Coordinates (Angstroms)
 Number     Number       Type             X           Y           Z
 ---------------------------------------------------------------------
      1         12           0       -7.161869    0.561021    0.054999
      2          6           0       -4.811310   -1.839677    0.515807
      3          6           0       -4.835089    2.933951    0.971071
      4          6           0       -9.461766    3.010308   -0.332609
      5          6           0       -9.440096   -1.791458   -0.856015
      6          7           0       -5.028280    0.559181    0.576945
      7          6           0       -4.338484   -0.637273    0.666485
      8          6           0       -2.883417   -0.248104    1.206693
      9          6           0       -2.998223    1.221187    1.555596
     10          6           0       -4.388810    1.560391    1.048453
     11          6           0       -2.722338    1.414170    3.008764
     12          6           0       -1.836541   -0.553978    0.128961
     13          6           0       -0.398914   -0.435455    0.574322
     14          6           0        0.526459   -0.720759   -0.510197
     15          8           0        0.274890   -1.024793   -1.692621
     16          8           0        1.843360   -0.566562   -0.144096
     17          7           0       -7.130905    2.614011    0.333658
     18          6           0       -6.073367    3.360054    0.673583
     19          6           0       -6.500479    4.780331    0.767337
     20          6           0       -7.800397    4.820351    0.236263
     21          6           0       -8.196432    3.428135   -0.062577
     22          6           0       -5.618696    5.841413    1.163894
     23          6           0       -8.634412    5.943788    0.187672
     24          6           0       -8.617138    7.027954    0.881718
     25          7           0       -9.088896    0.601000   -0.545810
     26          6           0       -9.886419    1.714759   -0.681977
     27          6           0      -11.185593    1.286063   -1.096886
     28          6           0      -11.088342   -0.078447   -1.270279
     29          6           0       -9.862561   -0.503586   -0.908261
     30          6           0      -12.328616    2.320866   -1.302274
     31          6           0      -12.291586   -0.883027   -1.723107
     32          6           0      -12.196871   -1.473621   -3.134114
     33          7           0       -7.122686   -1.440197   -0.119760
     34          6           0       -8.185008   -2.250908   -0.493486
     35          6           0       -7.637781   -3.662932   -0.377124
     36          6           0       -6.385788   -3.518523   -0.149645
     37          6           0       -6.121230   -2.181330    0.123687
     38          6           0       -8.464428   -4.893850   -0.672238
     39          6           0       -5.150814   -4.350148    0.293134
     40          8           0       -5.086633   -5.545791    0.286219
     41          6           0       -4.120791   -3.257510    0.629244
     42          6           0       -3.388364   -3.523335    1.964196
     43          8           0       -3.597023   -2.966792    3.014259
     44          8           0       -2.632304   -4.553017    1.852318
     45          6           0       -1.885361   -5.042582    2.963940
     46          6           0        2.851202   -0.699211   -1.210963
     47          6           0        4.137632   -0.482804   -0.695594
     48          6           0        5.064510    0.376003   -1.010315
     49          6           0        4.902764    1.445441   -2.149339
     50          6           0        6.278198    0.410350   -0.311290
     51          6           0        7.598410    0.023161   -1.059320
     52          6           0        8.847130   -0.089911   -0.261665
     53          6           0       10.122081   -0.471540   -0.997631
     54          6           0        9.916555   -1.972056   -1.331810
     55          6           0       11.326003   -0.109877   -0.008927
     56          6           0       12.723587   -0.534471   -0.576954
     57          6           0       13.902214   -0.114160    0.230962
     58          6           0       15.280151   -0.204899   -0.385513
     59          6           0       15.573672   -1.733232   -0.833555
     60          6           0       16.266038    0.297116    0.531159
     61          6           0       17.692385    0.458158   -0.159311
     62          6           0       18.718208    1.130590    0.753914
     63          6           0       20.134971    1.350884    0.206127
     64          6           0       20.107268    2.176877   -1.094729
     65          6           0       21.120013    1.896763    1.268593
     66          1           0       -4.187546    3.558394    1.514896
     67          1           0      -10.241849    3.725396   -0.576461
     68          1           0      -10.127035   -2.664519   -1.219881
     69          1           0       -2.690525   -0.750745    2.036593
     70          1           0       -2.362598    1.827590    0.910677
     71          1           0       -1.676664    1.104108    3.336112
     72          1           0       -2.845671    2.531452    3.284709
     73          1           0       -3.431734    0.733263    3.672311
     74          1           0       -1.945769   -1.571247   -0.346982
     75          1           0       -2.059449    0.177143   -0.557264
     76          1           0       -0.327875    0.327276    1.023332
     77          1           0       -0.310593   -1.290200    1.333516
     78          1           0       -5.923558    6.856519    0.729246
     79          1           0       -5.533912    5.950295    2.162956
     80          1           0       -4.683377    5.873504    0.667297
     81          1           0       -9.526440    5.888446   -0.637262
     82          1           0       -9.196576    8.046281    0.625848
     83          1           0       -7.929174    7.127826    1.752427
     84          1           0      -12.375970    3.003737   -2.377825
     85          1           0      -13.384311    1.805692   -1.258530
     86          1           0      -12.502743    3.071447   -0.561405
     87          1           0      -12.582134   -1.564922   -0.882312
     88          1           0      -13.118136   -0.138306   -1.893146
     89          1           0      -12.987829   -2.185242   -3.274026
     90          1           0      -12.391260   -0.800488   -4.039767
     91          1           0      -11.364630   -1.906902   -3.203853
     92          1           0       -9.159867   -4.617854   -1.690027
     93          1           0       -7.593905   -5.700599   -0.879616
     94          1           0       -9.135137   -5.128760    0.030367
     95          1           0       -3.277923   -3.310618   -0.057074
     96          1           0       -1.287630   -4.305560    3.413171
     97          1           0       -2.520003   -5.542464    3.652061
     98          1           0       -1.050672   -5.834249    2.571224
     99          1           0        2.719021   -1.751344   -1.746602
    100          1           0        2.496142   -0.031623   -1.984661
    101          1           0        4.250400   -0.993533    0.220452
    102          1           0        3.903989    1.456345   -2.585406
    103          1           0        4.947498    2.520818   -1.957753
    104          1           0        5.556479    1.249255   -2.984866
    105          1           0        6.686480    1.400439    0.214911
    106          1           0        6.423150   -0.201095    0.642248
    107          1           0        7.473492   -1.001888   -1.429304
    108          1           0        7.798501    0.920967   -1.883499
    109          1           0        8.920068    0.955009    0.247856
    110          1           0        8.638345   -0.801158    0.461681
    111          1           0       10.327836    0.124907   -1.893318
    112          1           0        8.973102   -2.037006   -2.079678
    113          1           0       10.781052   -2.272621   -1.892273
    114          1           0        9.807525   -2.775390   -0.498022
    115          1           0       11.383329    1.057456    0.031185
    116          1           0       11.140108   -0.565305    0.978598
    117          1           0       12.573564   -1.625309   -0.632181
    118          1           0       12.716804   -0.067749   -1.669449
    119          1           0       13.660569    1.109911    0.408449
    120          1           0       13.831614   -0.574490    1.194321
    121          1           0       15.377095    0.382954   -1.307853
    122          1           0       15.669785   -2.385268    0.240962
    123          1           0       14.833098   -2.038941   -1.562823
    124          1           0       16.477286   -1.812426   -1.512398
    125          1           0       16.014463    1.201492    0.727109
    126          1           0       16.422172   -0.399413    1.482769
    127          1           0       18.262155   -0.566212   -0.442038
    128          1           0       17.637700    0.953551   -1.128431
    129          1           0       18.429230    2.196100    1.025425
    130          1           0       18.728355    0.520418    1.589647
    131          1           0       20.445442    0.427412   -0.128165
    132          1           0       19.924627    3.380204   -0.944058
    133          1           0       21.175763    2.123845   -1.488026
    134          1           0       19.298997    1.840336   -1.731859
    135          1           0       20.958422    1.240159    2.213555
    136          1           0       22.232816    2.032928    0.785797
    137          1           0       20.831578    2.873595    1.489308
 ---------------------------------------------------------------------

 SCF Done:  E(RCAM-B3LYP) =  -2932.66911862     A.U. after   17 cycles

 Excitation energies and oscillator strengths:

 Excited State   1:      Singlet-A      2.2752 eV  544.94 nm  f=0.2121  <S**2>=0.000
     240 -> 243       -0.27050
     241 -> 242        0.64600
 This state for optimization and/or second-order correction.
 Total Energy, E(TD-HF/TD-KS) =  -2932.58550628
 Copying the excited state density for this state as the 1-particle RhoCI density.

 The electronic state is 1-A.
 Alpha  occ. eigenvalues --  -46.83956 -19.27734 -19.25676 -19.22149 -19.20879
 Alpha  occ. eigenvalues --  -19.20641 -14.41464 -14.39469 -14.38465 -14.38024
 Alpha  occ. eigenvalues --  -10.39699 -10.39608 -10.36667 -10.32930 -10.31575
 Alpha  occ. eigenvalues --  -10.31206 -10.30177 -10.29681 -10.29199 -10.29196
 Alpha  occ. eigenvalues --  -10.28469 -10.28197 -10.27999 -10.27962 -10.27887
 Alpha  occ. eigenvalues --  -10.27670 -10.27617 -10.27458 -10.27390 -10.27329
 Alpha  occ. eigenvalues --  -10.26947 -10.26861 -10.26791 -10.26743 -10.26691
 Alpha  occ. eigenvalues --  -10.26681 -10.26576 -10.26548 -10.26382 -10.26352
 Alpha  occ. eigenvalues --  -10.26283 -10.26277 -10.26276 -10.26156 -10.26039
 Alpha  occ. eigenvalues --  -10.26006 -10.26004 -10.25918 -10.25862 -10.25798
 Alpha  occ. eigenvalues --  -10.25758 -10.25721 -10.25678 -10.25646 -10.25390
 Alpha  occ. eigenvalues --  -10.24875 -10.24858 -10.24705 -10.24639 -10.24637
 Alpha  occ. eigenvalues --  -10.24500 -10.24210 -10.24160 -10.24036 -10.23294
 Alpha  occ. eigenvalues --   -3.13016  -1.87732  -1.87242  -1.87191  -1.21464
 Alpha  occ. eigenvalues --   -1.16586  -1.13379  -1.09961  -1.07230  -1.06495
 Alpha  occ. eigenvalues --   -1.05282  -1.02855  -1.01941  -0.92966  -0.92650
 Alpha  occ. eigenvalues --   -0.92032  -0.91287  -0.89981  -0.89731  -0.89282
 Alpha  occ. eigenvalues --   -0.88676  -0.88577  -0.87885  -0.87332  -0.87037
 Alpha  occ. eigenvalues --   -0.85736  -0.85384  -0.84072  -0.83669  -0.82554
 Alpha  occ. eigenvalues --   -0.82113  -0.81384  -0.81082  -0.79725  -0.78969
 Alpha  occ. eigenvalues --   -0.78441  -0.77638  -0.76847  -0.76649  -0.75118
 Alpha  occ. eigenvalues --   -0.74819  -0.74809  -0.74521  -0.73304  -0.72495
 Alpha  occ. eigenvalues --   -0.71941  -0.70728  -0.69960  -0.68996  -0.68504
 Alpha  occ. eigenvalues --   -0.67281  -0.66460  -0.66218  -0.65356  -0.64623
 Alpha  occ. eigenvalues --   -0.64204  -0.63339  -0.63161  -0.62773  -0.62739
 Alpha  occ. eigenvalues --   -0.62116  -0.61864  -0.60930  -0.60130  -0.59433
 Alpha  occ. eigenvalues --   -0.59317  -0.58553  -0.58291  -0.57784  -0.57470
 Alpha  occ. eigenvalues --   -0.57020  -0.56428  -0.55809  -0.55702  -0.55614
 Alpha  occ. eigenvalues --   -0.55134  -0.54997  -0.54576  -0.54258  -0.54073
 Alpha  occ. eigenvalues --   -0.53672  -0.52965  -0.52291  -0.52228  -0.52071
 Alpha  occ. eigenvalues --   -0.51894  -0.51334  -0.51240  -0.51085  -0.50752
 Alpha  occ. eigenvalues --   -0.50510  -0.50474  -0.50379  -0.49970  -0.49596
 Alpha  occ. eigenvalues --   -0.49492  -0.49217  -0.48769  -0.48622  -0.48402
 Alpha  occ. eigenvalues --   -0.47842  -0.47775  -0.47577  -0.47216  -0.47110
 Alpha  occ. eigenvalues --   -0.46790  -0.46712  -0.46527  -0.46282  -0.46160
 Alpha  occ. eigenvalues --   -0.46010  -0.45847  -0.45672  -0.45435  -0.44966
 Alpha  occ. eigenvalues --   -0.44616  -0.44562  -0.44348  -0.44249  -0.43861
 Alpha  occ. eigenvalues --   -0.43681  -0.43517  -0.43410  -0.43309  -0.43186
 Alpha  occ. eigenvalues --   -0.42941  -0.42910  -0.42777  -0.42680  -0.42510
 Alpha  occ. eigenvalues --   -0.42503  -0.42388  -0.41774  -0.41640  -0.41140
 Alpha  occ. eigenvalues --   -0.41080  -0.40958  -0.40794  -0.40333  -0.40184
 Alpha  occ. eigenvalues --   -0.40017  -0.39564  -0.39375  -0.39018  -0.38976
 Alpha  occ. eigenvalues --   -0.38886  -0.38696  -0.38199  -0.37968  -0.37751
 Alpha  occ. eigenvalues --   -0.37638  -0.37562  -0.37455  -0.37197  -0.36860
 Alpha  occ. eigenvalues --   -0.36382  -0.36286  -0.36005  -0.35699  -0.35607
 Alpha  occ. eigenvalues --   -0.35351  -0.35255  -0.35063  -0.34031  -0.34022
 Alpha  occ. eigenvalues --   -0.33761  -0.32672  -0.32292  -0.31990  -0.31096
 Alpha  occ. eigenvalues --   -0.30666  -0.30027  -0.27575  -0.26851  -0.23768
 Alpha  occ. eigenvalues --   -0.21095
 Alpha virt. eigenvalues --   -0.05118  -0.02996   0.02018   0.04403   0.04930
 Alpha virt. eigenvalues --    0.05399   0.06234   0.06592   0.06899   0.07748
 Alpha virt. eigenvalues --    0.08826   0.10455   0.11073   0.11531   0.12174

 Mulliken charges:
               1
     1  Mg   0.821394
     2  C    0.150923
     3  C   -0.205937
     4  C   -0.164385
     5  C   -0.178146
     6  N   -0.609364
     7  C    0.218696
     8  C   -0.153191
     9  C   -0.145701
    10  C    0.333387
    11  C   -0.313770
    12  C   -0.178683
    13  C   -0.225192
    14  C    0.621494
    15  O   -0.493443
    16  O   -0.508911
    17  N   -0.714609
    18  C    0.361659
    19  C    0.022794
    20  C    0.018010
    21  C    0.310452
    22  C   -0.398544
    23  C   -0.052325
    24  C   -0.268806
    25  N   -0.733961
    26  C    0.282646
    27  C    0.020908
    28  C    0.023037
    29  C    0.327136
    30  C   -0.371552
    31  C   -0.248964
    32  C   -0.306715
    33  N   -0.725740
    34  C    0.238817
    35  C   -0.000715
    36  C   -0.025561
    37  C    0.294443
    38  C   -0.356565
    39  C    0.428659
    40  O   -0.432162
    41  C   -0.325526
    42  C    0.585403
    43  O   -0.479486
    44  O   -0.405322
    45  C   -0.086922
    46  C    0.023171
    47  C   -0.132338
    48  C    0.182511
    49  C   -0.385030
    50  C   -0.251622
    51  C   -0.164122
    52  C   -0.158126
    53  C   -0.051477
    54  C   -0.322872
    55  C   -0.177583
    56  C   -0.176110
    57  C   -0.144923
    58  C   -0.063149
    59  C   -0.304463
    60  C   -0.124794
    61  C   -0.203765
    62  C   -0.159062
    63  C   -0.060012
    64  C   -0.299942
    65  C   -0.298479
    66  H    0.071040
    67  H    0.086490
    68  H    0.099370
    69  H    0.118524
    70  H    0.116516
    71  H    0.109491
    72  H    0.099953
    73  H    0.121020
    74  H    0.108469
    75  H    0.120361
    76  H    0.124685
    77  H    0.131132
    78  H    0.112584
    79  H    0.134806
    80  H    0.126526
    81  H    0.075461
    82  H    0.097202
    83  H    0.097873
    84  H    0.082964
    85  H    0.098398
    86  H    0.130077
    87  H    0.106767
    88  H    0.103433
    89  H    0.102805
    90  H    0.102075
    91  H    0.115695
    92  H    0.086639
    93  H    0.134866
    94  H    0.144634
    95  H    0.170412
    96  H    0.137428
    97  H    0.147125
    98  H    0.110764
    99  H    0.114940
   100  H    0.124748
   101  H    0.098743
   102  H    0.108677
   103  H    0.122477
   104  H    0.127917
   105  H    0.084382
   106  H    0.090305
   107  H    0.092697
   108  H    0.062668
   109  H    0.065370
   110  H    0.098001
   111  H    0.092252
   112  H    0.095028
   113  H    0.108584
   114  H    0.100182
   115  H    0.079168
   116  H    0.090633
   117  H    0.098788
   118  H    0.068247
   119  H    0.046953
   120  H    0.097972
   121  H    0.086179
   122  H    0.072950
   123  H    0.109515
   124  H    0.098674
   125  H    0.106512
   126  H    0.073797
   127  H    0.070189
   128  H    0.089085
   129  H    0.072841
   130  H    0.093782
   131  H    0.095018
   132  H    0.065897
   133  H    0.095537
   134  H    0.107611
   135  H    0.094097
   136  H    0.080575
   137  H    0.115950
 Sum of Mulliken charges =   0.00000

 Dipole moment (field-independent basis, Debye):
    X=              3.0743    Y=              2.2542    Z=              1.3734  Tot=              4.0521
 Quadrupole moment (field-independent basis, Debye-Ang):
   XX=           -383.9995   YY=           -388.9001   ZZ=           -397.4861
   XY=            -13.8415   XZ=              4.0515   YZ=             -5.6112

 Normal termination of Gaussian 09 at Wed Jul  3 04:32:39 2019.
