 Gaussian 09, Revision D.01,
 Gaussian 09:  ES64L-G09RevD.01 24-Apr-2013

 -------------------------------------
 # td=(NStates=1) CAM-B3LYP/6-31G(d,p)
 -------------------------------------

 --
 TD
 --
 Symbolic Z-matrix:
 Charge =  0 Multiplicity = 1

                         Standard orientation:
 ---------------------------------------------------------------------
 Center     Atomic      Atomic             Coordinates (Angstroms)
 Number     Number       Type             X           Y           Z
 ---------------------------------------------------------------------
      1         12           0       -7.195286    0.581254    0.091346
      2          6           0       -4.852803   -1.888499    0.666396
      3          6           0       -4.909559    2.780011    1.163890
      4          6           0       -9.555647    3.007344   -0.397802
      5          6           0       -9.456883   -1.825936   -0.975874
      6          7           0       -5.120377    0.506488    0.726002
      7          6           0       -4.450630   -0.654599    0.800273
      8          6           0       -2.961233   -0.347434    1.195029
      9          6           0       -3.070301    1.127418    1.719645
     10          6           0       -4.412281    1.477078    1.146370
     11          6           0       -2.995145    1.247964    3.281738
     12          6           0       -1.934337   -0.459739   -0.014892
     13          6           0       -0.591870   -0.284181    0.515850
     14          6           0        0.512727   -0.599818   -0.612469
     15          8           0        0.241855   -0.965619   -1.766274
     16          8           0        1.791926   -0.232101   -0.237119
     17          7           0       -7.160501    2.602435    0.249942
     18          6           0       -6.116113    3.363735    0.744406
     19          6           0       -6.534766    4.731823    0.669532
     20          6           0       -7.860854    4.737165    0.283566
     21          6           0       -8.259282    3.386730    0.112672
     22          6           0       -5.608874    5.825240    1.152060
     23          6           0       -8.785097    5.927957    0.140749
     24          6           0       -8.604633    7.062371    0.801700
     25          7           0       -9.188026    0.607732   -0.612686
     26          6           0       -9.924210    1.752713   -0.585519
     27          6           0      -11.322479    1.372875   -1.092595
     28          6           0      -11.214632    0.067939   -1.315318
     29          6           0       -9.899216   -0.507403   -0.904826
     30          6           0      -12.439564    2.296732   -1.326419
     31          6           0      -12.365010   -0.753610   -1.872694
     32          6           0      -12.121317   -1.212005   -3.292095
     33          7           0       -7.218739   -1.530838   -0.116941
     34          6           0       -8.161890   -2.314552   -0.688426
     35          6           0       -7.807903   -3.643317   -0.620555
     36          6           0       -6.358292   -3.529347   -0.199943
     37          6           0       -6.161616   -2.218452    0.094579
     38          6           0       -8.533458   -4.851724   -0.935868
     39          6           0       -5.265183   -4.289061    0.234835
     40          8           0       -4.988664   -5.458046    0.347031
     41          6           0       -4.155474   -3.259328    0.721855
     42          6           0       -3.609071   -3.595470    2.119311
     43          8           0       -3.817991   -3.009956    3.137110
     44          8           0       -2.676799   -4.597207    1.985219
     45          6           0       -2.165865   -5.062564    3.213904
     46          6           0        2.802819   -0.355736   -1.280441
     47          6           0        4.106216   -0.263233   -0.550923
     48          6           0        5.194513    0.428325   -0.989986
     49          6           0        5.097188    1.163169   -2.369699
     50          6           0        6.515121    0.385320   -0.263618
     51          6           0        7.608083   -0.334016   -0.977843
     52          6           0        8.976255   -0.300699   -0.195043
     53          6           0       10.219650   -0.754251   -1.036850
     54          6           0       10.173245   -2.282865   -1.366764
     55          6           0       11.515905   -0.346827   -0.234142
     56          6           0       12.859345   -0.526108   -0.859173
     57          6           0       14.023927   -0.143672    0.150914
     58          6           0       15.478399   -0.312765   -0.479531
     59          6           0       15.885260   -1.751828   -0.682759
     60          6           0       16.457604    0.466578    0.462479
     61          6           0       17.910831    0.532742   -0.021712
     62          6           0       18.790275    1.391562    0.839861
     63          6           0       20.269588    1.461820    0.311019
     64          6           0       20.322179    2.307667   -1.018662
     65          6           0       21.197147    2.050067    1.285979
     66          1           0       -4.127100    3.512060    1.420755
     67          1           0      -10.356141    3.838328   -0.667669
     68          1           0      -10.248477   -2.322435   -1.519987
     69          1           0       -2.669723   -1.119319    2.018358
     70          1           0       -2.350554    1.891704    1.392520
     71          1           0       -2.104691    0.782020    3.513829
     72          1           0       -2.881869    2.471562    3.502485
     73          1           0       -3.984818    0.985674    3.674227
     74          1           0       -1.867035   -1.501986   -0.370254
     75          1           0       -2.415641    0.275222   -0.653622
     76          1           0       -0.441577    0.856348    0.948245
     77          1           0       -0.290298   -0.850381    1.293709
     78          1           0       -5.696012    6.634808    0.634300
     79          1           0       -6.042211    6.244913    2.116730
     80          1           0       -4.559646    5.764913    1.172059
     81          1           0       -9.636868    5.744258   -0.522586
     82          1           0       -9.049515    7.970030    0.743124
     83          1           0       -7.603412    7.254555    1.369617
     84          1           0      -12.179222    2.805966   -2.139306
     85          1           0      -13.388028    1.778488   -1.548951
     86          1           0      -12.597709    3.003409   -0.592514
     87          1           0      -12.778168   -1.660679   -1.234884
     88          1           0      -13.338531   -0.049472   -1.924294
     89          1           0      -13.062390   -1.801240   -3.570854
     90          1           0      -11.983586   -0.228589   -3.923133
     91          1           0      -11.179098   -1.655220   -3.173584
     92          1           0       -9.222797   -4.680118   -1.902325
     93          1           0       -7.975426   -5.733359   -0.988635
     94          1           0       -9.132877   -5.151332   -0.123513
     95          1           0       -3.366524   -3.121774    0.016656
     96          1           0       -1.576656   -4.297006    3.819263
     97          1           0       -3.012355   -5.413284    3.802095
     98          1           0       -1.511526   -5.924967    3.021532
     99          1           0        2.748351   -1.466847   -1.578020
    100          1           0        2.667978    0.392524   -2.162274
    101          1           0        4.335484   -0.899985    0.463624
    102          1           0        4.176146    1.250669   -2.697968
    103          1           0        5.763771    1.868728   -2.236083
    104          1           0        5.707413    0.324210   -3.081770
    105          1           0        6.779618    1.479500   -0.104211
    106          1           0        6.138939    0.090747    0.721023
    107          1           0        7.459474   -1.248109   -1.208896
    108          1           0        7.770584    0.182673   -1.936772
    109          1           0        9.183546    0.565867    0.083068
    110          1           0        8.840319   -0.934374    0.765287
    111          1           0       10.229364   -0.074027   -1.912045
    112          1           0        9.203394   -2.561307   -1.778639
    113          1           0       11.032891   -2.537176   -2.051983
    114          1           0       10.402264   -2.820405   -0.420309
    115          1           0       11.493110    0.673654   -0.016729
    116          1           0       11.479405   -0.853706    0.795399
    117          1           0       13.111395   -1.532990   -1.144546
    118          1           0       13.020760   -0.030051   -1.988315
    119          1           0       13.911913    0.902952    0.600759
    120          1           0       13.835905   -0.884045    0.905177
    121          1           0       15.583042   -0.020115   -1.557960
    122          1           0       15.892122   -2.527118   -0.038160
    123          1           0       15.074615   -2.081357   -1.528577
    124          1           0       16.756070   -1.732095   -1.305089
    125          1           0       15.940797    1.486832    0.797729
    126          1           0       16.444970   -0.101661    1.361226
    127          1           0       18.191539   -0.542134   -0.035845
    128          1           0       17.846931    0.622560   -1.152645
    129          1           0       18.488728    2.315756    1.096122
    130          1           0       18.768336    0.983578    1.793044
    131          1           0       20.570883    0.491001   -0.197644
    132          1           0       19.974929    3.387572   -0.920465
    133          1           0       21.385015    2.596400   -1.465985
    134          1           0       19.856199    1.946404   -1.910785
    135          1           0       21.323084    1.437165    2.262309
    136          1           0       22.331278    2.141622    1.175581
    137          1           0       20.959534    3.131827    1.462860
 ---------------------------------------------------------------------

 SCF Done:  E(RCAM-B3LYP) =  -2932.66044347     A.U. after   17 cycles

 Excitation energies and oscillator strengths:

 Excited State   1:      Singlet-A      1.9792 eV  626.43 nm  f=0.3359  <S**2>=0.000
     240 -> 243       -0.16161
     241 -> 242        0.68527
 This state for optimization and/or second-order correction.
 Total Energy, E(TD-HF/TD-KS) =  -2932.58770878
 Copying the excited state density for this state as the 1-particle RhoCI density.

 The electronic state is 1-A.
 Alpha  occ. eigenvalues --  -46.85683 -19.26086 -19.25237 -19.21252 -19.21130
 Alpha  occ. eigenvalues --  -19.18096 -14.42316 -14.39549 -14.39484 -14.38404
 Alpha  occ. eigenvalues --  -10.39791 -10.38856 -10.33120 -10.33045 -10.31253
 Alpha  occ. eigenvalues --  -10.30629 -10.30580 -10.30400 -10.29632 -10.29236
 Alpha  occ. eigenvalues --  -10.29229 -10.28599 -10.28386 -10.28124 -10.28081
 Alpha  occ. eigenvalues --  -10.27993 -10.27987 -10.27709 -10.27579 -10.27531
 Alpha  occ. eigenvalues --  -10.27328 -10.27213 -10.27160 -10.27136 -10.27125
 Alpha  occ. eigenvalues --  -10.26994 -10.26976 -10.26748 -10.26662 -10.26611
 Alpha  occ. eigenvalues --  -10.26550 -10.26545 -10.26381 -10.26337 -10.26301
 Alpha  occ. eigenvalues --  -10.26181 -10.26014 -10.25916 -10.25804 -10.25652
 Alpha  occ. eigenvalues --  -10.25498 -10.25448 -10.25387 -10.25327 -10.25270
 Alpha  occ. eigenvalues --  -10.25170 -10.25074 -10.25029 -10.24908 -10.24671
 Alpha  occ. eigenvalues --  -10.24573 -10.24458 -10.24200 -10.23999 -10.23450
 Alpha  occ. eigenvalues --   -3.14463  -1.89200  -1.88702  -1.88602  -1.17774
 Alpha  occ. eigenvalues --   -1.16382  -1.09815  -1.09637  -1.07884  -1.07478
 Alpha  occ. eigenvalues --   -1.05571  -1.04480  -1.03036  -0.92600  -0.91200
 Alpha  occ. eigenvalues --   -0.90520  -0.90247  -0.89477  -0.89334  -0.89153
 Alpha  occ. eigenvalues --   -0.89015  -0.88215  -0.87978  -0.87247  -0.86164
 Alpha  occ. eigenvalues --   -0.85404  -0.84786  -0.83796  -0.83434  -0.83117
 Alpha  occ. eigenvalues --   -0.81983  -0.81560  -0.80886  -0.80288  -0.79430
 Alpha  occ. eigenvalues --   -0.77946  -0.77739  -0.76929  -0.76522  -0.75864
 Alpha  occ. eigenvalues --   -0.75813  -0.74952  -0.74883  -0.74092  -0.73077
 Alpha  occ. eigenvalues --   -0.71563  -0.70512  -0.69027  -0.68594  -0.68067
 Alpha  occ. eigenvalues --   -0.67698  -0.67269  -0.65893  -0.64853  -0.64718
 Alpha  occ. eigenvalues --   -0.64554  -0.64157  -0.63327  -0.62635  -0.62367
 Alpha  occ. eigenvalues --   -0.62106  -0.61284  -0.60256  -0.59793  -0.59093
 Alpha  occ. eigenvalues --   -0.58684  -0.58493  -0.57616  -0.57227  -0.56919
 Alpha  occ. eigenvalues --   -0.56278  -0.55730  -0.55463  -0.55220  -0.54936
 Alpha  occ. eigenvalues --   -0.54741  -0.53998  -0.53729  -0.53426  -0.53356
 Alpha  occ. eigenvalues --   -0.53007  -0.52833  -0.52391  -0.52292  -0.52092
 Alpha  occ. eigenvalues --   -0.51609  -0.51260  -0.51165  -0.51028  -0.50795
 Alpha  occ. eigenvalues --   -0.50629  -0.50522  -0.50277  -0.49998  -0.49765
 Alpha  occ. eigenvalues --   -0.49634  -0.49335  -0.49089  -0.49003  -0.48799
 Alpha  occ. eigenvalues --   -0.48562  -0.48307  -0.48148  -0.47947  -0.47760
 Alpha  occ. eigenvalues --   -0.47459  -0.47306  -0.47170  -0.46896  -0.46560
 Alpha  occ. eigenvalues --   -0.46398  -0.46322  -0.45677  -0.45583  -0.45346
 Alpha  occ. eigenvalues --   -0.45077  -0.44886  -0.44761  -0.44742  -0.44425
 Alpha  occ. eigenvalues --   -0.44282  -0.44205  -0.43903  -0.43844  -0.43590
 Alpha  occ. eigenvalues --   -0.43398  -0.43216  -0.42551  -0.42363  -0.42079
 Alpha  occ. eigenvalues --   -0.41855  -0.41679  -0.41525  -0.41422  -0.41111
 Alpha  occ. eigenvalues --   -0.40880  -0.40750  -0.40396  -0.40328  -0.40078
 Alpha  occ. eigenvalues --   -0.39784  -0.39559  -0.39222  -0.39210  -0.38862
 Alpha  occ. eigenvalues --   -0.38524  -0.38387  -0.38295  -0.37948  -0.37697
 Alpha  occ. eigenvalues --   -0.37631  -0.37480  -0.37218  -0.36791  -0.36679
 Alpha  occ. eigenvalues --   -0.36525  -0.36097  -0.36032  -0.35852  -0.35790
 Alpha  occ. eigenvalues --   -0.35448  -0.35331  -0.35077  -0.33789  -0.33435
 Alpha  occ. eigenvalues --   -0.33123  -0.32636  -0.32486  -0.31588  -0.29137
 Alpha  occ. eigenvalues --   -0.28631  -0.28521  -0.28371  -0.27457  -0.24156
 Alpha  occ. eigenvalues --   -0.21573
 Alpha virt. eigenvalues --   -0.07972  -0.01570   0.02433   0.04466   0.05136
 Alpha virt. eigenvalues --    0.05475   0.06014   0.06629   0.07014   0.07421
 Alpha virt. eigenvalues --    0.08901   0.10273   0.10982   0.11297   0.11958

 Mulliken charges:
               1
     1  Mg   0.821313
     2  C    0.079317
     3  C   -0.223808
     4  C   -0.191766
     5  C   -0.149944
     6  N   -0.611847
     7  C    0.297316
     8  C   -0.208025
     9  C   -0.154974
    10  C    0.356948
    11  C   -0.277444
    12  C   -0.137840
    13  C   -0.244334
    14  C    0.582793
    15  O   -0.470302
    16  O   -0.483318
    17  N   -0.727298
    18  C    0.328367
    19  C    0.019092
    20  C   -0.027434
    21  C    0.316682
    22  C   -0.380759
    23  C   -0.038874
    24  C   -0.242210
    25  N   -0.711090
    26  C    0.327368
    27  C    0.024558
    28  C   -0.001866
    29  C    0.307704
    30  C   -0.371930
    31  C   -0.257320
    32  C   -0.279743
    33  N   -0.711448
    34  C    0.245594
    35  C    0.073986
    36  C   -0.035689
    37  C    0.310804
    38  C   -0.384901
    39  C    0.329761
    40  O   -0.477385
    41  C   -0.322415
    42  C    0.626977
    43  O   -0.454640
    44  O   -0.448604
    45  C   -0.082028
    46  C    0.015889
    47  C   -0.122032
    48  C    0.064702
    49  C   -0.305229
    50  C   -0.223614
    51  C   -0.165339
    52  C   -0.157633
    53  C   -0.075380
    54  C   -0.309643
    55  C   -0.173368
    56  C   -0.181552
    57  C   -0.178204
    58  C   -0.057070
    59  C   -0.318431
    60  C   -0.171979
    61  C   -0.194699
    62  C   -0.150692
    63  C   -0.050187
    64  C   -0.320862
    65  C   -0.312617
    66  H    0.071425
    67  H    0.096333
    68  H    0.091370
    69  H    0.108975
    70  H    0.108937
    71  H    0.132026
    72  H    0.071466
    73  H    0.136907
    74  H    0.127210
    75  H    0.119108
    76  H    0.105245
    77  H    0.146573
    78  H    0.138580
    79  H    0.124238
    80  H    0.119971
    81  H    0.093203
    82  H    0.113039
    83  H    0.076474
    84  H    0.138853
    85  H    0.117197
    86  H    0.126479
    87  H    0.093206
    88  H    0.070923
    89  H    0.104478
    90  H    0.093508
    91  H    0.111703
    92  H    0.100828
    93  H    0.149215
    94  H    0.136895
    95  H    0.163105
    96  H    0.108277
    97  H    0.128021
    98  H    0.120862
    99  H    0.131694
   100  H    0.123565
   101  H    0.076179
   102  H    0.106097
   103  H    0.122376
   104  H    0.086014
   105  H    0.091556
   106  H    0.103111
   107  H    0.110917
   108  H    0.090371
   109  H    0.095238
   110  H    0.073221
   111  H    0.083022
   112  H    0.105832
   113  H    0.101002
   114  H    0.103231
   115  H    0.102171
   116  H    0.077418
   117  H    0.099196
   118  H    0.053554
   119  H    0.082827
   120  H    0.104102
   121  H    0.085682
   122  H    0.115394
   123  H    0.068692
   124  H    0.107902
   125  H    0.066226
   126  H    0.098437
   127  H    0.097641
   128  H    0.086302
   129  H    0.104254
   130  H    0.100680
   131  H    0.090744
   132  H    0.084999
   133  H    0.077654
   134  H    0.109161
   135  H    0.086821
   136  H    0.098661
   137  H    0.102023
 Sum of Mulliken charges =   0.00000

 Dipole moment (field-independent basis, Debye):
    X=              1.1780    Y=              6.5753    Z=              0.7339  Tot=              6.7202
 Quadrupole moment (field-independent basis, Debye-Ang):
   XX=           -337.6673   YY=           -391.7131   ZZ=           -399.8509
   XY=            -40.5874   XZ=             14.6283   YZ=             -1.3942

 Normal termination of Gaussian 09 at Sat Jul  6 03:17:00 2019.
