 Gaussian 16, Revision A.03,
 Gaussian 16:  ES64L-G16RevA.03 25-Dec-2016

 ----------------------------------------------------------------------
 # td=(NStates=1) iop(3/107=0140000000,3/108=0140000000) CAM-B3LYP/6-31
 G(d,p)
 ----------------------------------------------------------------------

 --
 TD
 --
 Symbolic Z-matrix:
 Charge =  0 Multiplicity = 1

                         Standard orientation:
 ---------------------------------------------------------------------
 Center     Atomic      Atomic             Coordinates (Angstroms)
 Number     Number       Type             X           Y           Z
 ---------------------------------------------------------------------
      1         12           0       -7.143922    0.631133    0.029321
      2          6           0       -4.867359   -1.965269    0.534129
      3          6           0       -4.920405    2.787840    1.345400
      4          6           0       -9.473711    3.134014   -0.570141
      5          6           0       -9.470736   -1.759759   -1.029827
      6          7           0       -5.109406    0.529799    0.750249
      7          6           0       -4.368489   -0.726859    0.787208
      8          6           0       -2.949779   -0.432678    1.255559
      9          6           0       -3.063181    1.129223    1.731221
     10          6           0       -4.382420    1.525697    1.190645
     11          6           0       -2.924151    1.226936    3.312281
     12          6           0       -1.980247   -0.626427    0.319837
     13          6           0       -0.539266   -0.402213    0.561734
     14          6           0        0.517010   -0.581591   -0.493863
     15          8           0        0.214461   -0.935800   -1.620455
     16          8           0        1.751974   -0.524411   -0.010258
     17          7           0       -7.044432    2.566138    0.290696
     18          6           0       -6.120766    3.396148    0.846125
     19          6           0       -6.361126    4.731437    0.779561
     20          6           0       -7.670703    4.816698    0.266936
     21          6           0       -8.084432    3.377719    0.021899
     22          6           0       -5.532943    5.939091    1.148484
     23          6           0       -8.524076    5.936115    0.118621
     24          6           0       -8.471239    7.060075    0.703569
     25          7           0       -9.074815    0.668036   -0.645150
     26          6           0       -9.832384    1.757364   -0.783136
     27          6           0      -11.229016    1.436805   -1.204939
     28          6           0      -11.194691    0.092490   -1.470826
     29          6           0       -9.859409   -0.423239   -1.088582
     30          6           0      -12.445124    2.314630   -1.390576
     31          6           0      -12.326860   -0.767407   -1.712968
     32          6           0      -12.366182   -1.232051   -3.189958
     33          7           0       -7.205634   -1.415453   -0.200627
     34          6           0       -8.245657   -2.252643   -0.553040
     35          6           0       -7.785507   -3.577170   -0.481294
     36          6           0       -6.446266   -3.547995   -0.109080
     37          6           0       -6.159355   -2.191341    0.056826
     38          6           0       -8.631167   -4.738451   -0.852370
     39          6           0       -5.239859   -4.312770    0.150226
     40          8           0       -5.070452   -5.542110    0.104021
     41          6           0       -4.169817   -3.303649    0.688936
     42          6           0       -3.512387   -3.636025    1.924873
     43          8           0       -3.801948   -3.074023    3.009578
     44          8           0       -2.638169   -4.630229    1.887715
     45          6           0       -2.160817   -5.018137    3.040390
     46          6           0        2.925959   -0.653065   -1.036937
     47          6           0        4.148694   -0.382452   -0.472065
     48          6           0        5.129796    0.511466   -0.936802
     49          6           0        5.027630    1.176330   -2.267329
     50          6           0        6.487084    0.477260   -0.256101
     51          6           0        7.702477   -0.228980   -0.944163
     52          6           0        8.942349   -0.275365   -0.121378
     53          6           0       10.226291   -0.548102   -0.961556
     54          6           0       10.030739   -1.990792   -1.340428
     55          6           0       11.431753   -0.297149    0.065019
     56          6           0       12.775824   -0.585956   -0.726337
     57          6           0       13.963679   -0.194152    0.117159
     58          6           0       15.310006   -0.054382   -0.614559
     59          6           0       15.665982   -1.506291   -0.972846
     60          6           0       16.404236    0.380770    0.308756
     61          6           0       17.809799    0.539028   -0.267520
     62          6           0       18.834911    1.222408    0.714611
     63          6           0       20.232297    1.345230    0.179469
     64          6           0       20.300550    2.183273   -1.082497
     65          6           0       21.128884    1.907119    1.312104
     66          1           0       -4.245896    3.484433    1.553071
     67          1           0      -10.191765    3.986738   -0.638454
     68          1           0      -10.175513   -2.642725   -1.121256
     69          1           0       -2.739866   -0.842210    2.203705
     70          1           0       -2.170836    1.484123    1.221975
     71          1           0       -1.847194    0.918068    3.627773
     72          1           0       -2.971046    2.385434    3.619196
     73          1           0       -3.705988    0.755076    3.841117
     74          1           0       -1.954546   -1.645024   -0.121428
     75          1           0       -2.430440    0.111653   -0.557166
     76          1           0       -0.430654    0.839482    1.008402
     77          1           0       -0.166660   -1.076720    1.389814
     78          1           0       -5.826189    6.778124    0.635730
     79          1           0       -5.620663    6.154899    2.355256
     80          1           0       -4.359653    5.663131    1.070577
     81          1           0       -9.229101    5.833062   -0.679012
     82          1           0       -9.132401    7.774854    0.391653
     83          1           0       -7.821100    7.235527    1.644452
     84          1           0      -12.459685    3.304828   -2.145636
     85          1           0      -13.367705    1.748067   -1.592753
     86          1           0      -12.910412    3.123922   -0.456262
     87          1           0      -12.075866   -1.811205   -1.083928
     88          1           0      -13.293576   -0.429247   -1.289626
     89          1           0      -13.522017   -1.701920   -3.471983
     90          1           0      -12.179060   -0.200395   -3.691570
     91          1           0      -11.705133   -2.034932   -3.580550
     92          1           0       -9.222792   -4.449810   -1.876630
     93          1           0       -7.956331   -5.690415   -1.147390
     94          1           0       -9.471670   -5.053516   -0.226754
     95          1           0       -3.426236   -3.293812   -0.153653
     96          1           0       -1.737236   -4.271539    3.837552
     97          1           0       -3.165274   -5.375502    3.567822
     98          1           0       -1.238004   -5.853348    2.848746
     99          1           0        2.783533   -1.857976   -1.268154
    100          1           0        2.698739    0.048217   -1.750235
    101          1           0        4.271027   -0.940209    0.448634
    102          1           0        4.020834    1.115275   -2.848112
    103          1           0        5.323798    2.206687   -2.034429
    104          1           0        5.519603    0.811809   -2.877697
    105          1           0        6.708585    1.509131   -0.142018
    106          1           0        6.373293    0.019896    0.821118
    107          1           0        7.388274   -1.271027   -1.337604
    108          1           0        7.927251    0.134963   -1.841842
    109          1           0        8.974239    0.886367    0.380434
    110          1           0        8.957413   -0.859198    0.779193
    111          1           0       10.449663    0.094774   -1.868088
    112          1           0        8.979359   -2.255671   -1.758076
    113          1           0       10.902611   -2.217615   -2.175109
    114          1           0       10.078817   -2.658738   -0.461001
    115          1           0       11.550925    0.781966    0.461256
    116          1           0       11.560395   -1.135343    0.770333
    117          1           0       12.708987   -1.627392   -1.173317
    118          1           0       12.640073   -0.058682   -1.664478
    119          1           0       13.536322    0.604629    0.615306
    120          1           0       14.304849   -0.920062    0.869722
    121          1           0       15.233123    0.578336   -1.425439
    122          1           0       15.371596   -2.185583   -0.084864
    123          1           0       14.895011   -1.925868   -1.817322
    124          1           0       16.660324   -1.738414   -1.306535
    125          1           0       16.006269    1.482225    0.684087
    126          1           0       16.464681   -0.298253    1.238763
    127          1           0       18.347521   -0.405585   -0.458278
    128          1           0       17.790660    1.242939   -1.100259
    129          1           0       18.546930    2.311583    1.002917
    130          1           0       18.946133    0.692683    1.619423
    131          1           0       20.473452    0.358748   -0.206526
    132          1           0       20.417973    3.138912   -0.927175
    133          1           0       21.380879    1.979632   -1.395877
    134          1           0       19.622203    1.690183   -1.726804
    135          1           0       20.829574    1.390258    2.302175
    136          1           0       22.145693    1.586949    1.192875
    137          1           0       20.961492    2.962886    1.494624
 ---------------------------------------------------------------------

 SCF Done:  E(RCAM-B3LYP) =  -2933.37819590     A.U. after   16 cycles

 Excitation energies and oscillator strengths:

 Excited State   1:      Singlet-A      1.9717 eV  628.83 nm  f=0.2551  <S**2>=0.000
     240 -> 243       -0.20990
     241 -> 242        0.67221
 This state for optimization and/or second-order correction.
 Total Energy, E(TD-HF/TD-DFT) =  -2933.30573871
 Copying the excited state density for this state as the 1-particle RhoCI density.

 The electronic state is 1-A.
 Alpha  occ. eigenvalues --  -46.79900 -19.23391 -19.20826 -19.16058 -19.15596
 Alpha  occ. eigenvalues --  -19.14967 -14.37544 -14.36140 -14.35728 -14.34736
 Alpha  occ. eigenvalues --  -10.34693 -10.33552 -10.30504 -10.28507 -10.27786
 Alpha  occ. eigenvalues --  -10.26636 -10.25903 -10.25845 -10.25760 -10.25589
 Alpha  occ. eigenvalues --  -10.25451 -10.25208 -10.25069 -10.24745 -10.24317
 Alpha  occ. eigenvalues --  -10.24254 -10.23933 -10.23841 -10.23444 -10.23363
 Alpha  occ. eigenvalues --  -10.23310 -10.23258 -10.23243 -10.23168 -10.23016
 Alpha  occ. eigenvalues --  -10.23011 -10.22919 -10.22912 -10.22880 -10.22757
 Alpha  occ. eigenvalues --  -10.22641 -10.22621 -10.22585 -10.22474 -10.22241
 Alpha  occ. eigenvalues --  -10.22224 -10.22141 -10.22112 -10.21823 -10.21620
 Alpha  occ. eigenvalues --  -10.21501 -10.21200 -10.21190 -10.21140 -10.21137
 Alpha  occ. eigenvalues --  -10.21061 -10.20859 -10.20676 -10.20631 -10.20404
 Alpha  occ. eigenvalues --  -10.20327 -10.20137 -10.19993 -10.19926 -10.18530
 Alpha  occ. eigenvalues --   -3.08587  -1.83524  -1.83089  -1.82975  -1.17139
 Alpha  occ. eigenvalues --   -1.11108  -1.04346  -1.03316  -1.02354  -1.00059
 Alpha  occ. eigenvalues --   -0.99480  -0.98136  -0.97692  -0.88588  -0.87275
 Alpha  occ. eigenvalues --   -0.86602  -0.86209  -0.85574  -0.85236  -0.84502
 Alpha  occ. eigenvalues --   -0.84341  -0.83118  -0.82142  -0.82027  -0.81602
 Alpha  occ. eigenvalues --   -0.80568  -0.80037  -0.79519  -0.78767  -0.77907
 Alpha  occ. eigenvalues --   -0.77392  -0.76707  -0.75942  -0.75820  -0.73750
 Alpha  occ. eigenvalues --   -0.72998  -0.72498  -0.72152  -0.71987  -0.71149
 Alpha  occ. eigenvalues --   -0.70191  -0.69734  -0.69241  -0.68542  -0.67713
 Alpha  occ. eigenvalues --   -0.66851  -0.66156  -0.65080  -0.64543  -0.64149
 Alpha  occ. eigenvalues --   -0.63222  -0.63094  -0.60851  -0.60695  -0.60279
 Alpha  occ. eigenvalues --   -0.60121  -0.59868  -0.58752  -0.58745  -0.58417
 Alpha  occ. eigenvalues --   -0.58208  -0.57256  -0.56553  -0.56444  -0.55635
 Alpha  occ. eigenvalues --   -0.55208  -0.54681  -0.54324  -0.54003  -0.53067
 Alpha  occ. eigenvalues --   -0.52465  -0.52181  -0.51975  -0.51857  -0.51107
 Alpha  occ. eigenvalues --   -0.50791  -0.50736  -0.50271  -0.49957  -0.49661
 Alpha  occ. eigenvalues --   -0.49180  -0.49089  -0.48816  -0.48727  -0.48319
 Alpha  occ. eigenvalues --   -0.47992  -0.47694  -0.47528  -0.47466  -0.47262
 Alpha  occ. eigenvalues --   -0.46949  -0.46654  -0.46356  -0.46134  -0.45856
 Alpha  occ. eigenvalues --   -0.45656  -0.45483  -0.45349  -0.45085  -0.44920
 Alpha  occ. eigenvalues --   -0.44676  -0.44381  -0.44069  -0.43798  -0.43741
 Alpha  occ. eigenvalues --   -0.43525  -0.43402  -0.43161  -0.42460  -0.42292
 Alpha  occ. eigenvalues --   -0.42102  -0.41931  -0.41897  -0.41596  -0.41531
 Alpha  occ. eigenvalues --   -0.41386  -0.41339  -0.41066  -0.40886  -0.40705
 Alpha  occ. eigenvalues --   -0.40260  -0.40193  -0.39807  -0.39692  -0.39432
 Alpha  occ. eigenvalues --   -0.39186  -0.39156  -0.38953  -0.38850  -0.38755
 Alpha  occ. eigenvalues --   -0.38684  -0.38500  -0.38161  -0.38111  -0.37988
 Alpha  occ. eigenvalues --   -0.37706  -0.37605  -0.37401  -0.37199  -0.37126
 Alpha  occ. eigenvalues --   -0.37017  -0.36547  -0.36478  -0.36285  -0.36271
 Alpha  occ. eigenvalues --   -0.35821  -0.35735  -0.35249  -0.35148  -0.34985
 Alpha  occ. eigenvalues --   -0.34593  -0.34533  -0.33843  -0.33414  -0.33135
 Alpha  occ. eigenvalues --   -0.32940  -0.32826  -0.32672  -0.32571  -0.32129
 Alpha  occ. eigenvalues --   -0.31612  -0.31334  -0.30733  -0.30711  -0.30418
 Alpha  occ. eigenvalues --   -0.29889  -0.29438  -0.28943  -0.28668  -0.26866
 Alpha  occ. eigenvalues --   -0.26849  -0.26599  -0.26086  -0.25714  -0.21625
 Alpha  occ. eigenvalues --   -0.20209
 Alpha virt. eigenvalues --   -0.07711  -0.03952  -0.00223   0.00823   0.02230
 Alpha virt. eigenvalues --    0.02886   0.04439   0.04655   0.05089   0.05220
 Alpha virt. eigenvalues --    0.06451   0.08335   0.08837   0.09303   0.09324

 Mulliken charges:
               1
     1  Mg   0.821335
     2  C    0.129152
     3  C   -0.180492
     4  C   -0.173027
     5  C   -0.170526
     6  N   -0.607670
     7  C    0.239526
     8  C   -0.147364
     9  C   -0.161355
    10  C    0.370103
    11  C   -0.309696
    12  C   -0.129532
    13  C   -0.248954
    14  C    0.613535
    15  O   -0.485910
    16  O   -0.499157
    17  N   -0.707225
    18  C    0.268904
    19  C    0.090806
    20  C   -0.022036
    21  C    0.301818
    22  C   -0.361213
    23  C   -0.064182
    24  C   -0.240228
    25  N   -0.690226
    26  C    0.317863
    27  C    0.059443
    28  C    0.051839
    29  C    0.283057
    30  C   -0.375299
    31  C   -0.248138
    32  C   -0.289441
    33  N   -0.743900
    34  C    0.291823
    35  C    0.004611
    36  C    0.080881
    37  C    0.290449
    38  C   -0.397463
    39  C    0.332922
    40  O   -0.475925
    41  C   -0.329334
    42  C    0.634672
    43  O   -0.500572
    44  O   -0.358108
    45  C   -0.086278
    46  C    0.026690
    47  C   -0.098147
    48  C    0.081512
    49  C   -0.336220
    50  C   -0.224837
    51  C   -0.162898
    52  C   -0.151017
    53  C   -0.065478
    54  C   -0.295041
    55  C   -0.183800
    56  C   -0.205773
    57  C   -0.142812
    58  C   -0.056487
    59  C   -0.303301
    60  C   -0.146046
    61  C   -0.185666
    62  C   -0.156214
    63  C   -0.066120
    64  C   -0.291302
    65  C   -0.322533
    66  H    0.050700
    67  H    0.107025
    68  H    0.092664
    69  H    0.123204
    70  H    0.099052
    71  H    0.106851
    72  H    0.088132
    73  H    0.143344
    74  H    0.109164
    75  H    0.079184
    76  H    0.072065
    77  H    0.128150
    78  H    0.138801
    79  H    0.100933
    80  H    0.099281
    81  H    0.087969
    82  H    0.096278
    83  H    0.097910
    84  H    0.102125
    85  H    0.124426
    86  H    0.070379
    87  H    0.075526
    88  H    0.117384
    89  H    0.063161
    90  H    0.105942
    91  H    0.125190
    92  H    0.091685
    93  H    0.128460
    94  H    0.134218
    95  H    0.168636
    96  H    0.115178
    97  H    0.105302
    98  H    0.091217
    99  H    0.118521
   100  H    0.121000
   101  H    0.091418
   102  H    0.102425
   103  H    0.115449
   104  H    0.138755
   105  H    0.104812
   106  H    0.095596
   107  H    0.081698
   108  H    0.111179
   109  H    0.042358
   110  H    0.106039
   111  H    0.088034
   112  H    0.099406
   113  H    0.077205
   114  H    0.110819
   115  H    0.092999
   116  H    0.105794
   117  H    0.088592
   118  H    0.085141
   119  H    0.083565
   120  H    0.086035
   121  H    0.089701
   122  H    0.092211
   123  H    0.071333
   124  H    0.107072
   125  H    0.055623
   126  H    0.076387
   127  H    0.094449
   128  H    0.100506
   129  H    0.064443
   130  H    0.089751
   131  H    0.078567
   132  H    0.108511
   133  H    0.079061
   134  H    0.108166
   135  H    0.084823
   136  H    0.108208
   137  H    0.110814
 Sum of Mulliken charges =  -0.00000

 Dipole moment (field-independent basis, Debye):
    X=              3.5770    Y=              5.7427    Z=             -0.1935  Tot=              6.7684
 Quadrupole moment (field-independent basis, Debye-Ang):
   XX=           -328.0421   YY=           -398.1971   ZZ=           -403.2260
   XY=            -30.6219   XZ=              4.7279   YZ=             -0.5893

 Normal termination of Gaussian 16 at Sat Sep 14 14:24:49 2019.
