 Gaussian 16, Revision A.03,
 Gaussian 16:  ES64L-G16RevA.03 25-Dec-2016

 ----------------------------------------------------------------------
 # td=(NStates=1) iop(3/107=0140000000,3/108=0140000000) CAM-B3LYP/6-31
 G(d,p)
 ----------------------------------------------------------------------

 --
 TD
 --
 Symbolic Z-matrix:
 Charge =  0 Multiplicity = 1

                         Standard orientation:
 ---------------------------------------------------------------------
 Center     Atomic      Atomic             Coordinates (Angstroms)
 Number     Number       Type             X           Y           Z
 ---------------------------------------------------------------------
      1         12           0       -7.126791    0.604807    0.105800
      2          6           0       -4.797897   -2.023232    0.512247
      3          6           0       -4.853598    2.872381    1.257692
      4          6           0       -9.248515    3.071707   -0.332377
      5          6           0       -9.506575   -1.738542   -0.902284
      6          7           0       -5.117631    0.459617    0.666706
      7          6           0       -4.371075   -0.628884    0.804872
      8          6           0       -2.986136   -0.452608    1.302786
      9          6           0       -3.038610    1.040526    1.690500
     10          6           0       -4.472099    1.528650    1.281029
     11          6           0       -2.852588    1.227415    3.219633
     12          6           0       -1.899220   -0.575392    0.180573
     13          6           0       -0.443177   -0.305501    0.589235
     14          6           0        0.490612   -0.729767   -0.454337
     15          8           0        0.199449   -0.951406   -1.603636
     16          8           0        1.806444   -0.572932   -0.104233
     17          7           0       -6.998166    2.703367    0.334850
     18          6           0       -5.961354    3.467447    0.802491
     19          6           0       -6.423675    4.870462    0.844396
     20          6           0       -7.696829    4.892700    0.340767
     21          6           0       -8.039807    3.477518    0.065417
     22          6           0       -5.511723    5.982432    1.266170
     23          6           0       -8.543246    6.033920    0.174487
     24          6           0       -8.449326    7.194890    0.845751
     25          7           0       -9.075589    0.672786   -0.612742
     26          6           0       -9.803794    1.796677   -0.769488
     27          6           0      -11.164226    1.471556   -1.363053
     28          6           0      -11.202510    0.076603   -1.327320
     29          6           0       -9.938937   -0.384187   -0.953136
     30          6           0      -12.270584    2.371578   -1.686812
     31          6           0      -12.293676   -0.714293   -1.853896
     32          6           0      -12.168394   -1.316782   -3.231245
     33          7           0       -7.144426   -1.420776   -0.277781
     34          6           0       -8.264934   -2.234355   -0.620296
     35          6           0       -7.784041   -3.676195   -0.505389
     36          6           0       -6.513626   -3.611358   -0.138878
     37          6           0       -6.155599   -2.226936    0.094732
     38          6           0       -8.491240   -4.895872   -0.852268
     39          6           0       -5.246292   -4.393677    0.171284
     40          8           0       -5.139098   -5.659078    0.206467
     41          6           0       -4.141265   -3.316025    0.596002
     42          6           0       -3.638415   -3.635773    1.962817
     43          8           0       -3.864150   -3.033843    2.969096
     44          8           0       -2.834830   -4.776619    1.877878
     45          6           0       -2.262760   -5.201821    3.126194
     46          6           0        2.816641   -0.620459   -1.162665
     47          6           0        4.139625   -0.467945   -0.604996
     48          6           0        5.036284    0.419326   -0.959915
     49          6           0        5.017566    1.206990   -2.198303
     50          6           0        6.340010    0.596409   -0.211003
     51          6           0        7.518000   -0.058958   -0.982223
     52          6           0        8.874889   -0.028617   -0.220846
     53          6           0       10.100738   -0.549202   -1.012856
     54          6           0        9.996144   -1.980169   -1.408269
     55          6           0       11.359641   -0.283936   -0.020314
     56          6           0       12.723399   -0.399149   -0.671461
     57          6           0       13.952951   -0.011089    0.203420
     58          6           0       15.325303   -0.226821   -0.454314
     59          6           0       15.569315   -1.687778   -0.643339
     60          6           0       16.360912    0.405732    0.415380
     61          6           0       17.714680    0.600000   -0.255618
     62          6           0       18.758020    1.241920    0.620257
     63          6           0       20.229155    1.202574    0.123764
     64          6           0       20.415010    1.911195   -1.187799
     65          6           0       21.258526    1.747818    1.195218
     66          1           0       -3.999244    3.417927    1.539285
     67          1           0      -10.000365    4.016356   -0.636339
     68          1           0      -10.328523   -2.559833   -1.122887
     69          1           0       -2.779674   -0.980378    2.161682
     70          1           0       -2.343745    1.645873    1.292848
     71          1           0       -1.794507    0.946656    3.430449
     72          1           0       -3.005684    2.216750    3.755024
     73          1           0       -3.506106    0.587010    3.839619
     74          1           0       -2.034226   -1.647218   -0.066779
     75          1           0       -2.366648    0.164729   -0.572105
     76          1           0       -0.301145    0.750939    0.807796
     77          1           0       -0.197638   -0.681993    1.526929
     78          1           0       -6.008614    6.821040    0.735338
     79          1           0       -5.300887    6.258519    2.318735
     80          1           0       -4.356720    5.922084    1.073447
     81          1           0       -9.300783    5.908161   -0.445869
     82          1           0       -9.057896    8.028675    0.581360
     83          1           0       -7.672062    7.488223    1.450914
     84          1           0      -12.013819    3.105602   -2.388327
     85          1           0      -13.130884    1.838688   -2.200380
     86          1           0      -12.862835    2.627137   -0.638728
     87          1           0      -12.397464   -1.631334   -1.167918
     88          1           0      -13.120073   -0.227251   -1.802472
     89          1           0      -13.010508   -1.914021   -3.401095
     90          1           0      -12.237180   -0.354733   -3.911595
     91          1           0      -11.321454   -1.886437   -3.434838
     92          1           0       -8.840734   -4.906088   -1.993203
     93          1           0       -7.901996   -5.746039   -1.023923
     94          1           0       -9.366665   -5.080009   -0.140331
     95          1           0       -3.291834   -3.557378   -0.173668
     96          1           0       -1.638550   -4.519658    3.753997
     97          1           0       -3.136171   -5.792649    3.746880
     98          1           0       -1.591950   -6.042304    2.980385
     99          1           0        2.614475   -1.442409   -1.937828
    100          1           0        2.657281    0.201093   -1.748053
    101          1           0        4.250907   -0.990737    0.264434
    102          1           0        4.046376    1.738109   -2.423337
    103          1           0        5.740785    2.077969   -1.868133
    104          1           0        5.333713    0.433126   -3.160981
    105          1           0        6.720358    1.695904   -0.272439
    106          1           0        6.406224    0.022278    0.806748
    107          1           0        7.282681   -1.178154   -1.139977
    108          1           0        7.553016    0.561881   -1.915130
    109          1           0        9.077589    1.047444    0.036315
    110          1           0        8.917066   -0.503190    0.713330
    111          1           0       10.321746    0.159041   -1.780913
    112          1           0        9.150336   -2.244591   -2.086985
    113          1           0       10.944729   -2.343310   -1.878496
    114          1           0        9.884464   -2.644656   -0.570724
    115          1           0       11.298707    0.765881    0.307608
    116          1           0       11.250316   -0.712218    1.048202
    117          1           0       12.902616   -1.495650   -1.114785
    118          1           0       12.699099    0.069579   -1.650943
    119          1           0       13.710069    1.186043    0.587341
    120          1           0       13.998541   -0.685338    1.193299
    121          1           0       15.292542    0.434083   -1.256519
    122          1           0       15.402402   -2.154882    0.289195
    123          1           0       14.784741   -2.087942   -1.306092
    124          1           0       16.603175   -1.869949   -1.080399
    125          1           0       16.065640    1.516426    0.747247
    126          1           0       16.481385   -0.295874    1.389461
    127          1           0       18.250746   -0.447968   -0.524737
    128          1           0       17.690643    1.230388   -1.079033
    129          1           0       18.425163    2.339551    0.840973
    130          1           0       18.816624    0.533899    1.687071
    131          1           0       20.541813    0.092716    0.032922
    132          1           0       20.219056    3.096812   -1.026924
    133          1           0       21.555611    1.724175   -1.367284
    134          1           0       19.780168    1.488566   -1.937134
    135          1           0       21.243156    1.447714    2.337991
    136          1           0       22.350390    1.849432    0.808608
    137          1           0       21.111791    2.957466    1.135998
 ---------------------------------------------------------------------

 SCF Done:  E(RCAM-B3LYP) =  -2933.54990833     A.U. after   16 cycles

 Excitation energies and oscillator strengths:

 Excited State   1:      Singlet-A      2.1014 eV  590.01 nm  f=0.1773  <S**2>=0.000
     240 -> 243       -0.28884
     241 -> 242        0.63588
 This state for optimization and/or second-order correction.
 Total Energy, E(TD-HF/TD-DFT) =  -2933.47268352
 Copying the excited state density for this state as the 1-particle RhoCI density.

 The electronic state is 1-A.
 Alpha  occ. eigenvalues --  -46.80775 -19.21980 -19.21139 -19.17762 -19.16877
 Alpha  occ. eigenvalues --  -19.16327 -14.38190 -14.35312 -14.35112 -14.35009
 Alpha  occ. eigenvalues --  -10.34859 -10.34259 -10.31993 -10.27611 -10.27045
 Alpha  occ. eigenvalues --  -10.26731 -10.26288 -10.25435 -10.25206 -10.25099
 Alpha  occ. eigenvalues --  -10.24901 -10.24371 -10.24288 -10.24143 -10.23887
 Alpha  occ. eigenvalues --  -10.23740 -10.23561 -10.23526 -10.23428 -10.23409
 Alpha  occ. eigenvalues --  -10.23402 -10.23076 -10.22946 -10.22874 -10.22848
 Alpha  occ. eigenvalues --  -10.22752 -10.22615 -10.22611 -10.22582 -10.22580
 Alpha  occ. eigenvalues --  -10.22467 -10.22347 -10.22240 -10.22095 -10.22032
 Alpha  occ. eigenvalues --  -10.22024 -10.22007 -10.21931 -10.21853 -10.21823
 Alpha  occ. eigenvalues --  -10.21801 -10.21724 -10.21450 -10.21127 -10.20994
 Alpha  occ. eigenvalues --  -10.20981 -10.20793 -10.20736 -10.20645 -10.20607
 Alpha  occ. eigenvalues --  -10.20340 -10.20291 -10.20196 -10.20167 -10.19921
 Alpha  occ. eigenvalues --   -3.09186  -1.84144  -1.83659  -1.83573  -1.12552
 Alpha  occ. eigenvalues --   -1.12244  -1.05140  -1.03647  -1.03505  -0.99822
 Alpha  occ. eigenvalues --   -0.98939  -0.97905  -0.96856  -0.87401  -0.87069
 Alpha  occ. eigenvalues --   -0.86102  -0.85783  -0.84999  -0.84816  -0.84333
 Alpha  occ. eigenvalues --   -0.83831  -0.83282  -0.82898  -0.82010  -0.81593
 Alpha  occ. eigenvalues --   -0.80244  -0.79608  -0.78759  -0.78537  -0.78027
 Alpha  occ. eigenvalues --   -0.76951  -0.76327  -0.75905  -0.75253  -0.73676
 Alpha  occ. eigenvalues --   -0.73418  -0.72657  -0.71248  -0.71045  -0.70467
 Alpha  occ. eigenvalues --   -0.70290  -0.69628  -0.69315  -0.68475  -0.67392
 Alpha  occ. eigenvalues --   -0.67239  -0.66200  -0.66105  -0.64748  -0.64076
 Alpha  occ. eigenvalues --   -0.63302  -0.62345  -0.61440  -0.60884  -0.59650
 Alpha  occ. eigenvalues --   -0.59566  -0.59475  -0.59254  -0.58235  -0.57533
 Alpha  occ. eigenvalues --   -0.57301  -0.56535  -0.56397  -0.56174  -0.55665
 Alpha  occ. eigenvalues --   -0.54916  -0.54393  -0.54315  -0.53427  -0.53210
 Alpha  occ. eigenvalues --   -0.52656  -0.51970  -0.51655  -0.51335  -0.50741
 Alpha  occ. eigenvalues --   -0.50378  -0.50315  -0.50210  -0.49543  -0.49294
 Alpha  occ. eigenvalues --   -0.48994  -0.48913  -0.48644  -0.48189  -0.47990
 Alpha  occ. eigenvalues --   -0.47803  -0.47703  -0.47396  -0.47274  -0.47101
 Alpha  occ. eigenvalues --   -0.46787  -0.46374  -0.46133  -0.45935  -0.45836
 Alpha  occ. eigenvalues --   -0.45659  -0.45502  -0.44993  -0.44950  -0.44798
 Alpha  occ. eigenvalues --   -0.44580  -0.44249  -0.44142  -0.43762  -0.43647
 Alpha  occ. eigenvalues --   -0.43310  -0.43093  -0.43062  -0.42772  -0.42558
 Alpha  occ. eigenvalues --   -0.42440  -0.42082  -0.41930  -0.41706  -0.41399
 Alpha  occ. eigenvalues --   -0.41250  -0.41085  -0.40887  -0.40765  -0.40722
 Alpha  occ. eigenvalues --   -0.40594  -0.40148  -0.40044  -0.39757  -0.39393
 Alpha  occ. eigenvalues --   -0.39158  -0.39049  -0.38776  -0.38743  -0.38573
 Alpha  occ. eigenvalues --   -0.38541  -0.38456  -0.38386  -0.38117  -0.38035
 Alpha  occ. eigenvalues --   -0.37737  -0.37604  -0.37413  -0.37326  -0.37299
 Alpha  occ. eigenvalues --   -0.37139  -0.37046  -0.36814  -0.36313  -0.36101
 Alpha  occ. eigenvalues --   -0.35742  -0.35503  -0.35331  -0.34989  -0.34705
 Alpha  occ. eigenvalues --   -0.34598  -0.34286  -0.34093  -0.33782  -0.33210
 Alpha  occ. eigenvalues --   -0.33193  -0.33076  -0.33050  -0.32726  -0.32443
 Alpha  occ. eigenvalues --   -0.32346  -0.32213  -0.31788  -0.31163  -0.31027
 Alpha  occ. eigenvalues --   -0.30668  -0.30281  -0.30128  -0.28035  -0.27543
 Alpha  occ. eigenvalues --   -0.26923  -0.26802  -0.25129  -0.25066  -0.21590
 Alpha  occ. eigenvalues --   -0.19596
 Alpha virt. eigenvalues --   -0.06077  -0.04617  -0.00738   0.01518   0.03108
 Alpha virt. eigenvalues --    0.03413   0.03892   0.04179   0.05124   0.05326
 Alpha virt. eigenvalues --    0.06352   0.08730   0.09015   0.09209   0.09470

 Mulliken charges:
               1
     1  Mg   0.814783
     2  C    0.091964
     3  C   -0.213006
     4  C   -0.207184
     5  C   -0.189438
     6  N   -0.636319
     7  C    0.323108
     8  C   -0.159720
     9  C   -0.146263
    10  C    0.312833
    11  C   -0.332840
    12  C   -0.152069
    13  C   -0.274374
    14  C    0.613832
    15  O   -0.460000
    16  O   -0.503238
    17  N   -0.722050
    18  C    0.328745
    19  C    0.035927
    20  C    0.021783
    21  C    0.389614
    22  C   -0.389566
    23  C   -0.051371
    24  C   -0.244080
    25  N   -0.678361
    26  C    0.281231
    27  C    0.024994
    28  C    0.055945
    29  C    0.286015
    30  C   -0.385755
    31  C   -0.230387
    32  C   -0.294374
    33  N   -0.725002
    34  C    0.274447
    35  C   -0.007060
    36  C    0.074603
    37  C    0.290131
    38  C   -0.391418
    39  C    0.369479
    40  O   -0.468688
    41  C   -0.360699
    42  C    0.650499
    43  O   -0.447556
    44  O   -0.455826
    45  C   -0.088169
    46  C    0.026612
    47  C   -0.117914
    48  C    0.158272
    49  C   -0.359915
    50  C   -0.236505
    51  C   -0.176234
    52  C   -0.170899
    53  C   -0.047353
    54  C   -0.310053
    55  C   -0.187278
    56  C   -0.172674
    57  C   -0.152674
    58  C   -0.038286
    59  C   -0.304642
    60  C   -0.146335
    61  C   -0.163192
    62  C   -0.139309
    63  C   -0.040936
    64  C   -0.293921
    65  C   -0.303429
    66  H    0.070611
    67  H    0.062872
    68  H    0.087171
    69  H    0.131820
    70  H    0.105978
    71  H    0.094579
    72  H    0.103026
    73  H    0.126244
    74  H    0.109816
    75  H    0.115572
    76  H    0.147186
    77  H    0.140122
    78  H    0.116877
    79  H    0.124179
    80  H    0.101598
    81  H    0.076942
    82  H    0.098684
    83  H    0.101951
    84  H    0.130591
    85  H    0.107161
    86  H    0.109116
    87  H    0.081765
    88  H    0.099864
    89  H    0.110843
    90  H    0.083914
    91  H    0.118149
    92  H    0.101135
    93  H    0.154113
    94  H    0.122692
    95  H    0.168223
    96  H    0.124880
    97  H    0.103344
    98  H    0.126271
    99  H    0.123015
   100  H    0.111253
   101  H    0.082646
   102  H    0.120968
   103  H    0.095068
   104  H    0.112745
   105  H    0.089718
   106  H    0.090075
   107  H    0.089501
   108  H    0.093935
   109  H    0.076584
   110  H    0.097106
   111  H    0.090960
   112  H    0.101213
   113  H    0.098114
   114  H    0.107975
   115  H    0.087334
   116  H    0.077747
   117  H    0.064734
   118  H    0.096111
   119  H    0.049776
   120  H    0.069255
   121  H    0.090043
   122  H    0.111556
   123  H    0.104650
   124  H    0.101294
   125  H    0.070764
   126  H    0.064614
   127  H    0.068053
   128  H    0.101840
   129  H    0.072800
   130  H    0.044596
   131  H    0.081594
   132  H    0.083801
   133  H    0.094815
   134  H    0.115368
   135  H    0.102652
   136  H    0.093037
   137  H    0.066945
 Sum of Mulliken charges =  -0.00000

 Dipole moment (field-independent basis, Debye):
    X=              1.7790    Y=              3.9918    Z=              0.1466  Tot=              4.3727
 Quadrupole moment (field-independent basis, Debye-Ang):
   XX=           -358.0844   YY=           -395.7078   ZZ=           -398.3847
   XY=            -16.6083   XZ=              2.3289   YZ=             -2.2939

 Normal termination of Gaussian 16 at Sun Sep 15 20:56:25 2019.
