 Gaussian 16, Revision A.03,
 Gaussian 16:  ES64L-G16RevA.03 25-Dec-2016

 ----------------------------------------------------------------------
 # td=(NStates=1) iop(3/107=0140000000,3/108=0140000000) CAM-B3LYP/6-31
 G(d,p)
 ----------------------------------------------------------------------

 --
 TD
 --
 Symbolic Z-matrix:
 Charge =  0 Multiplicity = 1

                         Standard orientation:
 ---------------------------------------------------------------------
 Center     Atomic      Atomic             Coordinates (Angstroms)
 Number     Number       Type             X           Y           Z
 ---------------------------------------------------------------------
      1         12           0       -7.251251    0.623825    0.175864
      2          6           0       -4.846644   -2.075286    0.503254
      3          6           0       -4.689513    2.745248    1.252410
      4          6           0       -9.352283    3.067533   -0.290604
      5          6           0       -9.594958   -1.679222   -0.850809
      6          7           0       -5.048877    0.395796    0.764646
      7          6           0       -4.389148   -0.744468    0.828278
      8          6           0       -2.870046   -0.453791    1.221118
      9          6           0       -3.057543    1.005578    1.684999
     10          6           0       -4.363380    1.492690    1.184875
     11          6           0       -2.963799    1.001395    3.272924
     12          6           0       -1.904540   -0.706471    0.031030
     13          6           0       -0.426167   -0.509293    0.499670
     14          6           0        0.525068   -0.739739   -0.544787
     15          8           0        0.279921   -1.070777   -1.693688
     16          8           0        1.822699   -0.436278   -0.205202
     17          7           0       -7.068547    2.660634    0.385782
     18          6           0       -6.019666    3.344432    0.824774
     19          6           0       -6.333939    4.756141    0.764988
     20          6           0       -7.629781    4.889826    0.420616
     21          6           0       -8.030260    3.484247    0.050326
     22          6           0       -5.457151    5.878387    1.310409
     23          6           0       -8.429320    6.103499    0.167305
     24          6           0       -8.321179    7.325134    0.715775
     25          7           0       -9.117246    0.675010   -0.427803
     26          6           0       -9.906086    1.922504   -0.591336
     27          6           0      -11.228084    1.599277   -1.041183
     28          6           0      -11.250887    0.208739   -1.287479
     29          6           0       -9.912567   -0.289252   -0.847661
     30          6           0      -12.222651    2.671945   -1.343679
     31          6           0      -12.337522   -0.609315   -1.916713
     32          6           0      -12.151426   -0.928413   -3.346393
     33          7           0       -7.243777   -1.381120   -0.167787
     34          6           0       -8.280072   -2.199231   -0.592061
     35          6           0       -7.874333   -3.673471   -0.649271
     36          6           0       -6.522953   -3.600528   -0.161160
     37          6           0       -6.160970   -2.225124    0.075547
     38          6           0       -8.672521   -4.737250   -1.137593
     39          6           0       -5.354312   -4.422994    0.086267
     40          8           0       -5.199038   -5.658554    0.021001
     41          6           0       -4.216893   -3.419705    0.629030
     42          6           0       -3.571935   -3.811571    1.904773
     43          8           0       -3.816647   -3.294380    2.942882
     44          8           0       -2.778780   -4.835256    1.685383
     45          6           0       -2.264304   -5.458114    2.987245
     46          6           0        2.776444   -0.811686   -1.143854
     47          6           0        4.155021   -0.416996   -0.576889
     48          6           0        5.044350    0.418268   -0.983329
     49          6           0        4.984006    1.269693   -2.215416
     50          6           0        6.357803    0.600383   -0.145561
     51          6           0        7.570718   -0.093528   -0.941485
     52          6           0        8.849992   -0.008118   -0.085783
     53          6           0       10.086246   -0.456889   -0.825939
     54          6           0       10.043258   -1.893533   -1.177814
     55          6           0       11.360623   -0.203807    0.040422
     56          6           0       12.638268   -0.395631   -0.639358
     57          6           0       13.955106   -0.019251    0.225417
     58          6           0       15.348867   -0.099403   -0.423760
     59          6           0       15.709654   -1.568655   -0.799138
     60          6           0       16.435260    0.476517    0.437690
     61          6           0       17.778620    0.477709   -0.278501
     62          6           0       18.823844    1.224890    0.633357
     63          6           0       20.225094    1.264813    0.084323
     64          6           0       20.426471    1.963366   -1.307265
     65          6           0       21.268986    1.879741    1.169577
     66          1           0       -3.884653    3.533182    1.573634
     67          1           0       -9.936439    3.923771   -0.593980
     68          1           0      -10.186364   -2.645087   -1.622316
     69          1           0       -2.666623   -1.087995    2.042286
     70          1           0       -2.312414    1.603127    1.260065
     71          1           0       -2.028034    0.644192    3.778387
     72          1           0       -3.357085    1.968948    3.573105
     73          1           0       -3.824481    0.403322    3.610580
     74          1           0       -2.209747   -1.811184   -0.253013
     75          1           0       -2.220925    0.068040   -0.834684
     76          1           0       -0.332217    0.372654    0.797927
     77          1           0       -0.131278   -1.284114    1.362699
     78          1           0       -5.834984    6.945556    0.909186
     79          1           0       -5.435981    5.872198    2.580398
     80          1           0       -4.337404    5.661069    0.986633
     81          1           0       -9.132710    6.088803   -0.640268
     82          1           0       -8.913864    8.123437    0.205118
     83          1           0       -7.646077    7.610866    1.716883
     84          1           0      -11.851322    3.318172   -2.187449
     85          1           0      -13.096518    2.080704   -1.462853
     86          1           0      -12.344600    3.233693   -0.407377
     87          1           0      -12.472045   -1.512910   -1.269293
     88          1           0      -13.370628    0.024362   -2.075031
     89          1           0      -13.116517   -1.329092   -4.021969
     90          1           0      -11.741946    0.024541   -3.870702
     91          1           0      -11.140851   -1.708018   -3.434071
     92          1           0       -9.158416   -4.535974   -2.177260
     93          1           0       -7.975372   -5.692964   -1.295288
     94          1           0       -9.476170   -5.126549   -0.366171
     95          1           0       -3.300974   -3.497286    0.065962
     96          1           0       -1.752343   -4.896038    3.805430
     97          1           0       -3.067796   -6.126924    3.507943
     98          1           0       -1.547656   -6.092146    2.671674
     99          1           0        2.638292   -1.971372   -1.215397
    100          1           0        2.579786   -0.434540   -2.133145
    101          1           0        4.403952   -0.949928    0.428063
    102          1           0        3.994778    1.346573   -2.638558
    103          1           0        5.185054    2.292665   -1.813372
    104          1           0        5.734679    1.122085   -2.985262
    105          1           0        6.598042    1.713388   -0.260616
    106          1           0        6.301691    0.217173    0.898339
    107          1           0        7.418207   -1.184885   -1.278716
    108          1           0        7.879479    0.386199   -1.981405
    109          1           0        8.795680    0.994806    0.580940
    110          1           0        8.875295   -0.902999    0.685191
    111          1           0        9.888149    0.106175   -1.619438
    112          1           0        9.203833   -2.088400   -1.895648
    113          1           0       10.928694   -2.080893   -1.805700
    114          1           0       10.151258   -2.585103   -0.383293
    115          1           0       11.295996    0.971794    0.441968
    116          1           0       11.202086   -0.479624    1.161885
    117          1           0       12.635053   -1.501251   -0.877457
    118          1           0       12.627694    0.176675   -1.673884
    119          1           0       13.594577    0.940252    0.557598
    120          1           0       13.883194   -0.866074    1.133583
    121          1           0       15.247094    0.535013   -1.413417
    122          1           0       15.989966   -1.947998    0.308310
    123          1           0       14.745461   -2.026604   -1.155177
    124          1           0       16.554795   -1.703264   -1.375554
    125          1           0       16.086393    1.593306    0.637235
    126          1           0       16.631806   -0.253148    1.530266
    127          1           0       18.081887   -0.447399   -0.557943
    128          1           0       17.916373    0.907328   -1.165104
    129          1           0       18.568220    2.252448    0.987518
    130          1           0       18.847156    0.790010    1.593246
    131          1           0       20.590735    0.125397    0.127367
    132          1           0       20.025274    2.860567   -1.146434
    133          1           0       21.450553    1.770853   -1.633596
    134          1           0       19.682294    1.464375   -1.854428
    135          1           0       21.130013    1.476355    2.214502
    136          1           0       22.389520    1.594550    1.079902
    137          1           0       21.409146    3.127643    1.394734
 ---------------------------------------------------------------------

 SCF Done:  E(RCAM-B3LYP) =  -2933.41923762     A.U. after   16 cycles

 Excitation energies and oscillator strengths:

 Excited State   1:      Singlet-A      1.9534 eV  634.72 nm  f=0.3061  <S**2>=0.000
     240 -> 243       -0.18946
     241 -> 242        0.67784
 This state for optimization and/or second-order correction.
 Total Energy, E(TD-HF/TD-DFT) =  -2933.34745292
 Copying the excited state density for this state as the 1-particle RhoCI density.

 The electronic state is 1-A.
 Alpha  occ. eigenvalues --  -46.80686 -19.23596 -19.21101 -19.16648 -19.16259
 Alpha  occ. eigenvalues --  -19.16226 -14.37613 -14.36039 -14.35736 -14.35591
 Alpha  occ. eigenvalues --  -10.33943 -10.33888 -10.31354 -10.28015 -10.27269
 Alpha  occ. eigenvalues --  -10.27131 -10.26623 -10.26107 -10.25955 -10.25451
 Alpha  occ. eigenvalues --  -10.25130 -10.24904 -10.24723 -10.24607 -10.24450
 Alpha  occ. eigenvalues --  -10.24382 -10.24314 -10.24241 -10.23976 -10.23777
 Alpha  occ. eigenvalues --  -10.23685 -10.23652 -10.23330 -10.23256 -10.23222
 Alpha  occ. eigenvalues --  -10.23217 -10.22966 -10.22965 -10.22921 -10.22857
 Alpha  occ. eigenvalues --  -10.22809 -10.22756 -10.22669 -10.22597 -10.22478
 Alpha  occ. eigenvalues --  -10.22449 -10.22288 -10.22261 -10.22200 -10.22184
 Alpha  occ. eigenvalues --  -10.22112 -10.22090 -10.21845 -10.21833 -10.21793
 Alpha  occ. eigenvalues --  -10.21458 -10.21280 -10.21188 -10.21070 -10.20957
 Alpha  occ. eigenvalues --  -10.20492 -10.20140 -10.19949 -10.19460 -10.19214
 Alpha  occ. eigenvalues --   -3.09278  -1.84213  -1.83752  -1.83681  -1.14237
 Alpha  occ. eigenvalues --   -1.13128  -1.05373  -1.04691  -1.03811  -1.00489
 Alpha  occ. eigenvalues --   -0.99531  -0.97901  -0.96865  -0.87974  -0.86406
 Alpha  occ. eigenvalues --   -0.85483  -0.85206  -0.84601  -0.84401  -0.83945
 Alpha  occ. eigenvalues --   -0.83498  -0.83255  -0.82735  -0.82625  -0.81174
 Alpha  occ. eigenvalues --   -0.79760  -0.79590  -0.79348  -0.77819  -0.77458
 Alpha  occ. eigenvalues --   -0.76569  -0.76310  -0.75790  -0.75121  -0.73549
 Alpha  occ. eigenvalues --   -0.72944  -0.72482  -0.72254  -0.71371  -0.71187
 Alpha  occ. eigenvalues --   -0.70034  -0.69692  -0.69156  -0.68478  -0.67789
 Alpha  occ. eigenvalues --   -0.67220  -0.65885  -0.65225  -0.64337  -0.63318
 Alpha  occ. eigenvalues --   -0.63095  -0.61983  -0.61268  -0.60729  -0.59895
 Alpha  occ. eigenvalues --   -0.59584  -0.58975  -0.58584  -0.57956  -0.57817
 Alpha  occ. eigenvalues --   -0.56411  -0.56322  -0.56099  -0.55365  -0.54842
 Alpha  occ. eigenvalues --   -0.54307  -0.54012  -0.53493  -0.53218  -0.52914
 Alpha  occ. eigenvalues --   -0.52729  -0.51668  -0.51239  -0.50828  -0.50783
 Alpha  occ. eigenvalues --   -0.50326  -0.50133  -0.49952  -0.49632  -0.49208
 Alpha  occ. eigenvalues --   -0.48815  -0.48707  -0.48547  -0.48211  -0.47853
 Alpha  occ. eigenvalues --   -0.47776  -0.47349  -0.46997  -0.46852  -0.46706
 Alpha  occ. eigenvalues --   -0.46516  -0.46292  -0.46260  -0.45741  -0.45662
 Alpha  occ. eigenvalues --   -0.45298  -0.45231  -0.45074  -0.44934  -0.44611
 Alpha  occ. eigenvalues --   -0.44386  -0.44132  -0.43973  -0.43893  -0.43865
 Alpha  occ. eigenvalues --   -0.43386  -0.43083  -0.42707  -0.42560  -0.42339
 Alpha  occ. eigenvalues --   -0.42180  -0.42085  -0.41971  -0.41833  -0.41706
 Alpha  occ. eigenvalues --   -0.41676  -0.41063  -0.40966  -0.40820  -0.40602
 Alpha  occ. eigenvalues --   -0.40574  -0.40366  -0.40185  -0.40058  -0.39884
 Alpha  occ. eigenvalues --   -0.39582  -0.39475  -0.39257  -0.39191  -0.38927
 Alpha  occ. eigenvalues --   -0.38849  -0.38596  -0.38383  -0.38218  -0.37953
 Alpha  occ. eigenvalues --   -0.37943  -0.37481  -0.37176  -0.37131  -0.36942
 Alpha  occ. eigenvalues --   -0.36928  -0.36691  -0.36446  -0.36189  -0.35851
 Alpha  occ. eigenvalues --   -0.35766  -0.34998  -0.34633  -0.34513  -0.34212
 Alpha  occ. eigenvalues --   -0.34054  -0.33949  -0.33617  -0.33471  -0.33430
 Alpha  occ. eigenvalues --   -0.33253  -0.32919  -0.32464  -0.32354  -0.32162
 Alpha  occ. eigenvalues --   -0.31909  -0.31831  -0.30925  -0.30711  -0.30646
 Alpha  occ. eigenvalues --   -0.30253  -0.30034  -0.29346  -0.29083  -0.27515
 Alpha  occ. eigenvalues --   -0.27292  -0.27233  -0.26417  -0.25231  -0.21912
 Alpha  occ. eigenvalues --   -0.19999
 Alpha virt. eigenvalues --   -0.07766  -0.03713  -0.00727   0.02567   0.03766
 Alpha virt. eigenvalues --    0.04126   0.04697   0.04963   0.05113   0.05843
 Alpha virt. eigenvalues --    0.06148   0.06486   0.08483   0.09129   0.09293

 Mulliken charges:
               1
     1  Mg   0.840132
     2  C    0.108790
     3  C   -0.191912
     4  C   -0.189602
     5  C   -0.184239
     6  N   -0.637378
     7  C    0.293513
     8  C   -0.154566
     9  C   -0.158696
    10  C    0.388063
    11  C   -0.320565
    12  C   -0.162365
    13  C   -0.228131
    14  C    0.598314
    15  O   -0.473170
    16  O   -0.465951
    17  N   -0.669499
    18  C    0.282378
    19  C    0.009060
    20  C    0.032083
    21  C    0.244412
    22  C   -0.355433
    23  C   -0.077331
    24  C   -0.250858
    25  N   -0.711286
    26  C    0.297509
    27  C    0.036810
    28  C    0.013814
    29  C    0.345796
    30  C   -0.362647
    31  C   -0.232278
    32  C   -0.270684
    33  N   -0.721470
    34  C    0.262288
    35  C    0.104380
    36  C    0.026115
    37  C    0.284876
    38  C   -0.428637
    39  C    0.354791
    40  O   -0.472604
    41  C   -0.338383
    42  C    0.626095
    43  O   -0.465038
    44  O   -0.439939
    45  C   -0.110250
    46  C    0.021725
    47  C   -0.142426
    48  C    0.154149
    49  C   -0.374920
    50  C   -0.228375
    51  C   -0.180730
    52  C   -0.158569
    53  C   -0.035717
    54  C   -0.316941
    55  C   -0.166054
    56  C   -0.178900
    57  C   -0.162127
    58  C   -0.049208
    59  C   -0.303805
    60  C   -0.137167
    61  C   -0.173870
    62  C   -0.175146
    63  C   -0.065210
    64  C   -0.298682
    65  C   -0.317224
    66  H    0.090742
    67  H    0.070794
    68  H    0.063923
    69  H    0.117952
    70  H    0.090312
    71  H    0.112300
    72  H    0.103926
    73  H    0.123171
    74  H    0.102652
    75  H    0.107091
    76  H    0.145539
    77  H    0.127203
    78  H    0.109433
    79  H    0.090373
    80  H    0.093687
    81  H    0.094410
    82  H    0.096885
    83  H    0.095516
    84  H    0.130780
    85  H    0.119242
    86  H    0.128997
    87  H    0.115637
    88  H    0.084462
    89  H    0.090693
    90  H    0.105242
    91  H    0.061987
    92  H    0.128857
    93  H    0.140756
    94  H    0.136324
    95  H    0.154140
    96  H    0.141064
    97  H    0.133106
    98  H    0.139061
    99  H    0.094665
   100  H    0.120628
   101  H    0.067038
   102  H    0.118268
   103  H    0.109229
   104  H    0.127575
   105  H    0.096073
   106  H    0.111654
   107  H    0.101332
   108  H    0.072497
   109  H    0.074716
   110  H    0.066229
   111  H    0.086742
   112  H    0.094782
   113  H    0.104873
   114  H    0.112819
   115  H    0.041442
   116  H    0.091931
   117  H    0.091436
   118  H    0.081953
   119  H    0.099386
   120  H    0.060562
   121  H    0.071848
   122  H    0.077909
   123  H    0.103404
   124  H    0.116779
   125  H    0.080780
   126  H    0.051423
   127  H    0.103139
   128  H    0.102810
   129  H    0.084790
   130  H    0.098391
   131  H    0.066737
   132  H    0.122022
   133  H    0.115680
   134  H    0.101120
   135  H    0.094418
   136  H    0.089949
   137  H    0.059603
 Sum of Mulliken charges =  -0.00000

 Dipole moment (field-independent basis, Debye):
    X=              0.4222    Y=              2.0382    Z=              0.1248  Tot=              2.0852
 Quadrupole moment (field-independent basis, Debye-Ang):
   XX=           -359.6432   YY=           -397.0527   ZZ=           -396.4388
   XY=            -18.3383   XZ=              7.3048   YZ=            -10.0518

 Normal termination of Gaussian 16 at Sat Sep  7 06:26:29 2019.
