 Gaussian 16, Revision A.03,
 Gaussian 16:  ES64L-G16RevA.03 25-Dec-2016

 -------------------------------------
 # td=(NStates=1) CAM-B3LYP/6-31G(d,p)
 -------------------------------------

 --
 TD
 --
 Symbolic Z-matrix:
 Charge =  0 Multiplicity = 1

                         Standard orientation:
 ---------------------------------------------------------------------
 Center     Atomic      Atomic             Coordinates (Angstroms)
 Number     Number       Type             X           Y           Z
 ---------------------------------------------------------------------
      1         12           0       -7.140884    0.575797    0.086163
      2          6           0       -4.881182   -1.991613    0.598854
      3          6           0       -4.779650    2.798649    1.015111
      4          6           0       -9.407395    3.107716   -0.320373
      5          6           0       -9.543996   -1.717873   -0.824905
      6          7           0       -5.025543    0.477368    0.650400
      7          6           0       -4.381841   -0.685230    0.687976
      8          6           0       -2.940847   -0.395337    1.003277
      9          6           0       -2.959866    1.097646    1.585628
     10          6           0       -4.362896    1.531636    1.094513
     11          6           0       -2.947532    1.303937    3.016834
     12          6           0       -1.926195   -0.577643   -0.101649
     13          6           0       -0.421634   -0.489563    0.396454
     14          6           0        0.576219   -0.749077   -0.800115
     15          8           0        0.340177   -1.139917   -1.938440
     16          8           0        1.849125   -0.367888   -0.361162
     17          7           0       -7.080289    2.612258    0.308156
     18          6           0       -5.967983    3.327412    0.729911
     19          6           0       -6.426662    4.757406    0.756638
     20          6           0       -7.754140    4.820957    0.401467
     21          6           0       -8.147198    3.362857    0.116515
     22          6           0       -5.567162    5.942125    1.126591
     23          6           0       -8.505489    5.942697    0.119678
     24          6           0       -8.498767    7.148265    0.853688
     25          7           0       -9.133738    0.678577   -0.575657
     26          6           0       -9.927226    1.814728   -0.621922
     27          6           0      -11.269082    1.483770   -1.139593
     28          6           0      -11.298103    0.152777   -1.225450
     29          6           0       -9.933970   -0.475428   -0.912200
     30          6           0      -12.330453    2.546938   -1.363335
     31          6           0      -12.404947   -0.665565   -1.635617
     32          6           0      -12.453635   -1.003778   -3.116283
     33          7           0       -7.246271   -1.439781   -0.108783
     34          6           0       -8.246242   -2.259178   -0.424266
     35          6           0       -7.913779   -3.596374   -0.405025
     36          6           0       -6.534813   -3.536120    0.020680
     37          6           0       -6.215852   -2.202535    0.120253
     38          6           0       -8.771852   -4.888031   -0.622409
     39          6           0       -5.312934   -4.376980    0.312879
     40          8           0       -5.171852   -5.570500    0.193835
     41          6           0       -4.201380   -3.318174    0.563450
     42          6           0       -3.611854   -3.621463    1.938746
     43          8           0       -3.772024   -2.971784    3.003410
     44          8           0       -2.786251   -4.570240    1.865497
     45          6           0       -2.211374   -4.969267    3.084036
     46          6           0        2.818778   -0.707466   -1.304083
     47          6           0        4.097712   -0.520832   -0.608059
     48          6           0        5.177542    0.230280   -1.048219
     49          6           0        5.301274    1.149654   -2.305720
     50          6           0        6.446156    0.227502   -0.257749
     51          6           0        7.703424   -0.287185   -0.959012
     52          6           0        8.997530   -0.177951   -0.142264
     53          6           0       10.211018   -0.761656   -0.878497
     54          6           0       10.190989   -2.224636   -1.271761
     55          6           0       11.395905   -0.472203   -0.012206
     56          6           0       12.858386   -0.504274   -0.708663
     57          6           0       14.037997    0.050221    0.168542
     58          6           0       15.351221   -0.146329   -0.472437
     59          6           0       15.785751   -1.661245   -0.757684
     60          6           0       16.408084    0.488503    0.491009
     61          6           0       17.821236    0.718629   -0.054224
     62          6           0       18.815031    1.358039    0.814832
     63          6           0       20.245099    1.423640    0.339869
     64          6           0       20.200580    2.069920   -1.056647
     65          6           0       21.115687    2.129650    1.328219
     66          1           0       -3.824272    3.540507    1.448571
     67          1           0      -10.125677    3.997861   -0.255860
     68          1           0      -10.367946   -2.348256   -1.360568
     69          1           0       -2.504968   -1.129488    1.988026
     70          1           0       -2.224195    1.650900    1.081785
     71          1           0       -2.000590    1.074563    3.129497
     72          1           0       -3.352835    2.330076    3.335713
     73          1           0       -3.508580    0.651111    3.462075
     74          1           0       -2.044046   -1.353070   -0.802625
     75          1           0       -2.249276    0.211120   -1.072297
     76          1           0       -0.235697    0.597584    0.825361
     77          1           0       -0.258380   -1.250467    1.179777
     78          1           0       -5.961657    6.890510    0.603869
     79          1           0       -5.702636    6.173785    2.267277
     80          1           0       -4.522252    5.818513    1.111037
     81          1           0       -9.212000    5.810399   -0.736429
     82          1           0       -9.088353    8.076777    0.680297
     83          1           0       -7.600770    7.068869    1.695468
     84          1           0      -12.199552    3.381441   -2.120103
     85          1           0      -13.307130    2.076622   -1.932799
     86          1           0      -12.689104    3.103042   -0.414812
     87          1           0      -12.328351   -1.458699   -1.074043
     88          1           0      -13.482611   -0.320966   -1.411511
     89          1           0      -13.352317   -1.811777   -3.089927
     90          1           0      -12.772504   -0.138822   -3.837340
     91          1           0      -11.459551   -1.525580   -3.267862
     92          1           0       -9.226208   -5.313029   -1.652048
     93          1           0       -8.132961   -5.738796   -0.605363
     94          1           0       -9.635877   -4.948069    0.331139
     95          1           0       -3.450321   -3.549823   -0.261319
     96          1           0       -1.233450   -4.227073    3.342052
     97          1           0       -2.885507   -5.158661    3.941857
     98          1           0       -1.643439   -5.974970    3.059254
     99          1           0        2.689227   -1.696862   -1.797974
    100          1           0        2.800631   -0.011968   -2.317860
    101          1           0        4.073224   -1.054159    0.265721
    102          1           0        4.232747    1.561429   -2.602594
    103          1           0        5.821279    2.107373   -2.037817
    104          1           0        5.733664    0.534290   -3.269033
    105          1           0        6.597031    1.201831    0.164588
    106          1           0        6.150189   -0.369865    0.628169
    107          1           0        7.522549   -1.360361   -1.281184
    108          1           0        7.802885    0.340576   -1.867356
    109          1           0        9.042997    0.906531   -0.134172
    110          1           0        9.037208   -0.778854    0.873150
    111          1           0       10.205864   -0.278114   -1.888950
    112          1           0        9.413769   -2.784462   -2.154228
    113          1           0       11.279663   -2.471253   -1.660031
    114          1           0       10.179392   -2.769562   -0.343296
    115          1           0       11.246527    0.456646    0.307315
    116          1           0       11.446689   -1.143159    0.743867
    117          1           0       12.977138   -1.622334   -0.991195
    118          1           0       13.011057   -0.051396   -1.640573
    119          1           0       13.913132    1.010530    0.587476
    120          1           0       14.011741   -0.517942    1.222268
    121          1           0       15.351712    0.341536   -1.381051
    122          1           0       15.646540   -2.141662    0.214534
    123          1           0       14.985862   -2.070614   -1.611214
    124          1           0       16.841068   -1.880713   -1.109010
    125          1           0       16.159595    1.581434    0.738611
    126          1           0       16.441793    0.139207    1.443214
    127          1           0       18.175723   -0.348656   -0.629125
    128          1           0       17.472141    1.269233   -1.120365
    129          1           0       18.392027    2.376597    1.236262
    130          1           0       18.912195    0.703551    1.758051
    131          1           0       20.741236    0.474740    0.186285
    132          1           0       19.696170    3.110047   -1.192520
    133          1           0       21.320384    2.157546   -1.335329
    134          1           0       19.721591    1.582068   -1.780652
    135          1           0       21.102711    1.728210    2.401543
    136          1           0       22.118392    2.128123    1.199217
    137          1           0       20.747218    3.173102    1.517532
 ---------------------------------------------------------------------

 SCF Done:  E(RCAM-B3LYP) =  -2932.56645291     A.U. after   16 cycles

 Excitation energies and oscillator strengths:

 Excited State   1:      Singlet-A      2.3054 eV  537.81 nm  f=0.3582  <S**2>=0.000
     240 -> 243        0.18770
     241 -> 242        0.67410
 This state for optimization and/or second-order correction.
 Total Energy, E(TD-HF/TD-DFT) =  -2932.48173229
 Copying the excited state density for this state as the 1-particle RhoCI density.

 The electronic state is 1-A.
 Alpha  occ. eigenvalues --  -46.85092 -19.28312 -19.26936 -19.22867 -19.19944
 Alpha  occ. eigenvalues --  -19.19369 -14.41851 -14.40108 -14.39720 -14.38577
 Alpha  occ. eigenvalues --  -10.40771 -10.39000 -10.34654 -10.33561 -10.31666
 Alpha  occ. eigenvalues --  -10.31634 -10.30904 -10.30837 -10.30591 -10.30178
 Alpha  occ. eigenvalues --  -10.29950 -10.29070 -10.28959 -10.28813 -10.28746
 Alpha  occ. eigenvalues --  -10.28742 -10.28415 -10.28271 -10.28256 -10.28250
 Alpha  occ. eigenvalues --  -10.27890 -10.27871 -10.27632 -10.27631 -10.27561
 Alpha  occ. eigenvalues --  -10.27484 -10.27359 -10.27285 -10.27225 -10.27196
 Alpha  occ. eigenvalues --  -10.27072 -10.26982 -10.26845 -10.26796 -10.26731
 Alpha  occ. eigenvalues --  -10.26673 -10.26658 -10.26375 -10.26190 -10.25916
 Alpha  occ. eigenvalues --  -10.25875 -10.25800 -10.25724 -10.25720 -10.25579
 Alpha  occ. eigenvalues --  -10.25511 -10.25200 -10.24918 -10.24897 -10.24450
 Alpha  occ. eigenvalues --  -10.24022 -10.24002 -10.23638 -10.23631 -10.23303
 Alpha  occ. eigenvalues --   -3.13983  -1.88710  -1.88214  -1.88147  -1.22409
 Alpha  occ. eigenvalues --   -1.18311  -1.10944  -1.10131  -1.06836  -1.06119
 Alpha  occ. eigenvalues --   -1.05357  -1.04326  -1.01130  -0.92966  -0.91323
 Alpha  occ. eigenvalues --   -0.90627  -0.90612  -0.90346  -0.90109  -0.89656
 Alpha  occ. eigenvalues --   -0.89318  -0.88851  -0.88137  -0.86793  -0.85559
 Alpha  occ. eigenvalues --   -0.84754  -0.84303  -0.83678  -0.83317  -0.82643
 Alpha  occ. eigenvalues --   -0.81997  -0.81450  -0.80086  -0.78986  -0.77802
 Alpha  occ. eigenvalues --   -0.77565  -0.76983  -0.76376  -0.76147  -0.75390
 Alpha  occ. eigenvalues --   -0.75200  -0.74970  -0.74572  -0.73263  -0.72422
 Alpha  occ. eigenvalues --   -0.71637  -0.70539  -0.69550  -0.68951  -0.68123
 Alpha  occ. eigenvalues --   -0.67538  -0.66294  -0.65805  -0.65339  -0.64948
 Alpha  occ. eigenvalues --   -0.64169  -0.63975  -0.63677  -0.62716  -0.62299
 Alpha  occ. eigenvalues --   -0.62001  -0.60974  -0.60431  -0.59973  -0.59712
 Alpha  occ. eigenvalues --   -0.58870  -0.58445  -0.58152  -0.57636  -0.57360
 Alpha  occ. eigenvalues --   -0.56398  -0.56128  -0.55562  -0.55333  -0.55291
 Alpha  occ. eigenvalues --   -0.54732  -0.54214  -0.54037  -0.53443  -0.53105
 Alpha  occ. eigenvalues --   -0.52868  -0.52564  -0.52487  -0.52142  -0.51879
 Alpha  occ. eigenvalues --   -0.51598  -0.51357  -0.51046  -0.50529  -0.50422
 Alpha  occ. eigenvalues --   -0.50128  -0.49629  -0.49435  -0.49424  -0.49372
 Alpha  occ. eigenvalues --   -0.49149  -0.48864  -0.48623  -0.48358  -0.48096
 Alpha  occ. eigenvalues --   -0.48041  -0.47991  -0.47872  -0.47442  -0.47279
 Alpha  occ. eigenvalues --   -0.46994  -0.46864  -0.46122  -0.45715  -0.45585
 Alpha  occ. eigenvalues --   -0.45576  -0.45360  -0.45242  -0.45018  -0.44589
 Alpha  occ. eigenvalues --   -0.44362  -0.44295  -0.44072  -0.43997  -0.43859
 Alpha  occ. eigenvalues --   -0.43729  -0.43548  -0.43256  -0.43076  -0.42928
 Alpha  occ. eigenvalues --   -0.42837  -0.42520  -0.42421  -0.42355  -0.42216
 Alpha  occ. eigenvalues --   -0.42059  -0.41778  -0.41715  -0.41539  -0.41380
 Alpha  occ. eigenvalues --   -0.41189  -0.41017  -0.40576  -0.40271  -0.40178
 Alpha  occ. eigenvalues --   -0.39924  -0.39696  -0.39450  -0.39117  -0.38957
 Alpha  occ. eigenvalues --   -0.38813  -0.38628  -0.38525  -0.37877  -0.37681
 Alpha  occ. eigenvalues --   -0.37589  -0.37545  -0.37127  -0.36848  -0.36705
 Alpha  occ. eigenvalues --   -0.36403  -0.35679  -0.35383  -0.35284  -0.35146
 Alpha  occ. eigenvalues --   -0.34750  -0.34698  -0.34329  -0.33711  -0.33338
 Alpha  occ. eigenvalues --   -0.33062  -0.32803  -0.32580  -0.31498  -0.29471
 Alpha  occ. eigenvalues --   -0.29104  -0.28897  -0.28192  -0.27669  -0.23873
 Alpha  occ. eigenvalues --   -0.21618
 Alpha virt. eigenvalues --   -0.06564  -0.02441   0.01559   0.03292   0.04646
 Alpha virt. eigenvalues --    0.05436   0.05753   0.06142   0.06339   0.07637
 Alpha virt. eigenvalues --    0.08493   0.10021   0.10358   0.10718   0.11119

 Mulliken charges:
               1
     1  Mg   0.819990
     2  C    0.130347
     3  C   -0.200253
     4  C   -0.200856
     5  C   -0.179149
     6  N   -0.631847
     7  C    0.305831
     8  C   -0.169899
     9  C   -0.148842
    10  C    0.322302
    11  C   -0.277428
    12  C   -0.170884
    13  C   -0.257964
    14  C    0.609990
    15  O   -0.456557
    16  O   -0.463015
    17  N   -0.759900
    18  C    0.352413
    19  C    0.035049
    20  C    0.017226
    21  C    0.396828
    22  C   -0.391559
    23  C   -0.110846
    24  C   -0.257944
    25  N   -0.703031
    26  C    0.288227
    27  C    0.076940
    28  C    0.018792
    29  C    0.320077
    30  C   -0.382652
    31  C   -0.252408
    32  C   -0.285608
    33  N   -0.714116
    34  C    0.238899
    35  C    0.021589
    36  C   -0.047914
    37  C    0.281627
    38  C   -0.361348
    39  C    0.376549
    40  O   -0.456002
    41  C   -0.355419
    42  C    0.621921
    43  O   -0.517132
    44  O   -0.368934
    45  C   -0.087989
    46  C    0.007452
    47  C   -0.121082
    48  C    0.107233
    49  C   -0.356684
    50  C   -0.223165
    51  C   -0.187905
    52  C   -0.156321
    53  C   -0.063753
    54  C   -0.297284
    55  C   -0.168554
    56  C   -0.201698
    57  C   -0.166867
    58  C   -0.053064
    59  C   -0.298354
    60  C   -0.182505
    61  C   -0.151721
    62  C   -0.155153
    63  C   -0.048758
    64  C   -0.300083
    65  C   -0.310890
    66  H    0.076006
    67  H    0.096994
    68  H    0.097633
    69  H    0.083897
    70  H    0.107321
    71  H    0.110797
    72  H    0.099590
    73  H    0.141983
    74  H    0.138992
    75  H    0.064234
    76  H    0.131400
    77  H    0.145870
    78  H    0.129382
    79  H    0.112174
    80  H    0.119329
    81  H    0.102992
    82  H    0.124028
    83  H    0.094132
    84  H    0.124237
    85  H    0.091916
    86  H    0.121542
    87  H    0.120509
    88  H    0.095136
    89  H    0.084819
    90  H    0.110276
    91  H    0.108525
    92  H    0.098419
    93  H    0.148826
    94  H    0.090143
    95  H    0.173349
    96  H    0.092206
    97  H    0.150930
    98  H    0.117135
    99  H    0.131472
   100  H    0.081646
   101  H    0.093782
   102  H    0.102104
   103  H    0.117363
   104  H    0.114455
   105  H    0.097184
   106  H    0.090431
   107  H    0.094916
   108  H    0.095487
   109  H    0.099768
   110  H    0.077183
   111  H    0.080166
   112  H    0.074572
   113  H    0.090239
   114  H    0.099799
   115  H    0.103400
   116  H    0.105766
   117  H    0.084584
   118  H    0.097620
   119  H    0.106797
   120  H    0.058281
   121  H    0.095372
   122  H    0.109097
   123  H    0.074751
   124  H    0.106912
   125  H    0.071919
   126  H    0.098580
   127  H    0.050856
   128  H    0.056092
   129  H    0.084810
   130  H    0.083448
   131  H    0.098368
   132  H    0.082427
   133  H    0.075189
   134  H    0.123325
   135  H    0.084913
   136  H    0.110243
   137  H    0.096016
 Sum of Mulliken charges =  -0.00000

 Dipole moment (field-independent basis, Debye):
    X=              0.9823    Y=              5.6824    Z=              0.9790  Tot=              5.8492
 Quadrupole moment (field-independent basis, Debye-Ang):
   XX=           -345.6826   YY=           -393.5191   ZZ=           -399.9973
   XY=            -36.7445   XZ=             17.0041   YZ=             -2.5278

 Normal termination of Gaussian 16 at Sun Jun 30 07:49:32 2019.
