 Gaussian 16, Revision A.03,
 Gaussian 16:  ES64L-G16RevA.03 25-Dec-2016

 ----------------------------------------------------------------------
 # td=(NStates=1) iop(3/107=0140000000,3/108=0140000000) CAM-B3LYP/6-31
 G(d,p)
 ----------------------------------------------------------------------

 --
 TD
 --
 Symbolic Z-matrix:
 Charge =  0 Multiplicity = 1

                         Standard orientation:
 ---------------------------------------------------------------------
 Center     Atomic      Atomic             Coordinates (Angstroms)
 Number     Number       Type             X           Y           Z
 ---------------------------------------------------------------------
      1         12           0       -7.180642    0.601799    0.044459
      2          6           0       -4.807786   -1.999442    0.537588
      3          6           0       -4.818048    2.825885    1.207964
      4          6           0       -9.391149    3.124957   -0.428768
      5          6           0       -9.581664   -1.707838   -0.778025
      6          7           0       -5.178817    0.475089    0.747155
      7          6           0       -4.343763   -0.665592    0.858800
      8          6           0       -2.928101   -0.336180    1.233923
      9          6           0       -2.986859    1.146225    1.567462
     10          6           0       -4.460302    1.595662    1.160896
     11          6           0       -2.661717    1.450328    3.043030
     12          6           0       -1.943891   -0.727459    0.112292
     13          6           0       -0.451779   -0.534002    0.582604
     14          6           0        0.493342   -0.826518   -0.515410
     15          8           0        0.360310   -1.241409   -1.652904
     16          8           0        1.795853   -0.579760   -0.040000
     17          7           0       -7.184308    2.694201    0.370595
     18          6           0       -6.151522    3.385712    0.714534
     19          6           0       -6.429340    4.890076    0.658736
     20          6           0       -7.755088    4.935338    0.248778
     21          6           0       -8.121425    3.502646    0.072916
     22          6           0       -5.590141    6.006416    1.052311
     23          6           0       -8.597210    5.974034    0.196089
     24          6           0       -8.400731    7.247210    0.602502
     25          7           0       -9.095275    0.675825   -0.446992
     26          6           0       -9.828314    1.837932   -0.623110
     27          6           0      -11.147580    1.436178   -1.104484
     28          6           0      -11.183180    0.038667   -1.339306
     29          6           0       -9.890812   -0.396867   -0.843995
     30          6           0      -12.272431    2.464146   -1.453672
     31          6           0      -12.434399   -0.634014   -1.651008
     32          6           0      -12.554188   -1.179187   -3.192085
     33          7           0       -7.231296   -1.402722   -0.183943
     34          6           0       -8.242717   -2.296675   -0.573371
     35          6           0       -7.828151   -3.611741   -0.486081
     36          6           0       -6.481354   -3.521069   -0.083434
     37          6           0       -6.160399   -2.181867    0.063702
     38          6           0       -8.550807   -4.823925   -0.869675
     39          6           0       -5.346695   -4.380675    0.246882
     40          8           0       -5.216144   -5.684493    0.332607
     41          6           0       -4.102721   -3.331623    0.598586
     42          6           0       -3.304000   -3.621664    1.902568
     43          8           0       -3.652637   -3.067651    2.918539
     44          8           0       -2.542559   -4.760154    1.708282
     45          6           0       -1.981598   -5.275104    2.934203
     46          6           0        2.776543   -0.889738   -1.023397
     47          6           0        4.146169   -0.640162   -0.462525
     48          6           0        5.067075    0.257363   -0.965039
     49          6           0        4.993085    1.101800   -2.248182
     50          6           0        6.370218    0.351634   -0.194501
     51          6           0        7.627887   -0.313472   -0.954421
     52          6           0        8.931412   -0.111918   -0.240991
     53          6           0       10.225809   -0.513043   -0.873997
     54          6           0       10.158103   -2.048817   -1.260253
     55          6           0       11.477035   -0.222505   -0.055201
     56          6           0       12.808582   -0.550748   -0.639313
     57          6           0       13.971895   -0.191571    0.173504
     58          6           0       15.287839   -0.217499   -0.565403
     59          6           0       15.671340   -1.625425   -1.128546
     60          6           0       16.319083    0.389094    0.371959
     61          6           0       17.851047    0.616838   -0.313690
     62          6           0       18.719223    1.395858    0.744159
     63          6           0       20.154964    1.445721    0.295617
     64          6           0       20.333892    2.245371   -0.991821
     65          6           0       20.996150    2.144148    1.261210
     66          1           0       -4.115295    3.525287    1.688112
     67          1           0      -10.282502    3.803870   -0.695567
     68          1           0      -10.614183   -2.232109   -1.114411
     69          1           0       -2.857907   -0.874361    2.282145
     70          1           0       -2.251152    1.687032    0.897213
     71          1           0       -1.572423    1.146315    2.991868
     72          1           0       -2.514151    2.620041    3.108664
     73          1           0       -3.500512    1.216170    3.807105
     74          1           0       -2.130314   -1.710752   -0.347784
     75          1           0       -2.042202    0.033189   -0.642214
     76          1           0       -0.268751    0.525065    1.116104
     77          1           0       -0.226824   -1.290478    1.491486
     78          1           0       -5.800581    6.870361    0.581111
     79          1           0       -5.711536    6.104660    2.133166
     80          1           0       -4.523426    5.847066    0.808897
     81          1           0       -9.358154    6.046634   -0.492591
     82          1           0       -9.090889    8.023828    0.549539
     83          1           0       -7.537352    7.471489    1.362232
     84          1           0      -11.794107    3.061132   -2.136073
     85          1           0      -13.227545    1.960651   -1.842658
     86          1           0      -12.930937    2.929233   -0.544980
     87          1           0      -12.523455   -1.438981   -0.858780
     88          1           0      -13.491773    0.101290   -1.303236
     89          1           0      -13.394589   -1.851322   -3.371550
     90          1           0      -12.705028   -0.353733   -3.957822
     91          1           0      -11.601041   -1.573385   -3.528101
     92          1           0       -8.978520   -4.791235   -1.847917
     93          1           0       -8.092148   -5.689977   -0.714779
     94          1           0       -9.372611   -4.961210   -0.048261
     95          1           0       -3.452401   -3.591907   -0.256176
     96          1           0       -1.436655   -4.598903    3.488401
     97          1           0       -2.826746   -5.575700    3.446390
     98          1           0       -1.324536   -5.963732    2.562442
     99          1           0        2.687616   -1.988105   -1.216943
    100          1           0        2.683216   -0.351906   -1.881513
    101          1           0        4.425157   -1.078412    0.598126
    102          1           0        3.960408    1.335437   -2.586676
    103          1           0        5.474874    2.022588   -1.911317
    104          1           0        5.460045    0.561533   -2.941035
    105          1           0        6.789759    1.371384   -0.055194
    106          1           0        6.271927   -0.074572    0.743865
    107          1           0        7.273668   -1.141923   -1.045372
    108          1           0        7.497336    0.319961   -2.176148
    109          1           0        9.189843    1.016741    0.148972
    110          1           0        8.857328   -0.644483    0.642934
    111          1           0       10.389990   -0.013567   -1.872756
    112          1           0        9.276664   -2.027905   -1.773464
    113          1           0       10.987289   -2.550189   -1.896884
    114          1           0       10.027817   -2.638099   -0.401509
    115          1           0       11.287583    0.827297    0.326962
    116          1           0       11.336511   -0.808336    0.855891
    117          1           0       12.879289   -1.756051   -0.897533
    118          1           0       12.812192   -0.046601   -1.528428
    119          1           0       13.826465    0.752510    0.608863
    120          1           0       14.039440   -0.780666    1.121319
    121          1           0       15.120690    0.494765   -1.446899
    122          1           0       15.642321   -2.352322   -0.210265
    123          1           0       14.908146   -1.959014   -1.759061
    124          1           0       16.595612   -1.450483   -1.562913
    125          1           0       16.118364    1.443308    0.774683
    126          1           0       16.324345   -0.082630    1.318754
    127          1           0       18.206784   -0.313888   -0.806905
    128          1           0       17.706228    1.120048   -1.160864
    129          1           0       18.355875    2.554081    0.898698
    130          1           0       18.851574    0.634306    1.609369
    131          1           0       20.504779    0.258344    0.207667
    132          1           0       20.028493    3.259730   -0.828362
    133          1           0       21.400954    2.405953   -1.383895
    134          1           0       19.820025    1.861620   -1.611158
    135          1           0       20.970636    1.672117    2.362645
    136          1           0       22.120988    2.173359    1.107345
    137          1           0       20.572020    3.250559    1.444971
 ---------------------------------------------------------------------

 SCF Done:  E(RCAM-B3LYP) =  -2933.40737574     A.U. after   16 cycles

 Excitation energies and oscillator strengths:

 Excited State   1:      Singlet-A      1.9403 eV  638.98 nm  f=0.3722  <S**2>=0.000
     240 -> 243       -0.17133
     241 -> 242        0.68215
 This state for optimization and/or second-order correction.
 Total Energy, E(TD-HF/TD-DFT) =  -2933.33606952
 Copying the excited state density for this state as the 1-particle RhoCI density.

 The electronic state is 1-A.
 Alpha  occ. eigenvalues --  -46.80134 -19.22132 -19.20695 -19.17704 -19.17334
 Alpha  occ. eigenvalues --  -19.15240 -14.37467 -14.36645 -14.35244 -14.34949
 Alpha  occ. eigenvalues --  -10.34956 -10.34727 -10.30679 -10.27059 -10.26725
 Alpha  occ. eigenvalues --  -10.26002 -10.25781 -10.25575 -10.25530 -10.25162
 Alpha  occ. eigenvalues --  -10.25034 -10.24838 -10.24780 -10.24704 -10.24293
 Alpha  occ. eigenvalues --  -10.24090 -10.23964 -10.23650 -10.23595 -10.23430
 Alpha  occ. eigenvalues --  -10.23302 -10.23243 -10.23224 -10.23061 -10.22967
 Alpha  occ. eigenvalues --  -10.22938 -10.22906 -10.22877 -10.22809 -10.22389
 Alpha  occ. eigenvalues --  -10.22377 -10.22281 -10.22036 -10.22016 -10.21935
 Alpha  occ. eigenvalues --  -10.21816 -10.21806 -10.21618 -10.21525 -10.21469
 Alpha  occ. eigenvalues --  -10.21414 -10.21336 -10.21118 -10.21090 -10.21006
 Alpha  occ. eigenvalues --  -10.20882 -10.20763 -10.20510 -10.20500 -10.20302
 Alpha  occ. eigenvalues --  -10.20222 -10.19943 -10.19242 -10.18981 -10.17926
 Alpha  occ. eigenvalues --   -3.08786  -1.83719  -1.83241  -1.83211  -1.12130
 Alpha  occ. eigenvalues --   -1.11954  -1.05142  -1.03836  -1.03236  -0.99988
 Alpha  occ. eigenvalues --   -0.98559  -0.97186  -0.96405  -0.86494  -0.86350
 Alpha  occ. eigenvalues --   -0.86156  -0.85390  -0.85059  -0.84816  -0.84200
 Alpha  occ. eigenvalues --   -0.83707  -0.82909  -0.82630  -0.82114  -0.81097
 Alpha  occ. eigenvalues --   -0.80268  -0.79834  -0.78614  -0.77848  -0.77413
 Alpha  occ. eigenvalues --   -0.76674  -0.76404  -0.75487  -0.75150  -0.74313
 Alpha  occ. eigenvalues --   -0.73482  -0.72679  -0.71862  -0.71812  -0.71296
 Alpha  occ. eigenvalues --   -0.71210  -0.71017  -0.69846  -0.69300  -0.68243
 Alpha  occ. eigenvalues --   -0.66691  -0.66449  -0.65129  -0.64788  -0.64665
 Alpha  occ. eigenvalues --   -0.63560  -0.63051  -0.61204  -0.61077  -0.59800
 Alpha  occ. eigenvalues --   -0.59217  -0.59022  -0.58437  -0.58222  -0.57975
 Alpha  occ. eigenvalues --   -0.56661  -0.56356  -0.56324  -0.55718  -0.54986
 Alpha  occ. eigenvalues --   -0.54609  -0.54455  -0.53554  -0.52767  -0.52342
 Alpha  occ. eigenvalues --   -0.52144  -0.52084  -0.51226  -0.51053  -0.50891
 Alpha  occ. eigenvalues --   -0.50623  -0.50146  -0.49894  -0.49535  -0.49324
 Alpha  occ. eigenvalues --   -0.49231  -0.48886  -0.48670  -0.48515  -0.48120
 Alpha  occ. eigenvalues --   -0.47884  -0.47817  -0.47664  -0.47266  -0.47144
 Alpha  occ. eigenvalues --   -0.47030  -0.46897  -0.46625  -0.46488  -0.45971
 Alpha  occ. eigenvalues --   -0.45839  -0.45604  -0.45324  -0.45104  -0.44926
 Alpha  occ. eigenvalues --   -0.44773  -0.44714  -0.44519  -0.44184  -0.43780
 Alpha  occ. eigenvalues --   -0.43657  -0.43425  -0.43191  -0.43047  -0.42836
 Alpha  occ. eigenvalues --   -0.42306  -0.42253  -0.41835  -0.41726  -0.41370
 Alpha  occ. eigenvalues --   -0.41209  -0.41045  -0.40976  -0.40731  -0.40550
 Alpha  occ. eigenvalues --   -0.40532  -0.40098  -0.40015  -0.39869  -0.39668
 Alpha  occ. eigenvalues --   -0.39658  -0.39512  -0.39179  -0.39127  -0.38790
 Alpha  occ. eigenvalues --   -0.38715  -0.38463  -0.38357  -0.38193  -0.37983
 Alpha  occ. eigenvalues --   -0.37823  -0.37629  -0.37490  -0.37341  -0.36903
 Alpha  occ. eigenvalues --   -0.36832  -0.36452  -0.36190  -0.36180  -0.35838
 Alpha  occ. eigenvalues --   -0.35712  -0.35322  -0.35271  -0.34950  -0.34561
 Alpha  occ. eigenvalues --   -0.34325  -0.34300  -0.33886  -0.33815  -0.33402
 Alpha  occ. eigenvalues --   -0.33244  -0.33017  -0.32950  -0.32716  -0.32680
 Alpha  occ. eigenvalues --   -0.32623  -0.32335  -0.32270  -0.31077  -0.30421
 Alpha  occ. eigenvalues --   -0.30299  -0.30283  -0.29009  -0.28861  -0.26490
 Alpha  occ. eigenvalues --   -0.26202  -0.25775  -0.25643  -0.25088  -0.21886
 Alpha  occ. eigenvalues --   -0.20061
 Alpha virt. eigenvalues --   -0.08048  -0.03346  -0.00172   0.01431   0.02258
 Alpha virt. eigenvalues --    0.02670   0.03931   0.04044   0.05059   0.05804
 Alpha virt. eigenvalues --    0.06528   0.07413   0.08604   0.09106   0.09488

 Mulliken charges:
               1
     1  Mg   0.819578
     2  C    0.065887
     3  C   -0.204973
     4  C   -0.175878
     5  C   -0.172616
     6  N   -0.649475
     7  C    0.276875
     8  C   -0.143444
     9  C   -0.161438
    10  C    0.382782
    11  C   -0.302707
    12  C   -0.175697
    13  C   -0.272556
    14  C    0.626450
    15  O   -0.468755
    16  O   -0.490681
    17  N   -0.630935
    18  C    0.256673
    19  C    0.010021
    20  C    0.073546
    21  C    0.301862
    22  C   -0.389546
    23  C   -0.092017
    24  C   -0.258185
    25  N   -0.734335
    26  C    0.332159
    27  C   -0.016237
    28  C    0.065216
    29  C    0.323533
    30  C   -0.370685
    31  C   -0.248044
    32  C   -0.326887
    33  N   -0.737184
    34  C    0.230260
    35  C    0.043026
    36  C    0.025568
    37  C    0.329279
    38  C   -0.369868
    39  C    0.326614
    40  O   -0.512217
    41  C   -0.310320
    42  C    0.618903
    43  O   -0.453024
    44  O   -0.459541
    45  C   -0.085234
    46  C    0.046597
    47  C   -0.148978
    48  C    0.101313
    49  C   -0.357361
    50  C   -0.244389
    51  C   -0.124043
    52  C   -0.165598
    53  C   -0.065763
    54  C   -0.321996
    55  C   -0.168390
    56  C   -0.155225
    57  C   -0.166641
    58  C   -0.061795
    59  C   -0.298283
    60  C   -0.182397
    61  C   -0.207270
    62  C   -0.146407
    63  C   -0.052949
    64  C   -0.272356
    65  C   -0.277878
    66  H    0.079278
    67  H    0.095835
    68  H    0.085067
    69  H    0.134996
    70  H    0.097692
    71  H    0.110572
    72  H    0.087065
    73  H    0.134112
    74  H    0.132999
    75  H    0.125722
    76  H    0.131283
    77  H    0.134588
    78  H    0.137810
    79  H    0.133478
    80  H    0.108069
    81  H    0.091272
    82  H    0.104164
    83  H    0.077623
    84  H    0.136799
    85  H    0.105582
    86  H    0.102309
    87  H    0.115032
    88  H    0.065839
    89  H    0.115462
    90  H    0.109861
    91  H    0.122490
    92  H    0.129231
    93  H    0.152290
    94  H    0.106114
    95  H    0.149085
    96  H    0.127662
    97  H    0.146059
    98  H    0.131108
    99  H    0.110386
   100  H    0.112136
   101  H    0.074395
   102  H    0.111765
   103  H    0.121044
   104  H    0.146278
   105  H    0.094409
   106  H    0.101704
   107  H    0.114374
   108  H    0.022341
   109  H    0.066557
   110  H    0.106972
   111  H    0.074832
   112  H    0.112436
   113  H    0.090195
   114  H    0.100114
   115  H    0.071231
   116  H    0.081304
   117  H    0.067011
   118  H    0.098570
   119  H    0.093925
   120  H    0.077742
   121  H    0.069667
   122  H    0.086706
   123  H    0.114578
   124  H    0.108057
   125  H    0.078596
   126  H    0.094691
   127  H    0.089142
   128  H    0.112251
   129  H    0.079260
   130  H    0.099046
   131  H    0.058666
   132  H    0.095860
   133  H    0.087418
   134  H    0.096473
   135  H    0.062822
   136  H    0.099008
   137  H    0.075550
 Sum of Mulliken charges =  -0.00000

 Dipole moment (field-independent basis, Debye):
    X=             -0.3023    Y=              5.4796    Z=             -0.0335  Tot=              5.4880
 Quadrupole moment (field-independent basis, Debye-Ang):
   XX=           -351.2178   YY=           -399.2095   ZZ=           -395.6655
   XY=            -26.6929   XZ=             13.1244   YZ=             -2.9580

 Normal termination of Gaussian 16 at Thu Sep  5 05:57:09 2019.
