 Gaussian 09, Revision D.01,
 Gaussian 09:  ES64L-G09RevD.01 24-Apr-2013

 -------------------------------------
 # td=(NStates=1) CAM-B3LYP/6-31G(d,p)
 -------------------------------------

 --
 TD
 --
 Symbolic Z-matrix:
 Charge =  0 Multiplicity = 1

                         Standard orientation:
 ---------------------------------------------------------------------
 Center     Atomic      Atomic             Coordinates (Angstroms)
 Number     Number       Type             X           Y           Z
 ---------------------------------------------------------------------
      1         12           0       -7.163924    0.607648    0.148249
      2          6           0       -4.936186   -1.997466    0.546587
      3          6           0       -4.722730    2.801853    1.269653
      4          6           0       -9.292481    3.101756   -0.519506
      5          6           0       -9.536885   -1.797714   -1.000992
      6          7           0       -5.148444    0.416646    0.844399
      7          6           0       -4.357158   -0.728113    0.884500
      8          6           0       -2.925064   -0.459879    1.327618
      9          6           0       -3.063226    0.984315    1.741310
     10          6           0       -4.439739    1.455835    1.268873
     11          6           0       -3.034791    1.047611    3.277555
     12          6           0       -1.976890   -0.499909    0.147226
     13          6           0       -0.478113   -0.459187    0.607918
     14          6           0        0.480558   -0.661588   -0.548019
     15          8           0        0.218287   -1.058321   -1.700548
     16          8           0        1.722032   -0.319550   -0.195048
     17          7           0       -6.961032    2.626640    0.417339
     18          6           0       -5.992007    3.405546    0.789204
     19          6           0       -6.426619    4.769044    0.920461
     20          6           0       -7.686977    4.837604    0.303656
     21          6           0       -8.045576    3.503078    0.029291
     22          6           0       -5.562405    5.914206    1.325952
     23          6           0       -8.503483    5.981957    0.044253
     24          6           0       -8.390495    7.167089    0.772340
     25          7           0       -9.058123    0.682021   -0.599807
     26          6           0       -9.840698    1.821394   -0.745782
     27          6           0      -11.082862    1.484816   -1.251802
     28          6           0      -11.169496    0.102901   -1.362280
     29          6           0       -9.912120   -0.376908   -1.077853
     30          6           0      -12.169897    2.522308   -1.473833
     31          6           0      -12.423774   -0.714912   -1.718371
     32          6           0      -12.461947   -1.005686   -3.267087
     33          7           0       -7.196325   -1.331480   -0.163161
     34          6           0       -8.279147   -2.238787   -0.568453
     35          6           0       -7.843384   -3.525730   -0.593601
     36          6           0       -6.514795   -3.572935   -0.143846
     37          6           0       -6.202738   -2.259296    0.103622
     38          6           0       -8.715462   -4.742725   -0.832218
     39          6           0       -5.292099   -4.376758    0.126011
     40          8           0       -5.211618   -5.585799    0.138195
     41          6           0       -4.153856   -3.321119    0.525094
     42          6           0       -3.583614   -3.667850    1.887809
     43          8           0       -3.807824   -3.130481    2.882310
     44          8           0       -2.921508   -4.889810    1.810084
     45          6           0       -2.275646   -5.371478    3.024977
     46          6           0        2.799124   -0.570060   -1.136148
     47          6           0        4.064275   -0.237092   -0.465016
     48          6           0        5.087128    0.412748   -0.847569
     49          6           0        4.940064    1.254420   -2.044807
     50          6           0        6.330592    0.453643   -0.083718
     51          6           0        7.565675   -0.082247   -0.858661
     52          6           0        8.896670   -0.011426   -0.174492
     53          6           0       10.188903   -0.365731   -0.986223
     54          6           0       10.064446   -1.870385   -1.545234
     55          6           0       11.437057   -0.298101   -0.091170
     56          6           0       12.861599   -0.521356   -0.825119
     57          6           0       14.035996   -0.159190    0.040630
     58          6           0       15.364079   -0.151869   -0.671163
     59          6           0       15.768103   -1.585522   -1.045850
     60          6           0       16.340147    0.449469    0.347312
     61          6           0       17.844949    0.334378   -0.056989
     62          6           0       18.845837    1.188068    0.791630
     63          6           0       20.392413    1.215547    0.333199
     64          6           0       20.603662    1.940359   -1.043591
     65          6           0       21.200323    1.900079    1.421417
     66          1           0       -3.993472    3.533520    1.609039
     67          1           0       -9.970874    3.973979   -0.707464
     68          1           0      -10.174066   -2.690286   -1.398069
     69          1           0       -2.579687   -1.198635    2.256173
     70          1           0       -2.223425    1.575612    1.269500
     71          1           0       -1.976145    0.610009    3.562858
     72          1           0       -3.292437    1.962463    3.662399
     73          1           0       -3.684012    0.259140    3.738304
     74          1           0       -2.153729   -1.338686   -0.690478
     75          1           0       -2.065244    0.391967   -0.490969
     76          1           0       -0.204061    0.490732    1.198574
     77          1           0       -0.365767   -1.138462    1.320342
     78          1           0       -5.877568    6.864406    0.993845
     79          1           0       -5.577581    6.103536    2.503155
     80          1           0       -4.522744    5.690426    1.090588
     81          1           0       -9.077014    5.997270   -0.881476
     82          1           0       -8.828742    8.215136    0.368028
     83          1           0       -7.724762    7.101161    1.619012
     84          1           0      -11.919388    3.245189   -2.303168
     85          1           0      -13.209282    1.977013   -1.697500
     86          1           0      -12.298883    3.077258   -0.530247
     87          1           0      -12.616973   -1.662598   -1.073785
     88          1           0      -13.262189   -0.094618   -1.413360
     89          1           0      -13.284148   -1.568367   -3.565615
     90          1           0      -12.611924   -0.227981   -3.824311
     91          1           0      -11.640230   -1.674784   -3.552737
     92          1           0       -9.351549   -4.664432   -1.808110
     93          1           0       -7.971996   -5.522904   -0.865343
     94          1           0       -9.347398   -4.838284    0.061144
     95          1           0       -3.311008   -3.557781   -0.074616
     96          1           0       -1.413228   -4.672803    3.365988
     97          1           0       -2.966150   -5.928241    3.739142
     98          1           0       -1.597990   -6.340829    2.705600
     99          1           0        2.763201   -1.738927   -1.491982
    100          1           0        2.519253    0.149871   -1.871168
    101          1           0        4.324815   -1.005822    0.235932
    102          1           0        3.851531    1.335040   -2.447000
    103          1           0        5.368218    2.332955   -1.896854
    104          1           0        5.704065    1.031664   -2.915546
    105          1           0        6.681285    1.552278    0.092391
    106          1           0        6.273394   -0.261350    0.792249
    107          1           0        7.393896   -1.007369   -1.340472
    108          1           0        7.674449    0.685329   -1.826818
    109          1           0        9.060572    1.049862    0.232339
    110          1           0        8.817866   -0.756081    0.702075
    111          1           0       10.161829    0.185990   -1.832425
    112          1           0        9.167845   -2.038326   -2.152178
    113          1           0       10.884355   -2.116091   -2.087447
    114          1           0       10.070382   -2.647316   -0.652006
    115          1           0       11.432939    0.612629    0.512068
    116          1           0       11.282711   -0.929201    0.594758
    117          1           0       12.777042   -1.449088   -1.209741
    118          1           0       12.967831   -0.027475   -1.711832
    119          1           0       13.729332    0.866885    0.485788
    120          1           0       14.033513   -0.764169    0.672268
    121          1           0       15.324759    0.387879   -1.706917
    122          1           0       15.969698   -2.237201   -0.218704
    123          1           0       14.934126   -2.017390   -1.817460
    124          1           0       16.601152   -1.543387   -1.726625
    125          1           0       16.254146    1.605335    0.613666
    126          1           0       16.148975   -0.354021    1.225822
    127          1           0       18.079247   -0.723796   -0.155484
    128          1           0       18.117956    0.735629   -1.158792
    129          1           0       18.623713    2.363335    0.616481
    130          1           0       18.755059    0.902860    1.873909
    131          1           0       20.516239    0.110242    0.357207
    132          1           0       20.110249    3.045904   -0.875742
    133          1           0       21.484444    2.154201   -1.197514
    134          1           0       20.121832    1.545192   -1.937869
    135          1           0       21.153827    1.526461    2.407654
    136          1           0       22.510439    1.762395    1.168387
    137          1           0       21.051643    3.035046    1.438588
 ---------------------------------------------------------------------

 SCF Done:  E(RCAM-B3LYP) =  -2932.64981302     A.U. after   15 cycles

 Excitation energies and oscillator strengths:

 Excited State   1:      Singlet-A      2.1274 eV  582.81 nm  f=0.1758  <S**2>=0.000
     240 -> 242       -0.14415
     240 -> 243       -0.29199
     241 -> 242        0.61286
 This state for optimization and/or second-order correction.
 Total Energy, E(TD-HF/TD-KS) =  -2932.57163398
 Copying the excited state density for this state as the 1-particle RhoCI density.

 The electronic state is 1-A.
 Alpha  occ. eigenvalues --  -46.83147 -19.25876 -19.25095 -19.21413 -19.20668
 Alpha  occ. eigenvalues --  -19.20305 -14.41133 -14.39471 -14.38847 -14.38516
 Alpha  occ. eigenvalues --  -10.39257 -10.38545 -10.35702 -10.33180 -10.32642
 Alpha  occ. eigenvalues --  -10.31613 -10.30054 -10.29881 -10.29549 -10.29430
 Alpha  occ. eigenvalues --  -10.28928 -10.28547 -10.28371 -10.28358 -10.28264
 Alpha  occ. eigenvalues --  -10.28148 -10.28138 -10.28021 -10.27867 -10.27746
 Alpha  occ. eigenvalues --  -10.27450 -10.27446 -10.27428 -10.27409 -10.27405
 Alpha  occ. eigenvalues --  -10.27301 -10.27133 -10.27008 -10.26963 -10.26935
 Alpha  occ. eigenvalues --  -10.26881 -10.26852 -10.26798 -10.26584 -10.26579
 Alpha  occ. eigenvalues --  -10.26579 -10.26574 -10.26400 -10.26396 -10.26370
 Alpha  occ. eigenvalues --  -10.26067 -10.25850 -10.25624 -10.25527 -10.25504
 Alpha  occ. eigenvalues --  -10.25499 -10.25488 -10.25092 -10.24676 -10.24548
 Alpha  occ. eigenvalues --  -10.24491 -10.23798 -10.23530 -10.23174 -10.22802
 Alpha  occ. eigenvalues --   -3.12300  -1.86995  -1.86556  -1.86480  -1.18598
 Alpha  occ. eigenvalues --   -1.17783  -1.11372  -1.09743  -1.07299  -1.04502
 Alpha  occ. eigenvalues --   -1.03556  -1.02358  -1.01293  -0.93166  -0.92159
 Alpha  occ. eigenvalues --   -0.91310  -0.90519  -0.89838  -0.89294  -0.88114
 Alpha  occ. eigenvalues --   -0.87883  -0.87431  -0.86810  -0.86564  -0.86120
 Alpha  occ. eigenvalues --   -0.85080  -0.84036  -0.83212  -0.83148  -0.82415
 Alpha  occ. eigenvalues --   -0.81361  -0.80643  -0.79917  -0.79796  -0.78154
 Alpha  occ. eigenvalues --   -0.77843  -0.76866  -0.76319  -0.76189  -0.75889
 Alpha  occ. eigenvalues --   -0.75200  -0.74714  -0.74285  -0.73653  -0.72383
 Alpha  occ. eigenvalues --   -0.71539  -0.70754  -0.70681  -0.69618  -0.68049
 Alpha  occ. eigenvalues --   -0.66924  -0.66862  -0.66529  -0.64929  -0.64545
 Alpha  occ. eigenvalues --   -0.63549  -0.62971  -0.62662  -0.62415  -0.61730
 Alpha  occ. eigenvalues --   -0.60721  -0.60699  -0.60286  -0.60220  -0.59319
 Alpha  occ. eigenvalues --   -0.58402  -0.57660  -0.57188  -0.57074  -0.56447
 Alpha  occ. eigenvalues --   -0.56246  -0.55524  -0.55283  -0.55129  -0.54837
 Alpha  occ. eigenvalues --   -0.54460  -0.53802  -0.53511  -0.53442  -0.53085
 Alpha  occ. eigenvalues --   -0.52477  -0.52142  -0.51887  -0.51694  -0.51685
 Alpha  occ. eigenvalues --   -0.51296  -0.51066  -0.50789  -0.50548  -0.50380
 Alpha  occ. eigenvalues --   -0.50194  -0.49988  -0.49874  -0.49678  -0.49506
 Alpha  occ. eigenvalues --   -0.49308  -0.49136  -0.49024  -0.48497  -0.48183
 Alpha  occ. eigenvalues --   -0.47844  -0.47793  -0.47503  -0.47147  -0.46829
 Alpha  occ. eigenvalues --   -0.46641  -0.46455  -0.46300  -0.46118  -0.45798
 Alpha  occ. eigenvalues --   -0.45549  -0.45427  -0.45119  -0.44955  -0.44835
 Alpha  occ. eigenvalues --   -0.44644  -0.44547  -0.44327  -0.44072  -0.43816
 Alpha  occ. eigenvalues --   -0.43759  -0.43422  -0.43278  -0.43083  -0.42984
 Alpha  occ. eigenvalues --   -0.42863  -0.42671  -0.42594  -0.42486  -0.42345
 Alpha  occ. eigenvalues --   -0.42254  -0.41891  -0.41818  -0.41418  -0.41289
 Alpha  occ. eigenvalues --   -0.41159  -0.41056  -0.40821  -0.40657  -0.40517
 Alpha  occ. eigenvalues --   -0.40325  -0.40200  -0.39751  -0.39537  -0.39114
 Alpha  occ. eigenvalues --   -0.39053  -0.38911  -0.38732  -0.38605  -0.38504
 Alpha  occ. eigenvalues --   -0.37953  -0.37563  -0.37492  -0.37447  -0.37082
 Alpha  occ. eigenvalues --   -0.36487  -0.36227  -0.35953  -0.35892  -0.35613
 Alpha  occ. eigenvalues --   -0.35389  -0.35300  -0.35025  -0.33788  -0.33580
 Alpha  occ. eigenvalues --   -0.33343  -0.32944  -0.32059  -0.30615  -0.30544
 Alpha  occ. eigenvalues --   -0.30185  -0.29139  -0.27491  -0.26969  -0.22757
 Alpha  occ. eigenvalues --   -0.22042
 Alpha virt. eigenvalues --   -0.06588  -0.03678   0.01439   0.03644   0.05764
 Alpha virt. eigenvalues --    0.05852   0.06030   0.06775   0.07476   0.07890
 Alpha virt. eigenvalues --    0.08650   0.11108   0.11242   0.11386   0.11889

 Mulliken charges:
               1
     1  Mg   0.806015
     2  C    0.030543
     3  C   -0.216578
     4  C   -0.176485
     5  C   -0.174537
     6  N   -0.629987
     7  C    0.300516
     8  C   -0.145530
     9  C   -0.153392
    10  C    0.388420
    11  C   -0.303855
    12  C   -0.194571
    13  C   -0.262899
    14  C    0.606277
    15  O   -0.500243
    16  O   -0.474378
    17  N   -0.677325
    18  C    0.311380
    19  C    0.009340
    20  C    0.035175
    21  C    0.278551
    22  C   -0.384948
    23  C   -0.088075
    24  C   -0.254019
    25  N   -0.694463
    26  C    0.324072
    27  C    0.010833
    28  C    0.044330
    29  C    0.233671
    30  C   -0.374524
    31  C   -0.242459
    32  C   -0.309011
    33  N   -0.735712
    34  C    0.302303
    35  C   -0.033117
    36  C    0.041666
    37  C    0.296582
    38  C   -0.366082
    39  C    0.370400
    40  O   -0.442186
    41  C   -0.328211
    42  C    0.605718
    43  O   -0.414543
    44  O   -0.473705
    45  C   -0.078769
    46  C    0.022074
    47  C   -0.151293
    48  C    0.231092
    49  C   -0.382052
    50  C   -0.232764
    51  C   -0.180982
    52  C   -0.157269
    53  C   -0.063629
    54  C   -0.325652
    55  C   -0.171109
    56  C   -0.206046
    57  C   -0.115455
    58  C   -0.071097
    59  C   -0.318495
    60  C   -0.149002
    61  C   -0.178609
    62  C   -0.170262
    63  C   -0.060033
    64  C   -0.286782
    65  C   -0.282559
    66  H    0.076982
    67  H    0.092604
    68  H    0.105720
    69  H    0.120038
    70  H    0.102582
    71  H    0.083010
    72  H    0.116668
    73  H    0.128525
    74  H    0.121429
    75  H    0.122028
    76  H    0.128632
    77  H    0.144955
    78  H    0.129893
    79  H    0.098709
    80  H    0.119395
    81  H    0.104430
    82  H    0.104459
    83  H    0.110041
    84  H    0.118508
    85  H    0.094168
    86  H    0.126184
    87  H    0.098001
    88  H    0.104406
    89  H    0.102282
    90  H    0.123091
    91  H    0.108555
    92  H    0.108071
    93  H    0.150678
    94  H    0.140625
    95  H    0.163853
    96  H    0.119013
    97  H    0.135821
    98  H    0.098572
    99  H    0.123078
   100  H    0.122708
   101  H    0.076619
   102  H    0.109485
   103  H    0.098055
   104  H    0.112119
   105  H    0.104172
   106  H    0.100352
   107  H    0.107767
   108  H    0.046828
   109  H    0.080212
   110  H    0.074371
   111  H    0.094845
   112  H    0.100139
   113  H    0.113581
   114  H    0.077926
   115  H    0.076490
   116  H    0.104324
   117  H    0.099543
   118  H    0.093102
   119  H    0.079919
   120  H    0.091883
   121  H    0.072277
   122  H    0.107940
   123  H    0.080724
   124  H    0.115550
   125  H    0.090534
   126  H    0.072084
   127  H    0.095377
   128  H    0.066921
   129  H    0.063020
   130  H    0.086177
   131  H    0.093176
   132  H    0.066502
   133  H    0.119059
   134  H    0.108334
   135  H    0.117565
   136  H    0.038084
   137  H    0.100969
 Sum of Mulliken charges =   0.00000

 Dipole moment (field-independent basis, Debye):
    X=              2.1638    Y=              3.4523    Z=              0.3257  Tot=              4.0873
 Quadrupole moment (field-independent basis, Debye-Ang):
   XX=           -335.8323   YY=           -390.8898   ZZ=           -396.2215
   XY=            -25.5370   XZ=              9.8217   YZ=             -5.6516

 Normal termination of Gaussian 09 at Wed Jul  3 04:38:27 2019.
