 Gaussian 16, Revision A.03,
 Gaussian 16:  ES64L-G16RevA.03 25-Dec-2016

 -------------------------------------
 # td=(NStates=1) CAM-B3LYP/6-31G(d,p)
 -------------------------------------

 --
 TD
 --
 Symbolic Z-matrix:
 Charge =  0 Multiplicity = 1

                         Standard orientation:
 ---------------------------------------------------------------------
 Center     Atomic      Atomic             Coordinates (Angstroms)
 Number     Number       Type             X           Y           Z
 ---------------------------------------------------------------------
      1         12           0       -7.193821    0.617137    0.173883
      2          6           0       -4.899033   -1.909675    0.581574
      3          6           0       -4.911534    2.788995    1.273462
      4          6           0       -9.438253    3.013629   -0.406057
      5          6           0       -9.602789   -1.744213   -0.759651
      6          7           0       -5.195956    0.508113    0.757344
      7          6           0       -4.343570   -0.654174    0.743456
      8          6           0       -2.968056   -0.324186    1.154157
      9          6           0       -3.005411    1.158617    1.740791
     10          6           0       -4.410433    1.518328    1.153376
     11          6           0       -2.952706    1.213820    3.223936
     12          6           0       -1.903275   -0.465110    0.033022
     13          6           0       -0.413888   -0.348158    0.469126
     14          6           0        0.519411   -0.750994   -0.640615
     15          8           0        0.293684   -1.130457   -1.773167
     16          8           0        1.820270   -0.463332   -0.262261
     17          7           0       -7.190531    2.628385    0.293001
     18          6           0       -6.072643    3.319731    0.801530
     19          6           0       -6.489467    4.688839    0.798744
     20          6           0       -7.817694    4.874334    0.349757
     21          6           0       -8.181686    3.487032    0.032469
     22          6           0       -5.534466    5.941480    1.011226
     23          6           0       -8.642636    5.978968    0.019984
     24          6           0       -8.539226    7.170577    0.647874
     25          7           0       -9.180554    0.617158   -0.422317
     26          6           0       -9.930723    1.767734   -0.647691
     27          6           0      -11.263736    1.480400   -1.049326
     28          6           0      -11.269748    0.069805   -1.235077
     29          6           0      -10.075920   -0.475742   -0.627206
     30          6           0      -12.371947    2.482660   -1.470111
     31          6           0      -12.334383   -0.839382   -1.678936
     32          6           0      -12.398657   -1.294038   -3.159592
     33          7           0       -7.293131   -1.438290   -0.184516
     34          6           0       -8.244216   -2.330163   -0.433184
     35          6           0       -7.760509   -3.680035   -0.333824
     36          6           0       -6.499525   -3.541787    0.075551
     37          6           0       -6.219248   -2.229634    0.149087
     38          6           0       -8.516918   -4.919336   -0.718400
     39          6           0       -5.234995   -4.307815    0.228290
     40          8           0       -4.971623   -5.519297    0.234537
     41          6           0       -4.165819   -3.269919    0.533247
     42          6           0       -3.456376   -3.641531    1.775124
     43          8           0       -3.709483   -3.169310    2.874424
     44          8           0       -2.596558   -4.698915    1.599535
     45          6           0       -2.006044   -5.145823    2.781461
     46          6           0        2.821871   -0.708253   -1.194168
     47          6           0        4.171646   -0.403038   -0.632476
     48          6           0        5.162396    0.403984   -1.122546
     49          6           0        5.193207    1.166312   -2.312339
     50          6           0        6.531176    0.669176   -0.308566
     51          6           0        7.608871    0.001994   -1.096146
     52          6           0        8.959559   -0.115322   -0.261714
     53          6           0       10.259874   -0.639173   -1.029461
     54          6           0       10.136101   -2.073048   -1.394876
     55          6           0       11.343175   -0.374469   -0.102195
     56          6           0       12.794635   -0.562716   -0.776077
     57          6           0       13.928013   -0.091618    0.128770
     58          6           0       15.393342   -0.300917   -0.372648
     59          6           0       15.744864   -1.791078   -0.666881
     60          6           0       16.461157    0.398602    0.534012
     61          6           0       17.818803    0.683601   -0.124329
     62          6           0       18.812572    1.305183    0.823162
     63          6           0       20.202828    1.355905    0.332846
     64          6           0       20.379938    2.087172   -1.013178
     65          6           0       21.083818    2.066955    1.464838
     66          1           0       -4.319096    3.518811    1.482185
     67          1           0      -10.115298    3.773237   -0.838535
     68          1           0      -10.373533   -2.358286   -0.847631
     69          1           0       -2.675079   -0.892321    1.931614
     70          1           0       -2.198262    1.760265    1.277461
     71          1           0       -2.006837    1.002849    3.701998
     72          1           0       -2.896101    2.396533    3.654555
     73          1           0       -3.734275    0.556385    3.757447
     74          1           0       -2.090924   -1.610033   -0.092353
     75          1           0       -2.169970    0.164532   -0.865867
     76          1           0       -0.115974    0.788596    0.627090
     77          1           0       -0.265289   -0.930033    1.485453
     78          1           0       -5.887693    6.564249    0.095620
     79          1           0       -5.530740    6.568451    1.974345
     80          1           0       -4.495646    5.693952    0.882762
     81          1           0       -9.291791    5.902908   -1.004402
     82          1           0       -9.297637    8.075038    0.491902
     83          1           0       -7.915448    7.414427    1.264411
     84          1           0      -12.164296    3.331170   -2.145491
     85          1           0      -13.257403    1.955370   -1.714772
     86          1           0      -12.457059    3.045440   -0.434677
     87          1           0      -12.463270   -1.805602   -0.874056
     88          1           0      -13.226636   -0.165728   -1.107187
     89          1           0      -13.436583   -1.822937   -3.220773
     90          1           0      -12.580648   -0.326735   -3.746426
     91          1           0      -11.592346   -1.860113   -3.293925
     92          1           0       -8.733100   -5.051229   -1.855004
     93          1           0       -8.081377   -5.933110   -0.433091
     94          1           0       -9.551868   -4.730133   -0.228703
     95          1           0       -3.259048   -3.422488   -0.215968
     96          1           0       -0.970023   -4.588240    3.127640
     97          1           0       -2.819230   -5.093284    3.718920
     98          1           0       -1.472413   -6.266280    2.379036
     99          1           0        2.795844   -1.865839   -1.492581
    100          1           0        2.632769   -0.091000   -2.259743
    101          1           0        4.254288   -0.971534    0.325785
    102          1           0        4.290901    1.367816   -2.950607
    103          1           0        5.540833    2.245588   -2.311818
    104          1           0        5.595950    0.722086   -3.249795
    105          1           0        6.762120    1.733167   -0.109137
    106          1           0        6.432890    0.382814    0.793631
    107          1           0        7.317626   -1.158416   -1.307998
    108          1           0        7.695289    0.393304   -2.262386
    109          1           0        9.270684    0.993682    0.146582
    110          1           0        8.930671   -0.813196    0.607360
    111          1           0       10.545188   -0.004086   -1.780823
    112          1           0        9.530943   -2.177183   -2.214920
    113          1           0       11.104026   -2.541823   -1.719401
    114          1           0        9.653957   -2.469887   -0.646367
    115          1           0       11.350304    0.602310    0.365747
    116          1           0       11.263724   -1.046725    0.688385
    117          1           0       12.845811   -1.468620   -1.149038
    118          1           0       12.903095    0.312228   -1.622829
    119          1           0       13.700575    0.858860    0.422991
    120          1           0       13.821272   -0.730595    1.137716
    121          1           0       15.334661    0.369535   -1.251030
    122          1           0       15.735076   -2.109509    0.443822
    123          1           0       15.011170   -2.334433   -1.274357
    124          1           0       16.637974   -1.978172   -1.086473
    125          1           0       16.198298    1.323083    0.758900
    126          1           0       16.587949   -0.122912    1.452344
    127          1           0       18.304026   -0.157712   -0.568433
    128          1           0       17.704027    1.318104   -0.891966
    129          1           0       18.441317    2.366141    0.972485
    130          1           0       18.762600    0.802882    1.892689
    131          1           0       20.443927    0.326616    0.122818
    132          1           0       19.886490    3.089707   -1.048092
    133          1           0       21.420191    2.291166   -1.432501
    134          1           0       19.905803    1.283949   -1.708894
    135          1           0       20.927942    1.638537    2.354088
    136          1           0       22.157852    2.038131    1.196234
    137          1           0       20.693201    3.188611    1.386696
 ---------------------------------------------------------------------

 SCF Done:  E(RCAM-B3LYP) =  -2932.56878394     A.U. after   18 cycles

 Excitation energies and oscillator strengths:

 Excited State   1:      Singlet-A      2.0092 eV  617.07 nm  f=0.2752  <S**2>=0.000
     240 -> 243        0.21431
     241 -> 242        0.66594
 This state for optimization and/or second-order correction.
 Total Energy, E(TD-HF/TD-DFT) =  -2932.49494618
 Copying the excited state density for this state as the 1-particle RhoCI density.

 The electronic state is 1-A.
 Alpha  occ. eigenvalues --  -46.84423 -19.26882 -19.25986 -19.21850 -19.21269
 Alpha  occ. eigenvalues --  -19.20253 -14.42914 -14.39239 -14.39087 -14.38498
 Alpha  occ. eigenvalues --  -10.40106 -10.39437 -10.35373 -10.34476 -10.33055
 Alpha  occ. eigenvalues --  -10.31487 -10.30639 -10.30522 -10.30115 -10.29974
 Alpha  occ. eigenvalues --  -10.29169 -10.29157 -10.29149 -10.29111 -10.28988
 Alpha  occ. eigenvalues --  -10.28828 -10.28549 -10.28472 -10.28290 -10.28288
 Alpha  occ. eigenvalues --  -10.27996 -10.27970 -10.27900 -10.27640 -10.27611
 Alpha  occ. eigenvalues --  -10.27548 -10.27530 -10.27382 -10.27245 -10.26995
 Alpha  occ. eigenvalues --  -10.26974 -10.26950 -10.26942 -10.26858 -10.26752
 Alpha  occ. eigenvalues --  -10.26727 -10.26547 -10.26233 -10.26121 -10.26079
 Alpha  occ. eigenvalues --  -10.26010 -10.25632 -10.25562 -10.25139 -10.24899
 Alpha  occ. eigenvalues --  -10.24774 -10.24469 -10.24434 -10.24296 -10.24100
 Alpha  occ. eigenvalues --  -10.23846 -10.23399 -10.23326 -10.23046 -10.22561
 Alpha  occ. eigenvalues --   -3.13419  -1.88129  -1.87655  -1.87596  -1.18560
 Alpha  occ. eigenvalues --   -1.18371  -1.09785  -1.09611  -1.09433  -1.05232
 Alpha  occ. eigenvalues --   -1.04161  -1.03208  -1.01213  -0.93254  -0.91336
 Alpha  occ. eigenvalues --   -0.90800  -0.90533  -0.90086  -0.89735  -0.89346
 Alpha  occ. eigenvalues --   -0.88386  -0.87955  -0.87651  -0.86727  -0.86563
 Alpha  occ. eigenvalues --   -0.84821  -0.84171  -0.83507  -0.83206  -0.82408
 Alpha  occ. eigenvalues --   -0.81959  -0.81279  -0.80844  -0.80368  -0.78436
 Alpha  occ. eigenvalues --   -0.77807  -0.77143  -0.76712  -0.75509  -0.75392
 Alpha  occ. eigenvalues --   -0.75128  -0.74974  -0.74631  -0.73387  -0.72553
 Alpha  occ. eigenvalues --   -0.71724  -0.70377  -0.69642  -0.68890  -0.68766
 Alpha  occ. eigenvalues --   -0.68141  -0.66914  -0.65957  -0.64872  -0.64380
 Alpha  occ. eigenvalues --   -0.64036  -0.63898  -0.62965  -0.62329  -0.61879
 Alpha  occ. eigenvalues --   -0.61448  -0.60952  -0.60810  -0.60019  -0.59933
 Alpha  occ. eigenvalues --   -0.58796  -0.58528  -0.57685  -0.56862  -0.56644
 Alpha  occ. eigenvalues --   -0.56568  -0.55771  -0.55678  -0.55403  -0.54894
 Alpha  occ. eigenvalues --   -0.54753  -0.54551  -0.53826  -0.53677  -0.53298
 Alpha  occ. eigenvalues --   -0.52867  -0.52656  -0.52387  -0.52146  -0.52047
 Alpha  occ. eigenvalues --   -0.51223  -0.51045  -0.50826  -0.50768  -0.50482
 Alpha  occ. eigenvalues --   -0.50068  -0.49886  -0.49796  -0.49544  -0.49351
 Alpha  occ. eigenvalues --   -0.49081  -0.48989  -0.48742  -0.48603  -0.48296
 Alpha  occ. eigenvalues --   -0.48072  -0.47830  -0.47503  -0.47368  -0.47290
 Alpha  occ. eigenvalues --   -0.47019  -0.46873  -0.46494  -0.46102  -0.46003
 Alpha  occ. eigenvalues --   -0.45817  -0.45440  -0.45273  -0.45184  -0.45067
 Alpha  occ. eigenvalues --   -0.44705  -0.44461  -0.44329  -0.44185  -0.43869
 Alpha  occ. eigenvalues --   -0.43621  -0.43481  -0.43199  -0.43137  -0.43072
 Alpha  occ. eigenvalues --   -0.42856  -0.42708  -0.42558  -0.42431  -0.42279
 Alpha  occ. eigenvalues --   -0.42223  -0.42083  -0.41786  -0.41661  -0.41530
 Alpha  occ. eigenvalues --   -0.41157  -0.40936  -0.40655  -0.40578  -0.40307
 Alpha  occ. eigenvalues --   -0.40249  -0.40032  -0.39912  -0.39676  -0.39539
 Alpha  occ. eigenvalues --   -0.38795  -0.38680  -0.38414  -0.38244  -0.37700
 Alpha  occ. eigenvalues --   -0.37377  -0.37053  -0.37034  -0.36805  -0.36662
 Alpha  occ. eigenvalues --   -0.36589  -0.35964  -0.35622  -0.35368  -0.35235
 Alpha  occ. eigenvalues --   -0.34985  -0.34798  -0.34280  -0.34158  -0.33501
 Alpha  occ. eigenvalues --   -0.33269  -0.33093  -0.32460  -0.31834  -0.30299
 Alpha  occ. eigenvalues --   -0.29552  -0.29022  -0.27772  -0.27256  -0.23042
 Alpha  occ. eigenvalues --   -0.21675
 Alpha virt. eigenvalues --   -0.07343  -0.02979   0.01187   0.02914   0.04685
 Alpha virt. eigenvalues --    0.05132   0.05415   0.05739   0.06200   0.06921
 Alpha virt. eigenvalues --    0.07227   0.09644   0.10396   0.10649   0.11704

 Mulliken charges:
               1
     1  Mg   0.816518
     2  C    0.099730
     3  C   -0.141473
     4  C   -0.193104
     5  C   -0.119584
     6  N   -0.612896
     7  C    0.277891
     8  C   -0.180849
     9  C   -0.114771
    10  C    0.328229
    11  C   -0.304999
    12  C   -0.158219
    13  C   -0.272287
    14  C    0.621763
    15  O   -0.456080
    16  O   -0.472568
    17  N   -0.736981
    18  C    0.334236
    19  C   -0.050413
    20  C    0.076657
    21  C    0.302065
    22  C   -0.373229
    23  C   -0.111035
    24  C   -0.205050
    25  N   -0.668775
    26  C    0.347642
    27  C    0.011505
    28  C    0.036072
    29  C    0.233124
    30  C   -0.358506
    31  C   -0.273319
    32  C   -0.286450
    33  N   -0.666008
    34  C    0.224704
    35  C    0.006709
    36  C    0.045934
    37  C    0.226024
    38  C   -0.371752
    39  C    0.389026
    40  O   -0.472007
    41  C   -0.341880
    42  C    0.636958
    43  O   -0.479012
    44  O   -0.424939
    45  C   -0.071643
    46  C    0.037817
    47  C   -0.142046
    48  C    0.137612
    49  C   -0.395142
    50  C   -0.213421
    51  C   -0.158749
    52  C   -0.179282
    53  C   -0.062296
    54  C   -0.301193
    55  C   -0.172832
    56  C   -0.169539
    57  C   -0.164653
    58  C   -0.070759
    59  C   -0.301999
    60  C   -0.169937
    61  C   -0.192022
    62  C   -0.150376
    63  C   -0.073574
    64  C   -0.303673
    65  C   -0.294146
    66  H    0.049403
    67  H    0.069050
    68  H    0.070522
    69  H    0.124512
    70  H    0.103948
    71  H    0.122982
    72  H    0.076017
    73  H    0.132935
    74  H    0.104202
    75  H    0.121163
    76  H    0.134020
    77  H    0.138551
    78  H    0.120717
    79  H    0.115422
    80  H    0.115045
    81  H    0.106824
    82  H    0.088770
    83  H    0.098770
    84  H    0.129519
    85  H    0.122003
    86  H    0.113298
    87  H    0.083030
    88  H    0.080799
    89  H    0.107976
    90  H    0.115769
    91  H    0.136417
    92  H    0.114837
    93  H    0.140535
    94  H    0.106590
    95  H    0.167552
    96  H    0.090394
    97  H    0.136629
    98  H    0.095496
    99  H    0.100929
   100  H    0.086155
   101  H    0.093820
   102  H    0.105000
   103  H    0.119016
   104  H    0.128484
   105  H    0.106141
   106  H    0.095998
   107  H    0.077941
   108  H    0.090652
   109  H    0.062459
   110  H    0.095197
   111  H    0.087976
   112  H    0.111452
   113  H    0.095787
   114  H    0.108787
   115  H    0.085257
   116  H    0.087344
   117  H    0.100150
   118  H    0.054403
   119  H    0.098452
   120  H    0.046860
   121  H    0.071328
   122  H    0.092939
   123  H    0.101095
   124  H    0.115799
   125  H    0.098954
   126  H    0.087866
   127  H    0.082747
   128  H    0.109292
   129  H    0.074198
   130  H    0.072984
   131  H    0.090002
   132  H    0.097249
   133  H    0.098402
   134  H    0.089715
   135  H    0.110683
   136  H    0.095866
   137  H    0.082175
 Sum of Mulliken charges =  -0.00000

 Dipole moment (field-independent basis, Debye):
    X=              0.4025    Y=              6.1055    Z=             -0.2973  Tot=              6.1260
 Quadrupole moment (field-independent basis, Debye-Ang):
   XX=           -351.8497   YY=           -396.9367   ZZ=           -397.0782
   XY=            -27.9691   XZ=             11.8128   YZ=             -0.7206

 Normal termination of Gaussian 16 at Fri Jun 28 16:22:38 2019.
