 Gaussian 09, Revision D.01,
 Gaussian 09:  ES64L-G09RevD.01 24-Apr-2013

 -------------------------------------
 # td=(NStates=1) CAM-B3LYP/6-31G(d,p)
 -------------------------------------

 --
 TD
 --
 Symbolic Z-matrix:
 Charge =  0 Multiplicity = 1

                         Standard orientation:
 ---------------------------------------------------------------------
 Center     Atomic      Atomic             Coordinates (Angstroms)
 Number     Number       Type             X           Y           Z
 ---------------------------------------------------------------------
      1         12           0       -7.112026    0.565982    0.049290
      2          6           0       -4.901332   -1.963150    0.437851
      3          6           0       -4.635850    2.829413    1.090599
      4          6           0       -9.336182    3.098290   -0.335210
      5          6           0       -9.529837   -1.731686   -0.971366
      6          7           0       -5.082931    0.399467    0.746593
      7          6           0       -4.368615   -0.714160    0.889088
      8          6           0       -2.964747   -0.527598    1.267765
      9          6           0       -3.059075    1.025463    1.828444
     10          6           0       -4.319275    1.457900    1.071537
     11          6           0       -2.909773    1.200943    3.231763
     12          6           0       -1.965478   -0.591583    0.133675
     13          6           0       -0.568542   -0.495617    0.595530
     14          6           0        0.439114   -0.701580   -0.621536
     15          8           0        0.166696   -1.010267   -1.712238
     16          8           0        1.720905   -0.282828   -0.154469
     17          7           0       -6.967048    2.583774    0.355383
     18          6           0       -5.961151    3.302701    0.748674
     19          6           0       -6.296036    4.710035    0.792244
     20          6           0       -7.605928    4.872037    0.337039
     21          6           0       -8.042315    3.470168    0.102836
     22          6           0       -5.373160    5.809160    1.138142
     23          6           0       -8.501361    6.055098    0.019200
     24          6           0       -8.554119    7.145390    0.832041
     25          7           0       -9.154272    0.643167   -0.614883
     26          6           0       -9.782554    1.802636   -0.626119
     27          6           0      -11.159646    1.578436   -1.091676
     28          6           0      -11.230681    0.156388   -1.190573
     29          6           0       -9.935637   -0.407803   -0.867869
     30          6           0      -12.228710    2.642464   -1.411562
     31          6           0      -12.447317   -0.671530   -1.645342
     32          6           0      -12.354334   -1.092982   -3.081492
     33          7           0       -7.195294   -1.366944   -0.351523
     34          6           0       -8.289134   -2.191647   -0.678104
     35          6           0       -7.826912   -3.539522   -0.595735
     36          6           0       -6.514688   -3.579583   -0.146006
     37          6           0       -6.249309   -2.209864    0.025207
     38          6           0       -8.649948   -4.775468   -0.878687
     39          6           0       -5.447263   -4.344806    0.110642
     40          8           0       -5.348681   -5.601878    0.073232
     41          6           0       -4.260762   -3.323346    0.597277
     42          6           0       -3.626174   -3.665321    1.818050
     43          8           0       -3.943488   -3.236917    2.889891
     44          8           0       -2.691165   -4.757005    1.687357
     45          6           0       -2.233637   -5.302134    2.979768
     46          6           0        2.766416   -0.503149   -1.256980
     47          6           0        4.046719   -0.363309   -0.517258
     48          6           0        5.119785    0.419513   -0.856809
     49          6           0        5.075376    1.228596   -2.082815
     50          6           0        6.385158    0.455873   -0.063501
     51          6           0        7.648032   -0.050304   -0.840168
     52          6           0        8.914475   -0.027046   -0.141170
     53          6           0       10.191297   -0.477231   -0.740027
     54          6           0        9.989427   -1.956643   -1.214233
     55          6           0       11.462432   -0.296123    0.029520
     56          6           0       12.751090   -0.538505   -0.638539
     57          6           0       13.983314   -0.073438    0.260194
     58          6           0       15.295155   -0.076853   -0.473193
     59          6           0       15.738761   -1.654048   -1.042005
     60          6           0       16.494418    0.334403    0.376371
     61          6           0       17.827346    0.545688   -0.321049
     62          6           0       18.873251    1.161821    0.664798
     63          6           0       20.335528    1.221327    0.144317
     64          6           0       20.391994    2.103732   -1.096827
     65          6           0       21.309451    1.769100    1.285559
     66          1           0       -3.969790    3.730817    1.441252
     67          1           0       -9.982880    4.010528   -0.476718
     68          1           0      -10.321445   -2.545291   -1.424672
     69          1           0       -2.701512   -1.233656    2.042742
     70          1           0       -2.137415    1.559359    1.595842
     71          1           0       -2.111241    0.915635    3.540711
     72          1           0       -3.114597    2.331499    3.569942
     73          1           0       -3.841063    0.859831    3.867377
     74          1           0       -1.886395   -1.550925   -0.310564
     75          1           0       -2.022617    0.180705   -0.644585
     76          1           0       -0.216713    0.431954    1.056009
     77          1           0       -0.166402   -1.181549    1.229928
     78          1           0       -5.738938    6.749300    0.647202
     79          1           0       -5.339092    5.816151    2.339653
     80          1           0       -4.310820    5.602757    0.710356
     81          1           0       -9.214650    5.831161   -0.607535
     82          1           0       -9.288922    8.093461    0.663110
     83          1           0       -7.989067    7.224576    1.717224
     84          1           0      -11.889016    3.154162   -2.210374
     85          1           0      -13.072925    2.091124   -1.841581
     86          1           0      -12.420611    3.385163   -0.626882
     87          1           0      -12.311983   -1.571597   -1.044193
     88          1           0      -13.408605   -0.221985   -1.414636
     89          1           0      -13.053048   -1.849932   -3.416597
     90          1           0      -12.289896   -0.242680   -3.748268
     91          1           0      -11.521336   -1.685050   -3.251740
     92          1           0       -9.068568   -4.519904   -1.953206
     93          1           0       -8.120696   -5.679993   -0.903231
     94          1           0       -9.426774   -5.013052   -0.183420
     95          1           0       -3.572326   -3.628028   -0.058463
     96          1           0       -1.364928   -4.568048    3.301630
     97          1           0       -3.134944   -5.460261    3.548369
     98          1           0       -1.720412   -6.421218    2.895790
     99          1           0        2.734961   -1.529448   -1.737861
    100          1           0        2.628329    0.237499   -1.921727
    101          1           0        4.161668   -1.019116    0.324163
    102          1           0        4.108973    1.172123   -2.637136
    103          1           0        5.163148    2.271292   -1.659561
    104          1           0        6.073037    0.963545   -2.690068
    105          1           0        6.678503    1.494389    0.356498
    106          1           0        6.252937   -0.109619    0.952726
    107          1           0        7.533798   -1.087769   -1.194786
    108          1           0        7.803761    0.550324   -1.673083
    109          1           0        9.307257    0.947520    0.259116
    110          1           0        8.612269   -0.572980    0.841724
    111          1           0       10.420639    0.069040   -1.729683
    112          1           0        8.929456   -2.065851   -1.719115
    113          1           0       10.845408   -2.198712   -1.756735
    114          1           0        9.775926   -2.782847   -0.407215
    115          1           0       11.295816    0.692559    0.118685
    116          1           0       11.281646   -1.091393    0.917051
    117          1           0       12.915592   -1.462585   -1.158813
    118          1           0       12.876421   -0.014890   -1.542679
    119          1           0       13.857423    1.030618    0.510904
    120          1           0       13.803116   -0.800154    1.099757
    121          1           0       15.342734    0.543929   -1.317272
    122          1           0       15.997305   -2.367854   -0.093751
    123          1           0       14.848327   -1.896801   -1.573153
    124          1           0       16.686561   -1.702694   -1.645537
    125          1           0       15.963498    1.202148    0.803402
    126          1           0       16.678483   -0.263577    1.127249
    127          1           0       18.201674   -0.526914   -0.666756
    128          1           0       17.930570    1.193681   -1.207036
    129          1           0       18.496508    2.302849    1.124886
    130          1           0       18.894678    0.438285    1.614624
    131          1           0       20.828726    0.246551   -0.147358
    132          1           0       20.074370    3.231674   -0.887891
    133          1           0       21.377207    2.069798   -1.709603
    134          1           0       19.561511    1.848688   -1.821773
    135          1           0       21.145733    1.037706    2.063503
    136          1           0       22.482661    1.846798    0.985927
    137          1           0       20.611629    2.707045    1.643554
 ---------------------------------------------------------------------

 SCF Done:  E(RCAM-B3LYP) =  -2932.61784483     A.U. after   16 cycles

 Excitation energies and oscillator strengths:

 Excited State   1:      Singlet-A      2.1041 eV  589.24 nm  f=0.2303  <S**2>=0.000
     240 -> 243       -0.27079
     241 -> 242        0.64244
 This state for optimization and/or second-order correction.
 Total Energy, E(TD-HF/TD-KS) =  -2932.54051940
 Copying the excited state density for this state as the 1-particle RhoCI density.

 The electronic state is 1-A.
 Alpha  occ. eigenvalues --  -46.85336 -19.25208 -19.24198 -19.22516 -19.20567
 Alpha  occ. eigenvalues --  -19.19587 -14.42103 -14.40321 -14.39728 -14.39238
 Alpha  occ. eigenvalues --  -10.39097 -10.38233 -10.34613 -10.32273 -10.31572
 Alpha  occ. eigenvalues --  -10.31347 -10.30948 -10.30237 -10.30139 -10.29245
 Alpha  occ. eigenvalues --  -10.29232 -10.29170 -10.29119 -10.28923 -10.28622
 Alpha  occ. eigenvalues --  -10.28466 -10.28394 -10.28162 -10.28105 -10.28058
 Alpha  occ. eigenvalues --  -10.28057 -10.27850 -10.27366 -10.27308 -10.27235
 Alpha  occ. eigenvalues --  -10.27123 -10.27063 -10.26946 -10.26886 -10.26705
 Alpha  occ. eigenvalues --  -10.26627 -10.26580 -10.26566 -10.26466 -10.26361
 Alpha  occ. eigenvalues --  -10.26344 -10.26284 -10.26277 -10.26099 -10.26060
 Alpha  occ. eigenvalues --  -10.25958 -10.25838 -10.25799 -10.25770 -10.25526
 Alpha  occ. eigenvalues --  -10.25469 -10.25452 -10.25370 -10.25279 -10.24935
 Alpha  occ. eigenvalues --  -10.24920 -10.24825 -10.24443 -10.23752 -10.23559
 Alpha  occ. eigenvalues --   -3.14297  -1.89012  -1.88551  -1.88455  -1.17588
 Alpha  occ. eigenvalues --   -1.15539  -1.08699  -1.08205  -1.07327  -1.05964
 Alpha  occ. eigenvalues --   -1.05002  -1.04628  -1.03850  -0.93141  -0.92618
 Alpha  occ. eigenvalues --   -0.91247  -0.90851  -0.89856  -0.89700  -0.89103
 Alpha  occ. eigenvalues --   -0.88628  -0.87938  -0.87844  -0.87555  -0.86808
 Alpha  occ. eigenvalues --   -0.86292  -0.84649  -0.84472  -0.83445  -0.83110
 Alpha  occ. eigenvalues --   -0.82029  -0.81458  -0.80452  -0.79370  -0.78807
 Alpha  occ. eigenvalues --   -0.78168  -0.76956  -0.75865  -0.75507  -0.75120
 Alpha  occ. eigenvalues --   -0.74737  -0.74413  -0.73804  -0.73181  -0.72608
 Alpha  occ. eigenvalues --   -0.72093  -0.71243  -0.70112  -0.69742  -0.69442
 Alpha  occ. eigenvalues --   -0.68262  -0.66861  -0.66139  -0.65623  -0.65230
 Alpha  occ. eigenvalues --   -0.64047  -0.63918  -0.62110  -0.61860  -0.61505
 Alpha  occ. eigenvalues --   -0.61122  -0.60821  -0.60255  -0.59822  -0.59065
 Alpha  occ. eigenvalues --   -0.58999  -0.58604  -0.57566  -0.57130  -0.56922
 Alpha  occ. eigenvalues --   -0.56182  -0.56022  -0.55602  -0.55321  -0.54735
 Alpha  occ. eigenvalues --   -0.54388  -0.54263  -0.53777  -0.53468  -0.53270
 Alpha  occ. eigenvalues --   -0.53028  -0.52455  -0.52376  -0.51917  -0.51781
 Alpha  occ. eigenvalues --   -0.51656  -0.51534  -0.51353  -0.51165  -0.50921
 Alpha  occ. eigenvalues --   -0.50711  -0.50447  -0.50351  -0.50263  -0.50092
 Alpha  occ. eigenvalues --   -0.49951  -0.49647  -0.49480  -0.49345  -0.48800
 Alpha  occ. eigenvalues --   -0.48641  -0.48443  -0.47625  -0.47520  -0.47312
 Alpha  occ. eigenvalues --   -0.47286  -0.47062  -0.46873  -0.46565  -0.46186
 Alpha  occ. eigenvalues --   -0.46010  -0.45915  -0.45806  -0.45703  -0.45575
 Alpha  occ. eigenvalues --   -0.45415  -0.44926  -0.44466  -0.44385  -0.44181
 Alpha  occ. eigenvalues --   -0.44160  -0.43751  -0.43548  -0.43449  -0.43279
 Alpha  occ. eigenvalues --   -0.42993  -0.42820  -0.42667  -0.42326  -0.42274
 Alpha  occ. eigenvalues --   -0.42132  -0.42043  -0.41994  -0.41836  -0.41599
 Alpha  occ. eigenvalues --   -0.41427  -0.41249  -0.41027  -0.40808  -0.40313
 Alpha  occ. eigenvalues --   -0.40225  -0.40162  -0.39944  -0.39599  -0.39470
 Alpha  occ. eigenvalues --   -0.38945  -0.38929  -0.38671  -0.38040  -0.37955
 Alpha  occ. eigenvalues --   -0.37785  -0.37421  -0.37365  -0.36671  -0.36520
 Alpha  occ. eigenvalues --   -0.36286  -0.36182  -0.35923  -0.35216  -0.34708
 Alpha  occ. eigenvalues --   -0.34695  -0.34422  -0.33907  -0.33771  -0.33196
 Alpha  occ. eigenvalues --   -0.33052  -0.32492  -0.32407  -0.31090  -0.30256
 Alpha  occ. eigenvalues --   -0.29606  -0.28826  -0.28320  -0.27530  -0.23241
 Alpha  occ. eigenvalues --   -0.21831
 Alpha virt. eigenvalues --   -0.06770  -0.03346   0.00719   0.03290   0.05326
 Alpha virt. eigenvalues --    0.05565   0.05771   0.06032   0.06651   0.07611
 Alpha virt. eigenvalues --    0.08490   0.10358   0.11156   0.11621   0.11782

 Mulliken charges:
               1
     1  Mg   0.827337
     2  C    0.021810
     3  C   -0.206472
     4  C   -0.161323
     5  C   -0.180074
     6  N   -0.628620
     7  C    0.345200
     8  C   -0.192965
     9  C   -0.138163
    10  C    0.334675
    11  C   -0.273878
    12  C   -0.150587
    13  C   -0.274118
    14  C    0.584269
    15  O   -0.422624
    16  O   -0.526871
    17  N   -0.710298
    18  C    0.369610
    19  C   -0.027963
    20  C    0.023705
    21  C    0.246004
    22  C   -0.375960
    23  C   -0.046570
    24  C   -0.232851
    25  N   -0.699853
    26  C    0.316442
    27  C   -0.006754
    28  C   -0.037200
    29  C    0.315476
    30  C   -0.365575
    31  C   -0.234753
    32  C   -0.307103
    33  N   -0.737312
    34  C    0.306286
    35  C   -0.017983
    36  C    0.166396
    37  C    0.280982
    38  C   -0.366984
    39  C    0.267340
    40  O   -0.491800
    41  C   -0.287466
    42  C    0.616213
    43  O   -0.461027
    44  O   -0.513827
    45  C   -0.058947
    46  C    0.019001
    47  C   -0.137904
    48  C    0.139441
    49  C   -0.356443
    50  C   -0.235503
    51  C   -0.168604
    52  C   -0.153403
    53  C   -0.089408
    54  C   -0.306803
    55  C   -0.122764
    56  C   -0.218938
    57  C   -0.166052
    58  C   -0.079023
    59  C   -0.329571
    60  C   -0.138512
    61  C   -0.181620
    62  C   -0.156464
    63  C   -0.056050
    64  C   -0.294453
    65  C   -0.290275
    66  H    0.094176
    67  H    0.092725
    68  H    0.110868
    69  H    0.126200
    70  H    0.101438
    71  H    0.116544
    72  H    0.083720
    73  H    0.096507
    74  H    0.130857
    75  H    0.122030
    76  H    0.129368
    77  H    0.140382
    78  H    0.124650
    79  H    0.111417
    80  H    0.110360
    81  H    0.090270
    82  H    0.097798
    83  H    0.120949
    84  H    0.135753
    85  H    0.113946
    86  H    0.120848
    87  H    0.099819
    88  H    0.105359
    89  H    0.098452
    90  H    0.109031
    91  H    0.107400
    92  H    0.101954
    93  H    0.154155
    94  H    0.134995
    95  H    0.156335
    96  H    0.110618
    97  H    0.147448
    98  H    0.102540
    99  H    0.134069
   100  H    0.122203
   101  H    0.087898
   102  H    0.108096
   103  H    0.115053
   104  H    0.109584
   105  H    0.098052
   106  H    0.092598
   107  H    0.104223
   108  H    0.103338
   109  H    0.067863
   110  H    0.072753
   111  H    0.069921
   112  H    0.081054
   113  H    0.104199
   114  H    0.081928
   115  H    0.100568
   116  H    0.081065
   117  H    0.104463
   118  H    0.091636
   119  H    0.091439
   120  H    0.104445
   121  H    0.098619
   122  H    0.078825
   123  H    0.102424
   124  H    0.102959
   125  H    0.070694
   126  H    0.103578
   127  H    0.084564
   128  H    0.096856
   129  H    0.063464
   130  H    0.072017
   131  H    0.088824
   132  H    0.080894
   133  H    0.091221
   134  H    0.091638
   135  H    0.107976
   136  H    0.095309
   137  H    0.082301
 Sum of Mulliken charges =   0.00000

 Dipole moment (field-independent basis, Debye):
    X=              0.5178    Y=              5.7457    Z=             -0.0972  Tot=              5.7698
 Quadrupole moment (field-independent basis, Debye-Ang):
   XX=           -351.7869   YY=           -396.7400   ZZ=           -399.2320
   XY=            -35.3903   XZ=              2.3387   YZ=             -1.1297

 Normal termination of Gaussian 09 at Wed Jul  3 18:53:58 2019.
