 Gaussian 09, Revision D.01,
 Gaussian 09:  ES64L-G09RevD.01 24-Apr-2013

 -------------------------------------
 # td=(NStates=1) CAM-B3LYP/6-31G(d,p)
 -------------------------------------

 --
 TD
 --
 Symbolic Z-matrix:
 Charge =  0 Multiplicity = 1

                         Standard orientation:
 ---------------------------------------------------------------------
 Center     Atomic      Atomic             Coordinates (Angstroms)
 Number     Number       Type             X           Y           Z
 ---------------------------------------------------------------------
      1         12           0       -7.182375    0.560227    0.093401
      2          6           0       -4.917548   -2.008891    0.464245
      3          6           0       -4.860959    2.815050    1.213206
      4          6           0       -9.376747    3.129916   -0.416230
      5          6           0       -9.546636   -1.693311   -0.879613
      6          7           0       -5.177109    0.366854    0.735876
      7          6           0       -4.358237   -0.719959    0.790867
      8          6           0       -2.919773   -0.376073    1.219253
      9          6           0       -2.996433    1.078402    1.822698
     10          6           0       -4.519356    1.464400    1.101834
     11          6           0       -3.213139    1.004432    3.363400
     12          6           0       -1.949420   -0.608119    0.149225
     13          6           0       -0.472486   -0.592258    0.632601
     14          6           0        0.548401   -0.788721   -0.572919
     15          8           0        0.187432   -1.066117   -1.620641
     16          8           0        1.822349   -0.546859   -0.068933
     17          7           0       -7.181587    2.631423    0.332422
     18          6           0       -6.110650    3.326829    0.842600
     19          6           0       -6.451446    4.717534    0.790007
     20          6           0       -7.731070    4.886881    0.270910
     21          6           0       -8.191344    3.510130    0.116412
     22          6           0       -5.514724    5.829836    1.226046
     23          6           0       -8.513902    6.128497    0.086156
     24          6           0       -8.290969    7.271373    0.785814
     25          7           0       -9.114367    0.634581   -0.467937
     26          6           0       -9.881832    1.775294   -0.674613
     27          6           0      -11.192946    1.477561   -1.176194
     28          6           0      -11.225613    0.125143   -1.312097
     29          6           0       -9.982522   -0.408682   -0.938304
     30          6           0      -12.185486    2.562731   -1.474424
     31          6           0      -12.315644   -0.689834   -1.899973
     32          6           0      -12.083968   -1.001304   -3.384930
     33          7           0       -7.189301   -1.331399   -0.147794
     34          6           0       -8.340645   -2.110371   -0.514387
     35          6           0       -7.831534   -3.616782   -0.530303
     36          6           0       -6.528409   -3.546683   -0.090450
     37          6           0       -6.145406   -2.211772    0.085145
     38          6           0       -8.571221   -4.770323   -0.871127
     39          6           0       -5.266766   -4.350407    0.087347
     40          8           0       -5.162174   -5.614490    0.176114
     41          6           0       -4.152493   -3.321329    0.587263
     42          6           0       -3.653528   -3.672577    1.903376
     43          8           0       -3.984739   -3.307183    2.987275
     44          8           0       -2.659393   -4.612176    1.681822
     45          6           0       -1.955398   -5.149043    2.848993
     46          6           0        2.807453   -0.730220   -1.075373
     47          6           0        4.152289   -0.557744   -0.601137
     48          6           0        5.103080    0.399628   -0.969601
     49          6           0        5.064623    1.292199   -2.123639
     50          6           0        6.417121    0.404892   -0.134202
     51          6           0        7.663279   -0.123917   -0.923676
     52          6           0        8.913755   -0.079529   -0.116773
     53          6           0       10.199990   -0.573549   -0.898308
     54          6           0       10.174711   -2.084117   -1.186808
     55          6           0       11.488326   -0.220694   -0.065597
     56          6           0       12.789390   -0.491178   -0.814320
     57          6           0       13.943171   -0.016154    0.030095
     58          6           0       15.332816   -0.190950   -0.498620
     59          6           0       15.640820   -1.664500   -0.783253
     60          6           0       16.488702    0.416928    0.383635
     61          6           0       17.776496    0.621235   -0.321509
     62          6           0       18.810362    1.235432    0.657617
     63          6           0       20.232360    1.371808    0.191257
     64          6           0       20.495167    2.117010   -1.098472
     65          6           0       21.109320    2.078266    1.275711
     66          1           0       -4.156714    3.674799    1.536497
     67          1           0      -10.211487    3.874736   -0.472527
     68          1           0      -10.252548   -2.408677   -1.236079
     69          1           0       -2.397887   -1.011734    2.066696
     70          1           0       -2.300880    1.719435    1.362350
     71          1           0       -2.380722    0.805293    3.854713
     72          1           0       -3.658404    1.988283    3.574974
     73          1           0       -3.905488    0.176943    3.547366
     74          1           0       -2.207510   -1.557169   -0.357187
     75          1           0       -2.093024    0.098100   -0.691074
     76          1           0       -0.255676    0.146453    1.186142
     77          1           0       -0.155123   -1.497180    1.313892
     78          1           0       -5.874017    6.817831    0.738248
     79          1           0       -5.438525    5.965077    2.332565
     80          1           0       -4.497340    5.564521    0.916467
     81          1           0       -9.367968    6.048184   -0.614732
     82          1           0       -8.974604    8.131686    0.698519
     83          1           0       -7.675641    7.069945    1.550866
     84          1           0      -11.793290    3.439077   -2.277963
     85          1           0      -13.024126    2.059791   -1.793021
     86          1           0      -12.287357    3.061247   -0.476437
     87          1           0      -12.245638   -1.717136   -1.328928
     88          1           0      -13.178322   -0.113884   -1.750352
     89          1           0      -12.932941   -1.568570   -3.725554
     90          1           0      -12.043894   -0.072950   -3.979880
     91          1           0      -11.079255   -1.489290   -3.721755
     92          1           0       -9.009217   -4.902449   -2.054722
     93          1           0       -7.849154   -5.630819   -0.471457
     94          1           0       -9.599136   -4.631038   -0.454437
     95          1           0       -3.556969   -3.355199   -0.436850
     96          1           0       -1.511844   -4.282241    3.637491
     97          1           0       -2.774211   -5.788456    3.559178
     98          1           0       -1.195045   -5.944495    2.501016
     99          1           0        2.636729   -1.569104   -1.608823
    100          1           0        2.579335    0.082161   -1.886013
    101          1           0        4.274114   -1.047420    0.401465
    102          1           0        4.069329    1.367481   -2.507694
    103          1           0        5.309113    2.307862   -1.814315
    104          1           0        5.691802    0.965816   -2.899107
    105          1           0        6.426317    1.319830    0.490581
    106          1           0        6.360744   -0.437936    0.763269
    107          1           0        7.517829   -1.201567   -1.432107
    108          1           0        7.624756    0.658366   -1.843267
    109          1           0        9.012652    1.052195    0.221627
    110          1           0        8.823971   -0.546211    0.995143
    111          1           0       10.321952   -0.043019   -1.948349
    112          1           0        9.340673   -2.462572   -1.904215
    113          1           0       11.174708   -2.545270   -1.550857
    114          1           0        9.774092   -2.713404   -0.185446
    115          1           0       11.468539    0.829185    0.192218
    116          1           0       11.611797   -0.724232    0.916487
    117          1           0       12.998224   -1.416030   -1.057242
    118          1           0       12.242609    0.116600   -1.935314
    119          1           0       13.696706    1.070362    0.097000
    120          1           0       13.880369   -0.461706    1.077520
    121          1           0       15.404123    0.399637   -1.443295
    122          1           0       15.439180   -2.287779    0.162545
    123          1           0       15.011205   -1.962147   -1.713119
    124          1           0       16.809862   -1.837441   -0.837077
    125          1           0       16.160185    1.346716    0.789708
    126          1           0       16.608700   -0.210629    1.330394
    127          1           0       18.135801   -0.555949   -0.589029
    128          1           0       17.594156    1.016971   -1.361274
    129          1           0       18.355980    2.028841    1.011893
    130          1           0       18.790246    0.883957    1.634067
    131          1           0       20.594981    0.337190    0.112702
    132          1           0       20.413651    3.019558   -1.053339
    133          1           0       21.540284    2.025767   -1.187408
    134          1           0       19.912642    1.665267   -1.864241
    135          1           0       21.091735    1.703757    2.399978
    136          1           0       22.162400    2.401200    1.031642
    137          1           0       20.799417    3.060759    1.452229
 ---------------------------------------------------------------------

 SCF Done:  E(RCAM-B3LYP) =  -2932.58823162     A.U. after   18 cycles

 Excitation energies and oscillator strengths:

 Excited State   1:      Singlet-A      2.0801 eV  596.05 nm  f=0.1920  <S**2>=0.000
     240 -> 243       -0.29620
     241 -> 242        0.63694
 This state for optimization and/or second-order correction.
 Total Energy, E(TD-HF/TD-KS) =  -2932.51178899
 Copying the excited state density for this state as the 1-particle RhoCI density.

 The electronic state is 1-A.
 Alpha  occ. eigenvalues --  -46.82802 -19.26206 -19.25796 -19.22805 -19.21983
 Alpha  occ. eigenvalues --  -19.21328 -14.42702 -14.39190 -14.39102 -14.38540
 Alpha  occ. eigenvalues --  -10.39800 -10.39530 -10.36784 -10.34365 -10.32195
 Alpha  occ. eigenvalues --  -10.31519 -10.30592 -10.29791 -10.29662 -10.29409
 Alpha  occ. eigenvalues --  -10.29348 -10.28582 -10.28364 -10.28340 -10.28311
 Alpha  occ. eigenvalues --  -10.28308 -10.28181 -10.28107 -10.28067 -10.27967
 Alpha  occ. eigenvalues --  -10.27905 -10.27739 -10.27627 -10.27405 -10.27375
 Alpha  occ. eigenvalues --  -10.27110 -10.27059 -10.26956 -10.26863 -10.26830
 Alpha  occ. eigenvalues --  -10.26775 -10.26625 -10.26594 -10.26539 -10.26515
 Alpha  occ. eigenvalues --  -10.26420 -10.26180 -10.26064 -10.25984 -10.25978
 Alpha  occ. eigenvalues --  -10.25972 -10.25920 -10.25807 -10.25681 -10.25576
 Alpha  occ. eigenvalues --  -10.25524 -10.25412 -10.25332 -10.25144 -10.25011
 Alpha  occ. eigenvalues --  -10.24852 -10.24832 -10.24715 -10.23205 -10.21470
 Alpha  occ. eigenvalues --   -3.12188  -1.86861  -1.86454  -1.86376  -1.19959
 Alpha  occ. eigenvalues --   -1.17639  -1.12638  -1.09513  -1.08769  -1.04797
 Alpha  occ. eigenvalues --   -1.03379  -1.02095  -1.00806  -0.93479  -0.91194
 Alpha  occ. eigenvalues --   -0.90763  -0.90394  -0.89862  -0.89129  -0.88890
 Alpha  occ. eigenvalues --   -0.88337  -0.88290  -0.88013  -0.87425  -0.85909
 Alpha  occ. eigenvalues --   -0.85185  -0.84348  -0.83830  -0.83278  -0.82524
 Alpha  occ. eigenvalues --   -0.82303  -0.81508  -0.80493  -0.80328  -0.78727
 Alpha  occ. eigenvalues --   -0.78000  -0.77175  -0.76872  -0.75855  -0.75322
 Alpha  occ. eigenvalues --   -0.75086  -0.74511  -0.74067  -0.72410  -0.71920
 Alpha  occ. eigenvalues --   -0.71119  -0.70464  -0.69932  -0.69069  -0.68000
 Alpha  occ. eigenvalues --   -0.67021  -0.66052  -0.65530  -0.65272  -0.64924
 Alpha  occ. eigenvalues --   -0.64304  -0.64120  -0.63799  -0.62809  -0.61631
 Alpha  occ. eigenvalues --   -0.61564  -0.60987  -0.59937  -0.59725  -0.59492
 Alpha  occ. eigenvalues --   -0.58780  -0.58191  -0.58013  -0.57115  -0.56858
 Alpha  occ. eigenvalues --   -0.56788  -0.55633  -0.54854  -0.54808  -0.54646
 Alpha  occ. eigenvalues --   -0.54255  -0.53805  -0.53491  -0.53066  -0.52686
 Alpha  occ. eigenvalues --   -0.52643  -0.52422  -0.52355  -0.52041  -0.51913
 Alpha  occ. eigenvalues --   -0.51663  -0.51459  -0.50998  -0.50717  -0.50617
 Alpha  occ. eigenvalues --   -0.50287  -0.49973  -0.49834  -0.49666  -0.49630
 Alpha  occ. eigenvalues --   -0.49420  -0.49340  -0.48893  -0.48694  -0.48677
 Alpha  occ. eigenvalues --   -0.48186  -0.47960  -0.47915  -0.47690  -0.47166
 Alpha  occ. eigenvalues --   -0.47140  -0.46957  -0.46884  -0.46430  -0.46145
 Alpha  occ. eigenvalues --   -0.45828  -0.45668  -0.45305  -0.45212  -0.45176
 Alpha  occ. eigenvalues --   -0.44984  -0.44846  -0.44745  -0.44465  -0.44330
 Alpha  occ. eigenvalues --   -0.44200  -0.43851  -0.43637  -0.43462  -0.43359
 Alpha  occ. eigenvalues --   -0.43327  -0.43098  -0.42506  -0.42456  -0.42367
 Alpha  occ. eigenvalues --   -0.42134  -0.41979  -0.41926  -0.41890  -0.41474
 Alpha  occ. eigenvalues --   -0.41285  -0.41044  -0.40643  -0.40519  -0.40409
 Alpha  occ. eigenvalues --   -0.40257  -0.40019  -0.39760  -0.39594  -0.39064
 Alpha  occ. eigenvalues --   -0.38791  -0.38319  -0.37995  -0.37780  -0.37763
 Alpha  occ. eigenvalues --   -0.37528  -0.37496  -0.37284  -0.37055  -0.36600
 Alpha  occ. eigenvalues --   -0.36283  -0.36165  -0.35808  -0.35518  -0.35190
 Alpha  occ. eigenvalues --   -0.34847  -0.34802  -0.34509  -0.34156  -0.34135
 Alpha  occ. eigenvalues --   -0.33423  -0.33082  -0.32590  -0.30926  -0.30431
 Alpha  occ. eigenvalues --   -0.29434  -0.29113  -0.27766  -0.27215  -0.23586
 Alpha  occ. eigenvalues --   -0.20741
 Alpha virt. eigenvalues --   -0.05618  -0.04156   0.00065   0.03770   0.05083
 Alpha virt. eigenvalues --    0.05143   0.06467   0.06609   0.07504   0.07865
 Alpha virt. eigenvalues --    0.08222   0.09337   0.10250   0.10754   0.11281

 Mulliken charges:
               1
     1  Mg   0.810098
     2  C   -0.018855
     3  C   -0.197700
     4  C   -0.189261
     5  C   -0.185233
     6  N   -0.609718
     7  C    0.318737
     8  C   -0.151409
     9  C   -0.135307
    10  C    0.287194
    11  C   -0.297474
    12  C   -0.170946
    13  C   -0.262339
    14  C    0.601524
    15  O   -0.404112
    16  O   -0.493423
    17  N   -0.702550
    18  C    0.357555
    19  C   -0.031764
    20  C    0.032950
    21  C    0.306745
    22  C   -0.388008
    23  C   -0.072420
    24  C   -0.246348
    25  N   -0.694672
    26  C    0.274939
    27  C    0.023692
    28  C    0.019753
    29  C    0.286828
    30  C   -0.348235
    31  C   -0.225590
    32  C   -0.306806
    33  N   -0.779876
    34  C    0.295040
    35  C    0.047693
    36  C    0.031417
    37  C    0.361208
    38  C   -0.410708
    39  C    0.347454
    40  O   -0.468812
    41  C   -0.310984
    42  C    0.663918
    43  O   -0.452184
    44  O   -0.468521
    45  C   -0.069798
    46  C    0.024612
    47  C   -0.141126
    48  C    0.101668
    49  C   -0.368694
    50  C   -0.223301
    51  C   -0.155051
    52  C   -0.159597
    53  C   -0.052793
    54  C   -0.297146
    55  C   -0.172057
    56  C   -0.137222
    57  C   -0.180560
    58  C   -0.057343
    59  C   -0.305658
    60  C   -0.184903
    61  C   -0.162156
    62  C   -0.162454
    63  C   -0.052812
    64  C   -0.290092
    65  C   -0.344050
    66  H    0.090827
    67  H    0.081145
    68  H    0.082349
    69  H    0.099899
    70  H    0.103943
    71  H    0.120113
    72  H    0.110399
    73  H    0.134314
    74  H    0.114067
    75  H    0.108953
    76  H    0.131460
    77  H    0.115504
    78  H    0.119220
    79  H    0.121222
    80  H    0.110687
    81  H    0.091281
    82  H    0.110994
    83  H    0.115978
    84  H    0.101126
    85  H    0.111416
    86  H    0.127638
    87  H    0.089948
    88  H    0.106470
    89  H    0.109412
    90  H    0.107432
    91  H    0.103359
    92  H    0.108149
    93  H    0.153174
    94  H    0.132073
    95  H    0.179620
    96  H    0.107576
    97  H    0.105442
    98  H    0.131839
    99  H    0.133314
   100  H    0.085303
   101  H    0.091479
   102  H    0.116950
   103  H    0.119578
   104  H    0.138879
   105  H    0.110529
   106  H    0.069915
   107  H    0.095008
   108  H    0.075813
   109  H    0.079461
   110  H    0.084436
   111  H    0.081894
   112  H    0.093980
   113  H    0.106805
   114  H    0.073106
   115  H    0.097446
   116  H    0.085934
   117  H    0.106904
   118  H    0.021355
   119  H    0.090707
   120  H    0.088672
   121  H    0.082838
   122  H    0.091339
   123  H    0.101726
   124  H    0.091666
   125  H    0.090947
   126  H    0.080224
   127  H    0.048492
   128  H    0.099524
   129  H    0.094414
   130  H    0.093626
   131  H    0.093180
   132  H    0.108670
   133  H    0.101502
   134  H    0.100977
   135  H    0.080156
   136  H    0.092275
   137  H    0.110992
 Sum of Mulliken charges =   0.00000

 Dipole moment (field-independent basis, Debye):
    X=              1.8272    Y=              4.7146    Z=             -0.0185  Tot=              5.0563
 Quadrupole moment (field-independent basis, Debye-Ang):
   XX=           -355.6781   YY=           -398.5802   ZZ=           -396.9996
   XY=             -9.9621   XZ=             22.1218   YZ=              3.1164

 Normal termination of Gaussian 09 at Sat Jul  6 16:46:59 2019.
