 Gaussian 16, Revision A.03,
 Gaussian 16:  ES64L-G16RevA.03 25-Dec-2016

 ----------------------------------------------------------------------
 # td=(NStates=1) iop(3/107=0140000000,3/108=0140000000) CAM-B3LYP/6-31
 G(d,p)
 ----------------------------------------------------------------------

 --
 TD
 --
 Symbolic Z-matrix:
 Charge =  0 Multiplicity = 1

                         Standard orientation:
 ---------------------------------------------------------------------
 Center     Atomic      Atomic             Coordinates (Angstroms)
 Number     Number       Type             X           Y           Z
 ---------------------------------------------------------------------
      1         12           0       -7.149634    0.605680    0.102796
      2          6           0       -4.848456   -1.962245    0.466912
      3          6           0       -4.825685    2.813658    1.256350
      4          6           0       -9.391528    3.104472   -0.410999
      5          6           0       -9.569695   -1.696860   -0.872313
      6          7           0       -5.096227    0.435278    0.687132
      7          6           0       -4.379926   -0.727493    0.780586
      8          6           0       -2.961658   -0.411872    1.354829
      9          6           0       -3.040937    0.973465    1.830729
     10          6           0       -4.410800    1.515322    1.176739
     11          6           0       -3.132520    1.199588    3.308570
     12          6           0       -1.938829   -0.404659    0.147477
     13          6           0       -0.460315   -0.429199    0.684849
     14          6           0        0.516744   -0.611240   -0.650801
     15          8           0        0.095864   -0.873544   -1.762544
     16          8           0        1.738313   -0.467065   -0.191187
     17          7           0       -7.051502    2.653974    0.329370
     18          6           0       -6.082965    3.438343    0.873314
     19          6           0       -6.424376    4.777440    0.882999
     20          6           0       -7.770426    4.855221    0.344307
     21          6           0       -8.101817    3.490977    0.040343
     22          6           0       -5.495596    5.866970    1.256744
     23          6           0       -8.591065    5.994850    0.027300
     24          6           0       -8.316715    7.293775    0.513368
     25          7           0       -8.999718    0.694651   -0.623287
     26          6           0       -9.771131    1.797061   -0.709877
     27          6           0      -11.167390    1.461910   -1.037763
     28          6           0      -11.264915    0.063759   -1.156571
     29          6           0       -9.880067   -0.398794   -0.877079
     30          6           0      -12.239176    2.579833   -1.370519
     31          6           0      -12.321221   -0.751413   -1.676900
     32          6           0      -12.339454   -1.071605   -3.135954
     33          7           0       -7.206443   -1.411437   -0.240723
     34          6           0       -8.267957   -2.226908   -0.631688
     35          6           0       -7.788716   -3.664689   -0.567551
     36          6           0       -6.421582   -3.590650   -0.208253
     37          6           0       -6.190599   -2.123543    0.061985
     38          6           0       -8.579588   -4.823387   -1.036644
     39          6           0       -5.268977   -4.435321    0.157354
     40          8           0       -5.166987   -5.606398    0.060494
     41          6           0       -4.170652   -3.386677    0.564252
     42          6           0       -3.505057   -3.700771    1.887862
     43          8           0       -3.671631   -3.179355    2.922092
     44          8           0       -2.654835   -4.748546    1.772352
     45          6           0       -2.208366   -5.283351    2.951024
     46          6           0        2.799033   -0.714696   -1.186458
     47          6           0        4.162615   -0.553169   -0.593758
     48          6           0        5.107097    0.335392   -0.975020
     49          6           0        5.150343    1.200669   -2.143168
     50          6           0        6.443893    0.379426   -0.097654
     51          6           0        7.598526   -0.350859   -0.895471
     52          6           0        8.797792   -0.292628   -0.052796
     53          6           0       10.049293   -0.601581   -0.942296
     54          6           0       10.136283   -2.005604   -1.359701
     55          6           0       11.399551   -0.241049   -0.007302
     56          6           0       12.723539   -0.482378   -0.638353
     57          6           0       13.948204    0.009357    0.216945
     58          6           0       15.324815   -0.264230   -0.473961
     59          6           0       15.630627   -1.720438   -0.746709
     60          6           0       16.443149    0.403512    0.417545
     61          6           0       17.801340    0.508633   -0.272286
     62          6           0       18.795432    1.339307    0.664917
     63          6           0       20.187339    1.391541    0.127399
     64          6           0       20.311968    2.334039   -1.124647
     65          6           0       21.215499    1.909119    1.216088
     66          1           0       -4.064527    3.481995    1.709401
     67          1           0      -10.098571    3.886908   -0.828664
     68          1           0      -10.054600   -2.385277   -1.287480
     69          1           0       -2.689451   -1.038494    2.075128
     70          1           0       -2.238991    1.459288    1.332062
     71          1           0       -2.272485    1.050700    3.733606
     72          1           0       -3.142815    2.257921    3.744186
     73          1           0       -4.022248    0.655291    3.810110
     74          1           0       -2.148080   -1.404893   -0.487383
     75          1           0       -2.214556    0.590040   -0.403487
     76          1           0       -0.266437    0.529735    1.138534
     77          1           0       -0.101453   -1.431590    1.319961
     78          1           0       -5.467804    6.696894    0.566073
     79          1           0       -5.648228    6.318574    2.121862
     80          1           0       -4.427816    5.600800    1.220579
     81          1           0       -9.390700    5.809570   -0.700789
     82          1           0       -9.025490    7.993783   -0.016405
     83          1           0       -7.621640    7.858961    1.279363
     84          1           0      -12.134144    2.947392   -2.445214
     85          1           0      -13.309213    2.201105   -1.217571
     86          1           0      -12.133946    3.387370   -0.541163
     87          1           0      -12.346434   -1.674939   -0.944387
     88          1           0      -13.242797   -0.033917   -1.410035
     89          1           0      -13.247622   -1.461427   -3.469208
     90          1           0      -12.188201   -0.315281   -3.996584
     91          1           0      -11.718771   -1.979560   -3.396530
     92          1           0       -8.849201   -4.736314   -2.119263
     93          1           0       -7.844736   -5.802483   -0.762991
     94          1           0       -9.483375   -5.209083   -0.531972
     95          1           0       -3.350794   -3.449594    0.019255
     96          1           0       -1.117637   -4.882717    3.439032
     97          1           0       -2.959269   -5.374964    3.905713
     98          1           0       -1.891195   -6.236275    2.675100
     99          1           0        2.628691   -1.806676   -1.662578
    100          1           0        2.826206    0.206514   -1.952131
    101          1           0        4.225970   -0.966666    0.409055
    102          1           0        4.198470    1.229546   -2.803859
    103          1           0        5.497763    2.296582   -1.938635
    104          1           0        5.804145    0.887923   -2.899386
    105          1           0        6.543841    1.335688    0.250258
    106          1           0        6.202644   -0.271537    0.803305
    107          1           0        7.313169   -1.380944   -1.058757
    108          1           0        7.803663    0.272599   -1.667773
    109          1           0        8.958943    0.784833    0.243816
    110          1           0        8.802616   -0.906700    0.740658
    111          1           0       10.247543    0.012684   -1.882323
    112          1           0        9.164904   -2.014246   -2.022524
    113          1           0       11.070870   -2.451102   -1.975874
    114          1           0        9.793805   -2.588346   -0.469892
    115          1           0       11.160735    0.741359    0.363304
    116          1           0       11.476705   -1.175996    1.023460
    117          1           0       12.932092   -1.570956   -0.900167
    118          1           0       12.919989    0.006824   -1.547378
    119          1           0       13.861306    1.130259    0.259070
    120          1           0       14.033993   -0.362869    1.220354
    121          1           0       15.346508    0.299143   -1.272821
    122          1           0       15.652115   -2.274359    0.088836
    123          1           0       14.876896   -1.879497   -1.800250
    124          1           0       16.517730   -1.772241   -1.189031
    125          1           0       16.075291    1.422400    0.733078
    126          1           0       16.482442   -0.107363    1.464220
    127          1           0       18.386166   -0.430555   -0.400046
    128          1           0       17.733675    1.002801   -1.211887
    129          1           0       18.535630    2.263705    0.904463
    130          1           0       18.866569    0.942796    1.693553
    131          1           0       20.530040    0.359908   -0.268634
    132          1           0       20.222855    3.394590   -0.843690
    133          1           0       21.303698    2.323298   -1.409620
    134          1           0       19.506749    2.247470   -1.860969
    135          1           0       21.075615    1.187815    2.190814
    136          1           0       22.239146    1.899913    0.748971
    137          1           0       20.951537    2.863732    1.509759
 ---------------------------------------------------------------------

 SCF Done:  E(RCAM-B3LYP) =  -2933.44927237     A.U. after   16 cycles

 Excitation energies and oscillator strengths:

 Excited State   1:      Singlet-A      1.9927 eV  622.19 nm  f=0.3509  <S**2>=0.000
     240 -> 243       -0.20207
     241 -> 242        0.66965
 This state for optimization and/or second-order correction.
 Total Energy, E(TD-HF/TD-DFT) =  -2933.37604170
 Copying the excited state density for this state as the 1-particle RhoCI density.

 The electronic state is 1-A.
 Alpha  occ. eigenvalues --  -46.79468 -19.23247 -19.22319 -19.16663 -19.16648
 Alpha  occ. eigenvalues --  -19.16634 -14.36912 -14.35248 -14.35209 -14.34409
 Alpha  occ. eigenvalues --  -10.34518 -10.34058 -10.30739 -10.29325 -10.27728
 Alpha  occ. eigenvalues --  -10.25542 -10.25487 -10.25030 -10.24502 -10.24437
 Alpha  occ. eigenvalues --  -10.24406 -10.24401 -10.24376 -10.24361 -10.24336
 Alpha  occ. eigenvalues --  -10.23879 -10.23756 -10.23745 -10.23681 -10.23587
 Alpha  occ. eigenvalues --  -10.23553 -10.23406 -10.22921 -10.22912 -10.22831
 Alpha  occ. eigenvalues --  -10.22814 -10.22580 -10.22554 -10.22397 -10.22021
 Alpha  occ. eigenvalues --  -10.22015 -10.21923 -10.21885 -10.21837 -10.21795
 Alpha  occ. eigenvalues --  -10.21769 -10.21689 -10.21555 -10.21323 -10.21230
 Alpha  occ. eigenvalues --  -10.21177 -10.21159 -10.21127 -10.20870 -10.20785
 Alpha  occ. eigenvalues --  -10.20666 -10.20661 -10.20434 -10.20302 -10.20284
 Alpha  occ. eigenvalues --  -10.19959 -10.19849 -10.19794 -10.19302 -10.19134
 Alpha  occ. eigenvalues --   -3.08116  -1.83057  -1.82595  -1.82516  -1.15314
 Alpha  occ. eigenvalues --   -1.13536  -1.08488  -1.06357  -1.04487  -0.99318
 Alpha  occ. eigenvalues --   -0.98122  -0.97322  -0.96543  -0.86801  -0.86762
 Alpha  occ. eigenvalues --   -0.85028  -0.84710  -0.84631  -0.84495  -0.83201
 Alpha  occ. eigenvalues --   -0.83130  -0.82737  -0.81929  -0.81670  -0.80447
 Alpha  occ. eigenvalues --   -0.79957  -0.78873  -0.78294  -0.77657  -0.77360
 Alpha  occ. eigenvalues --   -0.76882  -0.76350  -0.75784  -0.74847  -0.73100
 Alpha  occ. eigenvalues --   -0.72823  -0.72247  -0.71737  -0.71608  -0.71100
 Alpha  occ. eigenvalues --   -0.70552  -0.70161  -0.69231  -0.68516  -0.68058
 Alpha  occ. eigenvalues --   -0.66860  -0.65973  -0.65407  -0.64045  -0.63385
 Alpha  occ. eigenvalues --   -0.62883  -0.62498  -0.61007  -0.60553  -0.60205
 Alpha  occ. eigenvalues --   -0.60032  -0.59766  -0.58509  -0.58428  -0.58013
 Alpha  occ. eigenvalues --   -0.57593  -0.56297  -0.56048  -0.55117  -0.55038
 Alpha  occ. eigenvalues --   -0.54932  -0.54051  -0.53666  -0.53184  -0.52691
 Alpha  occ. eigenvalues --   -0.52294  -0.51784  -0.51266  -0.50989  -0.50590
 Alpha  occ. eigenvalues --   -0.50235  -0.50197  -0.50070  -0.49506  -0.49146
 Alpha  occ. eigenvalues --   -0.49111  -0.48682  -0.47771  -0.47506  -0.47488
 Alpha  occ. eigenvalues --   -0.47203  -0.47091  -0.47049  -0.46708  -0.46671
 Alpha  occ. eigenvalues --   -0.46524  -0.46377  -0.46106  -0.45969  -0.45739
 Alpha  occ. eigenvalues --   -0.45518  -0.45488  -0.45194  -0.45008  -0.44892
 Alpha  occ. eigenvalues --   -0.44520  -0.44318  -0.43976  -0.43892  -0.43785
 Alpha  occ. eigenvalues --   -0.43530  -0.43153  -0.42975  -0.42702  -0.42643
 Alpha  occ. eigenvalues --   -0.42201  -0.42165  -0.41970  -0.41901  -0.41721
 Alpha  occ. eigenvalues --   -0.41562  -0.41361  -0.41276  -0.41193  -0.40724
 Alpha  occ. eigenvalues --   -0.40676  -0.40612  -0.40483  -0.40331  -0.40085
 Alpha  occ. eigenvalues --   -0.39823  -0.39609  -0.39308  -0.39072  -0.38910
 Alpha  occ. eigenvalues --   -0.38655  -0.38311  -0.38194  -0.38013  -0.37917
 Alpha  occ. eigenvalues --   -0.37680  -0.37324  -0.37217  -0.37096  -0.36844
 Alpha  occ. eigenvalues --   -0.36675  -0.36614  -0.36495  -0.36300  -0.35879
 Alpha  occ. eigenvalues --   -0.35605  -0.35305  -0.35067  -0.34822  -0.34701
 Alpha  occ. eigenvalues --   -0.34319  -0.34265  -0.33778  -0.33548  -0.33350
 Alpha  occ. eigenvalues --   -0.33037  -0.32794  -0.32428  -0.32405  -0.32094
 Alpha  occ. eigenvalues --   -0.32068  -0.31896  -0.31078  -0.30545  -0.29813
 Alpha  occ. eigenvalues --   -0.29337  -0.28902  -0.28745  -0.28473  -0.27237
 Alpha  occ. eigenvalues --   -0.27145  -0.27069  -0.25806  -0.23677  -0.21318
 Alpha  occ. eigenvalues --   -0.19790
 Alpha virt. eigenvalues --   -0.07389  -0.03238   0.00470   0.02133   0.03177
 Alpha virt. eigenvalues --    0.04632   0.04775   0.05268   0.05387   0.06470
 Alpha virt. eigenvalues --    0.07060   0.09028   0.09280   0.09621   0.09647

 Mulliken charges:
               1
     1  Mg   0.805201
     2  C    0.074665
     3  C   -0.200190
     4  C   -0.173342
     5  C   -0.116559
     6  N   -0.635973
     7  C    0.286951
     8  C   -0.120685
     9  C   -0.127666
    10  C    0.316739
    11  C   -0.302476
    12  C   -0.172792
    13  C   -0.257443
    14  C    0.594366
    15  O   -0.464140
    16  O   -0.435813
    17  N   -0.709227
    18  C    0.318416
    19  C    0.026380
    20  C    0.033351
    21  C    0.291952
    22  C   -0.394474
    23  C   -0.108812
    24  C   -0.242860
    25  N   -0.701725
    26  C    0.339387
    27  C    0.001404
    28  C    0.063314
    29  C    0.287360
    30  C   -0.380412
    31  C   -0.245805
    32  C   -0.310090
    33  N   -0.716479
    34  C    0.206715
    35  C    0.022433
    36  C   -0.023190
    37  C    0.340914
    38  C   -0.406898
    39  C    0.388288
    40  O   -0.426516
    41  C   -0.283168
    42  C    0.582502
    43  O   -0.435487
    44  O   -0.415091
    45  C   -0.079870
    46  C    0.007822
    47  C   -0.138603
    48  C    0.130438
    49  C   -0.385918
    50  C   -0.241491
    51  C   -0.158764
    52  C   -0.167240
    53  C   -0.076766
    54  C   -0.284294
    55  C   -0.130231
    56  C   -0.178703
    57  C   -0.175443
    58  C   -0.059769
    59  C   -0.277312
    60  C   -0.184194
    61  C   -0.178143
    62  C   -0.160064
    63  C   -0.059460
    64  C   -0.317440
    65  C   -0.310348
    66  H    0.071048
    67  H    0.090095
    68  H    0.059775
    69  H    0.109832
    70  H    0.093923
    71  H    0.116944
    72  H    0.090576
    73  H    0.118459
    74  H    0.101209
    75  H    0.108313
    76  H    0.129716
    77  H    0.114636
    78  H    0.121138
    79  H    0.132142
    80  H    0.107569
    81  H    0.101072
    82  H    0.087206
    83  H    0.116464
    84  H    0.128297
    85  H    0.109194
    86  H    0.116442
    87  H    0.102838
    88  H    0.087416
    89  H    0.121521
    90  H    0.108888
    91  H    0.102346
    92  H    0.130512
    93  H    0.119112
    94  H    0.129110
    95  H    0.157277
    96  H    0.068811
    97  H    0.116974
    98  H    0.130897
    99  H    0.121820
   100  H    0.103407
   101  H    0.089919
   102  H    0.105877
   103  H    0.111243
   104  H    0.143808
   105  H    0.110411
   106  H    0.089246
   107  H    0.114818
   108  H    0.109537
   109  H    0.086991
   110  H    0.110060
   111  H    0.076977
   112  H    0.077457
   113  H    0.101350
   114  H    0.098453
   115  H    0.087536
   116  H    0.009941
   117  H    0.095064
   118  H    0.088649
   119  H    0.077489
   120  H    0.088309
   121  H    0.088103
   122  H    0.112449
   123  H    0.055429
   124  H    0.116727
   125  H    0.082532
   126  H    0.071336
   127  H    0.097383
   128  H    0.099390
   129  H    0.096304
   130  H    0.076459
   131  H    0.069760
   132  H    0.089494
   133  H    0.107260
   134  H    0.100006
   135  H    0.076876
   136  H    0.098484
   137  H    0.116663
 Sum of Mulliken charges =  -0.00000

 Dipole moment (field-independent basis, Debye):
    X=              2.4409    Y=              4.2124    Z=             -0.3439  Tot=              4.8806
 Quadrupole moment (field-independent basis, Debye-Ang):
   XX=           -334.1187   YY=           -393.7329   ZZ=           -395.4408
   XY=             -2.9450   XZ=              8.1122   YZ=             -2.3258

 Normal termination of Gaussian 16 at Mon Sep  9 12:50:11 2019.
