 Gaussian 16, Revision A.03,
 Gaussian 16:  ES64L-G16RevA.03 25-Dec-2016

 ----------------------------------------------------------------------
 # td=(NStates=1) iop(3/107=0140000000,3/108=0140000000) CAM-B3LYP/6-31
 G(d,p)
 ----------------------------------------------------------------------

 --
 TD
 --
 Symbolic Z-matrix:
 Charge =  0 Multiplicity = 1

                         Standard orientation:
 ---------------------------------------------------------------------
 Center     Atomic      Atomic             Coordinates (Angstroms)
 Number     Number       Type             X           Y           Z
 ---------------------------------------------------------------------
      1         12           0       -7.158421    0.526784    0.076821
      2          6           0       -4.856666   -1.949332    0.477310
      3          6           0       -4.825137    2.794929    1.215057
      4          6           0       -9.330838    3.141900   -0.495905
      5          6           0       -9.545491   -1.735318   -1.020899
      6          7           0       -5.110103    0.391480    0.805514
      7          6           0       -4.258237   -0.710195    0.797262
      8          6           0       -2.828679   -0.457861    1.304494
      9          6           0       -3.041478    1.078989    1.755653
     10          6           0       -4.354516    1.437390    1.254532
     11          6           0       -3.079243    1.142846    3.342996
     12          6           0       -1.869926   -0.566354    0.171396
     13          6           0       -0.361920   -0.508086    0.591933
     14          6           0        0.566820   -0.682325   -0.557151
     15          8           0        0.248104   -0.859066   -1.704676
     16          8           0        1.830395   -0.377099   -0.270763
     17          7           0       -7.076582    2.667494    0.233723
     18          6           0       -6.023742    3.291733    0.734440
     19          6           0       -6.368720    4.739397    0.928014
     20          6           0       -7.683412    4.904511    0.309514
     21          6           0       -8.075247    3.485633    0.125274
     22          6           0       -5.406185    5.947818    1.171328
     23          6           0       -8.427486    5.987616    0.240771
     24          6           0       -8.323267    7.240690    0.794321
     25          7           0       -8.997048    0.727037   -0.647595
     26          6           0       -9.815107    1.886897   -0.714538
     27          6           0      -11.201105    1.559486   -1.083528
     28          6           0      -11.183747    0.190623   -1.374286
     29          6           0       -9.853086   -0.387557   -0.943568
     30          6           0      -12.359342    2.489195   -1.164853
     31          6           0      -12.388869   -0.691164   -1.816545
     32          6           0      -12.387347   -1.254615   -3.275991
     33          7           0       -7.308569   -1.423257   -0.097180
     34          6           0       -8.307862   -2.195456   -0.630757
     35          6           0       -7.753166   -3.619743   -0.561846
     36          6           0       -6.475808   -3.627895   -0.127922
     37          6           0       -6.211466   -2.244627    0.111248
     38          6           0       -8.606420   -4.830922   -0.943603
     39          6           0       -5.425550   -4.428664    0.209792
     40          8           0       -5.284675   -5.637707    0.384990
     41          6           0       -4.238056   -3.368073    0.524432
     42          6           0       -3.613676   -3.727842    1.807875
     43          8           0       -3.853855   -3.221107    2.904288
     44          8           0       -2.800338   -4.803171    1.764625
     45          6           0       -2.281263   -5.363218    2.974486
     46          6           0        2.863862   -0.562041   -1.176089
     47          6           0        4.152342   -0.302295   -0.544018
     48          6           0        5.247935    0.480324   -1.075679
     49          6           0        5.128145    1.441891   -2.145695
     50          6           0        6.499987    0.510907   -0.218531
     51          6           0        7.593080   -0.099647   -1.104542
     52          6           0        8.878861    0.027401   -0.251387
     53          6           0       10.105323   -0.369450   -0.976269
     54          6           0       10.106240   -1.871185   -1.313747
     55          6           0       11.437397   -0.099745   -0.015331
     56          6           0       12.689843   -0.437107   -0.790914
     57          6           0       13.894513    0.044278    0.153082
     58          6           0       15.303872   -0.203506   -0.478388
     59          6           0       15.517173   -1.627812   -1.036067
     60          6           0       16.411725    0.431120    0.384063
     61          6           0       17.815905    0.487258   -0.193105
     62          6           0       18.830795    1.098391    0.791711
     63          6           0       20.208575    1.143486    0.233022
     64          6           0       20.435722    2.047795   -1.023078
     65          6           0       21.172309    1.511358    1.462285
     66          1           0       -4.156884    3.430419    1.643614
     67          1           0      -10.120276    3.867624   -0.692722
     68          1           0      -10.375632   -2.500685   -1.369065
     69          1           0       -2.701702   -1.228591    2.209488
     70          1           0       -2.290319    1.613092    1.313147
     71          1           0       -2.109400    0.626798    3.426264
     72          1           0       -3.285961    2.169118    3.741176
     73          1           0       -3.917281    0.594080    3.826252
     74          1           0       -1.928128   -1.708237   -0.234808
     75          1           0       -1.967003    0.215249   -0.444347
     76          1           0       -0.027611    0.351455    1.120729
     77          1           0       -0.078893   -1.364098    1.373263
     78          1           0       -5.839976    6.795222    0.510485
     79          1           0       -5.472794    6.370158    2.346674
     80          1           0       -4.346529    5.623292    1.063450
     81          1           0       -9.202912    6.011303   -0.600929
     82          1           0       -8.981718    8.094396    0.339386
     83          1           0       -7.517686    7.482439    1.481291
     84          1           0      -12.069058    3.186708   -1.956884
     85          1           0      -13.278656    2.237489   -1.562482
     86          1           0      -12.536059    2.962645   -0.247802
     87          1           0      -12.292022   -1.691044   -1.143430
     88          1           0      -13.408930   -0.183178   -1.558409
     89          1           0      -13.347109   -1.850373   -3.398569
     90          1           0      -12.334330   -0.385140   -3.947796
     91          1           0      -11.542658   -2.171199   -3.556629
     92          1           0       -9.076999   -4.651828   -1.885755
     93          1           0       -7.928246   -5.693229   -1.245885
     94          1           0       -9.333170   -4.998294   -0.114625
     95          1           0       -3.387832   -3.487200   -0.199416
     96          1           0       -1.752279   -4.457433    3.399880
     97          1           0       -3.163281   -5.708963    3.467830
     98          1           0       -1.744701   -6.215017    2.601756
     99          1           0        2.849533   -1.540665   -1.576520
    100          1           0        2.827120    0.128823   -1.998010
    101          1           0        4.180476   -0.807784    0.274386
    102          1           0        4.079720    1.667466   -2.391056
    103          1           0        5.447396    2.395500   -1.816176
    104          1           0        5.637165    1.062288   -3.012842
    105          1           0        6.634408    1.508388   -0.000870
    106          1           0        6.588918   -0.010152    0.754940
    107          1           0        7.372023   -1.226816   -1.362493
    108          1           0        7.666309    0.311268   -1.928599
    109          1           0        8.945928    1.053094    0.316859
    110          1           0        8.955518   -0.443572    0.605186
    111          1           0       10.323666    0.123070   -1.845653
    112          1           0        9.143870   -1.892224   -2.009768
    113          1           0       10.882590   -2.431733   -1.786250
    114          1           0        9.956116   -2.459323   -0.344826
    115          1           0       11.275144    0.911513    0.650859
    116          1           0       11.203615   -0.764343    0.938213
    117          1           0       12.854467   -1.434815   -1.197720
    118          1           0       12.862393    0.195701   -1.830432
    119          1           0       13.905605    1.142424    0.319432
    120          1           0       13.652480   -0.417833    1.108194
    121          1           0       15.195163    0.358467   -1.438458
    122          1           0       15.832629   -2.388482   -0.211393
    123          1           0       14.883836   -1.911465   -1.887235
    124          1           0       16.485486   -1.671247   -1.570330
    125          1           0       15.969658    1.211777    0.710123
    126          1           0       16.309385   -0.153732    1.380060
    127          1           0       18.077726   -0.642729   -0.209072
    128          1           0       17.964587    0.865373   -1.182015
    129          1           0       18.470874    2.184526    0.903680
    130          1           0       18.667223    0.732102    1.967064
    131          1           0       20.529340    0.147928    0.030595
    132          1           0       19.996600    2.953790   -0.637941
    133          1           0       21.403828    1.890876   -1.343779
    134          1           0       19.790099    1.837547   -1.756752
    135          1           0       21.161368    0.805757    2.376453
    136          1           0       22.233499    1.368100    1.084321
    137          1           0       20.940226    2.597701    1.729554
 ---------------------------------------------------------------------

 SCF Done:  E(RCAM-B3LYP) =  -2933.45603037     A.U. after   16 cycles

 Excitation energies and oscillator strengths:

 Excited State   1:      Singlet-A      1.9221 eV  645.03 nm  f=0.2860  <S**2>=0.000
     240 -> 243       -0.21581
     241 -> 242        0.66932
 This state for optimization and/or second-order correction.
 Total Energy, E(TD-HF/TD-DFT) =  -2933.38539321
 Copying the excited state density for this state as the 1-particle RhoCI density.

 The electronic state is 1-A.
 Alpha  occ. eigenvalues --  -46.80212 -19.21216 -19.20154 -19.16334 -19.15781
 Alpha  occ. eigenvalues --  -19.15045 -14.38371 -14.35831 -14.35384 -14.35270
 Alpha  occ. eigenvalues --  -10.33981 -10.33293 -10.30527 -10.26677 -10.26225
 Alpha  occ. eigenvalues --  -10.26223 -10.25475 -10.25402 -10.25371 -10.25286
 Alpha  occ. eigenvalues --  -10.25216 -10.25168 -10.24719 -10.24708 -10.24365
 Alpha  occ. eigenvalues --  -10.24241 -10.24139 -10.24121 -10.23877 -10.23482
 Alpha  occ. eigenvalues --  -10.23465 -10.23442 -10.23437 -10.23406 -10.23344
 Alpha  occ. eigenvalues --  -10.23269 -10.22911 -10.22731 -10.22713 -10.22660
 Alpha  occ. eigenvalues --  -10.22466 -10.22118 -10.21887 -10.21871 -10.21791
 Alpha  occ. eigenvalues --  -10.21780 -10.21477 -10.21438 -10.21399 -10.21368
 Alpha  occ. eigenvalues --  -10.21258 -10.21251 -10.21154 -10.20970 -10.20969
 Alpha  occ. eigenvalues --  -10.20891 -10.20821 -10.20806 -10.20643 -10.20569
 Alpha  occ. eigenvalues --  -10.20464 -10.20086 -10.19993 -10.19657 -10.19207
 Alpha  occ. eigenvalues --   -3.08853  -1.83783  -1.83309  -1.83279  -1.14261
 Alpha  occ. eigenvalues --   -1.11900  -1.05498  -1.04408  -1.02115  -1.00520
 Alpha  occ. eigenvalues --   -0.98949  -0.98144  -0.94816  -0.87708  -0.86677
 Alpha  occ. eigenvalues --   -0.85772  -0.84941  -0.84588  -0.84321  -0.83706
 Alpha  occ. eigenvalues --   -0.83000  -0.82943  -0.82214  -0.81926  -0.81607
 Alpha  occ. eigenvalues --   -0.80220  -0.79226  -0.78782  -0.77952  -0.77217
 Alpha  occ. eigenvalues --   -0.76850  -0.76669  -0.75645  -0.75113  -0.74249
 Alpha  occ. eigenvalues --   -0.72653  -0.72204  -0.71926  -0.71676  -0.71387
 Alpha  occ. eigenvalues --   -0.70640  -0.70318  -0.69354  -0.68499  -0.67846
 Alpha  occ. eigenvalues --   -0.67385  -0.66475  -0.65326  -0.64770  -0.63710
 Alpha  occ. eigenvalues --   -0.63501  -0.63419  -0.61741  -0.61235  -0.60476
 Alpha  occ. eigenvalues --   -0.59913  -0.59700  -0.59475  -0.58482  -0.57695
 Alpha  occ. eigenvalues --   -0.57430  -0.56734  -0.56246  -0.55594  -0.55019
 Alpha  occ. eigenvalues --   -0.54703  -0.53938  -0.53677  -0.53174  -0.52756
 Alpha  occ. eigenvalues --   -0.52445  -0.52032  -0.51298  -0.51163  -0.50557
 Alpha  occ. eigenvalues --   -0.50485  -0.50179  -0.49705  -0.49552  -0.49477
 Alpha  occ. eigenvalues --   -0.48896  -0.48854  -0.48531  -0.48275  -0.48251
 Alpha  occ. eigenvalues --   -0.47864  -0.47758  -0.47329  -0.47134  -0.47069
 Alpha  occ. eigenvalues --   -0.46515  -0.46311  -0.46245  -0.45984  -0.45933
 Alpha  occ. eigenvalues --   -0.45717  -0.45504  -0.45408  -0.45036  -0.44988
 Alpha  occ. eigenvalues --   -0.44848  -0.44567  -0.44445  -0.44365  -0.43906
 Alpha  occ. eigenvalues --   -0.43416  -0.43214  -0.43120  -0.42978  -0.42670
 Alpha  occ. eigenvalues --   -0.42373  -0.42057  -0.41882  -0.41763  -0.41550
 Alpha  occ. eigenvalues --   -0.41528  -0.41293  -0.41181  -0.40955  -0.40605
 Alpha  occ. eigenvalues --   -0.40368  -0.40317  -0.40161  -0.40131  -0.40077
 Alpha  occ. eigenvalues --   -0.39486  -0.39456  -0.39144  -0.38973  -0.38873
 Alpha  occ. eigenvalues --   -0.38651  -0.38498  -0.38431  -0.38251  -0.37982
 Alpha  occ. eigenvalues --   -0.37731  -0.37584  -0.37474  -0.37302  -0.36960
 Alpha  occ. eigenvalues --   -0.36718  -0.36432  -0.36337  -0.36312  -0.35985
 Alpha  occ. eigenvalues --   -0.35917  -0.35607  -0.35344  -0.34834  -0.34453
 Alpha  occ. eigenvalues --   -0.34364  -0.34233  -0.33833  -0.33696  -0.33328
 Alpha  occ. eigenvalues --   -0.33251  -0.32608  -0.32259  -0.32209  -0.32205
 Alpha  occ. eigenvalues --   -0.32101  -0.31409  -0.31384  -0.30334  -0.29734
 Alpha  occ. eigenvalues --   -0.29548  -0.28813  -0.28625  -0.28239  -0.27808
 Alpha  occ. eigenvalues --   -0.27217  -0.25537  -0.24989  -0.23882  -0.21598
 Alpha  occ. eigenvalues --   -0.19385
 Alpha virt. eigenvalues --   -0.07165  -0.03758  -0.01198   0.01222   0.03056
 Alpha virt. eigenvalues --    0.04194   0.04317   0.04733   0.04817   0.05336
 Alpha virt. eigenvalues --    0.05974   0.08025   0.08927   0.10230   0.10392

 Mulliken charges:
               1
     1  Mg   0.831390
     2  C    0.082731
     3  C   -0.166388
     4  C   -0.177908
     5  C   -0.184167
     6  N   -0.603096
     7  C    0.279630
     8  C   -0.163835
     9  C   -0.165301
    10  C    0.341755
    11  C   -0.303907
    12  C   -0.133412
    13  C   -0.293153
    14  C    0.598269
    15  O   -0.467594
    16  O   -0.454752
    17  N   -0.646894
    18  C    0.339507
    19  C   -0.024535
    20  C    0.059387
    21  C    0.283075
    22  C   -0.366373
    23  C   -0.097525
    24  C   -0.262415
    25  N   -0.705912
    26  C    0.302200
    27  C    0.021379
    28  C    0.026562
    29  C    0.290032
    30  C   -0.381041
    31  C   -0.242452
    32  C   -0.290532
    33  N   -0.750593
    34  C    0.328043
    35  C   -0.079102
    36  C    0.200734
    37  C    0.232222
    38  C   -0.375596
    39  C    0.322368
    40  O   -0.466912
    41  C   -0.350465
    42  C    0.605403
    43  O   -0.503962
    44  O   -0.457682
    45  C   -0.069215
    46  C    0.032540
    47  C   -0.122504
    48  C    0.074906
    49  C   -0.372433
    50  C   -0.210949
    51  C   -0.162951
    52  C   -0.160815
    53  C   -0.066969
    54  C   -0.299231
    55  C   -0.177195
    56  C   -0.174018
    57  C   -0.182450
    58  C   -0.058426
    59  C   -0.323775
    60  C   -0.156560
    61  C   -0.166666
    62  C   -0.152442
    63  C   -0.072718
    64  C   -0.308463
    65  C   -0.309929
    66  H    0.061471
    67  H    0.077423
    68  H    0.100531
    69  H    0.132486
    70  H    0.110025
    71  H    0.114607
    72  H    0.110923
    73  H    0.136835
    74  H    0.111528
    75  H    0.127085
    76  H    0.139801
    77  H    0.116714
    78  H    0.128370
    79  H    0.087839
    80  H    0.114840
    81  H    0.077454
    82  H    0.093872
    83  H    0.098641
    84  H    0.123496
    85  H    0.122941
    86  H    0.135740
    87  H    0.085773
    88  H    0.099747
    89  H    0.106454
    90  H    0.118386
    91  H    0.078027
    92  H    0.123334
    93  H    0.130923
    94  H    0.134681
    95  H    0.146280
    96  H    0.122938
    97  H    0.141372
    98  H    0.131586
    99  H    0.120802
   100  H    0.095359
   101  H    0.071760
   102  H    0.123333
   103  H    0.125765
   104  H    0.129792
   105  H    0.106480
   106  H    0.102965
   107  H    0.094015
   108  H    0.105603
   109  H    0.064739
   110  H    0.102134
   111  H    0.092854
   112  H    0.076199
   113  H    0.111472
   114  H    0.089101
   115  H    0.070561
   116  H    0.071378
   117  H    0.115498
   118  H    0.061381
   119  H    0.092413
   120  H    0.090954
   121  H    0.072623
   122  H    0.088543
   123  H    0.103438
   124  H    0.095546
   125  H    0.093146
   126  H    0.071475
   127  H    0.086871
   128  H    0.098897
   129  H    0.069820
   130  H    0.070782
   131  H    0.089216
   132  H    0.106842
   133  H    0.116312
   134  H    0.114063
   135  H    0.097430
   136  H    0.084889
   137  H    0.094500
 Sum of Mulliken charges =  -0.00000

 Dipole moment (field-independent basis, Debye):
    X=              2.0647    Y=              3.4236    Z=             -0.3710  Tot=              4.0152
 Quadrupole moment (field-independent basis, Debye-Ang):
   XX=           -339.6514   YY=           -401.7824   ZZ=           -397.3849
   XY=            -15.3986   XZ=              6.5571   YZ=             -0.3817

 Normal termination of Gaussian 16 at Fri Sep 13 05:53:49 2019.
