 Gaussian 09, Revision D.01,
 Gaussian 09:  ES64L-G09RevD.01 24-Apr-2013

 -------------------------------------
 # td=(NStates=1) CAM-B3LYP/6-31G(d,p)
 -------------------------------------

 --
 TD
 --
 Symbolic Z-matrix:
 Charge =  0 Multiplicity = 1

                         Standard orientation:
 ---------------------------------------------------------------------
 Center     Atomic      Atomic             Coordinates (Angstroms)
 Number     Number       Type             X           Y           Z
 ---------------------------------------------------------------------
      1         12           0       -7.091611    0.579211    0.061879
      2          6           0       -4.862297   -1.859235    0.434576
      3          6           0       -4.680811    2.846651    1.181764
      4          6           0       -9.306369    3.008490   -0.461838
      5          6           0       -9.462504   -1.764641   -0.885837
      6          7           0       -5.070022    0.541808    0.638704
      7          6           0       -4.307242   -0.615821    0.770329
      8          6           0       -2.871206   -0.395831    1.197756
      9          6           0       -3.033855    1.112565    1.695061
     10          6           0       -4.308537    1.502844    1.175685
     11          6           0       -2.908829    1.269975    3.217442
     12          6           0       -2.027926   -0.549004   -0.014429
     13          6           0       -0.623441   -0.385545    0.414760
     14          6           0        0.489775   -0.674458   -0.534071
     15          8           0        0.352174   -1.040941   -1.718381
     16          8           0        1.786671   -0.446206   -0.123545
     17          7           0       -7.037970    2.589275    0.325373
     18          6           0       -6.055831    3.259003    0.871933
     19          6           0       -6.406477    4.688279    0.920243
     20          6           0       -7.673063    4.734459    0.393422
     21          6           0       -8.118956    3.441111    0.101932
     22          6           0       -5.501973    5.879803    1.224454
     23          6           0       -8.612170    5.928928    0.270965
     24          6           0       -8.586113    7.099840    0.906102
     25          7           0       -9.126902    0.655538   -0.639480
     26          6           0       -9.833323    1.840612   -0.824397
     27          6           0      -11.125997    1.430083   -1.226711
     28          6           0      -11.200808    0.136565   -1.397672
     29          6           0       -9.940724   -0.413174   -1.016383
     30          6           0      -12.249780    2.466529   -1.424699
     31          6           0      -12.315047   -0.750043   -1.847788
     32          6           0      -12.142224   -0.995891   -3.275564
     33          7           0       -7.119798   -1.407484   -0.225037
     34          6           0       -8.244077   -2.163518   -0.532312
     35          6           0       -7.806653   -3.646044   -0.514438
     36          6           0       -6.477890   -3.515646   -0.052161
     37          6           0       -6.164107   -2.173996    0.134226
     38          6           0       -8.634969   -4.818522   -0.645518
     39          6           0       -5.291650   -4.384778    0.153785
     40          8           0       -5.105053   -5.534986   -0.018124
     41          6           0       -4.153253   -3.279017    0.665158
     42          6           0       -3.526786   -3.603862    1.922939
     43          8           0       -3.860249   -3.034560    2.937511
     44          8           0       -2.810056   -4.652844    1.818007
     45          6           0       -2.382427   -5.197491    3.086056
     46          6           0        2.799992   -0.718434   -1.129502
     47          6           0        4.204887   -0.483755   -0.455952
     48          6           0        5.069479    0.374799   -0.933407
     49          6           0        4.961150    1.263996   -2.180178
     50          6           0        6.391536    0.516612   -0.217754
     51          6           0        7.689572   -0.122836   -0.958097
     52          6           0        8.894802   -0.052236   -0.138747
     53          6           0       10.128380   -0.637423   -0.865233
     54          6           0       10.049166   -2.088583   -1.271736
     55          6           0       11.382292   -0.383471    0.100720
     56          6           0       12.760257   -0.610578   -0.553568
     57          6           0       13.974531   -0.159425    0.369975
     58          6           0       15.309145   -0.357775   -0.474115
     59          6           0       15.667654   -1.798509   -0.718280
     60          6           0       16.310537    0.423483    0.360438
     61          6           0       17.783773    0.558241   -0.282105
     62          6           0       18.740827    1.325814    0.636279
     63          6           0       20.190855    1.426385    0.059182
     64          6           0       20.291991    2.320616   -1.138472
     65          6           0       21.171771    1.931465    1.132850
     66          1           0       -3.869157    3.604453    1.635137
     67          1           0      -10.162764    3.664981   -0.749289
     68          1           0      -10.035757   -2.680430   -1.132746
     69          1           0       -2.756535   -0.970820    2.066696
     70          1           0       -2.359107    1.667981    1.140064
     71          1           0       -1.907879    1.019163    3.555060
     72          1           0       -2.940218    2.214722    3.545061
     73          1           0       -3.617685    0.660043    3.821792
     74          1           0       -2.209479   -1.562620   -0.303130
     75          1           0       -2.130548    0.007107   -0.707245
     76          1           0       -0.250868    0.669615    0.650497
     77          1           0       -0.240686   -0.987756    1.330702
     78          1           0       -5.805955    6.876415    0.828145
     79          1           0       -5.463734    5.920898    2.295750
     80          1           0       -4.601575    5.628503    0.765977
     81          1           0       -9.369117    5.716809   -0.634110
     82          1           0       -9.461396    7.614168    0.566021
     83          1           0       -8.023961    7.285126    1.639300
     84          1           0      -11.979250    3.182748   -2.239636
     85          1           0      -13.026919    1.906737   -2.020780
     86          1           0      -12.728596    3.035221   -0.573812
     87          1           0      -12.470022   -1.789569   -1.378707
     88          1           0      -13.318737   -0.245903   -1.693451
     89          1           0      -12.893497   -1.680489   -3.856239
     90          1           0      -12.250291   -0.124003   -3.885069
     91          1           0      -11.117717   -1.400398   -3.539530
     92          1           0       -8.910129   -4.966319   -1.554362
     93          1           0       -7.853672   -5.646514   -0.523559
     94          1           0       -9.326785   -4.907926    0.093622
     95          1           0       -3.411500   -3.319039   -0.175554
     96          1           0       -1.745455   -4.608692    3.611879
     97          1           0       -3.373826   -5.575839    3.740039
     98          1           0       -1.772346   -6.138478    2.873518
     99          1           0        2.677876   -1.830507   -1.442512
    100          1           0        2.612542   -0.093546   -1.954038
    101          1           0        4.483003   -0.861884    0.686360
    102          1           0        4.015027    1.266036   -2.683419
    103          1           0        5.229031    2.147572   -1.877326
    104          1           0        5.846005    1.145521   -2.932185
    105          1           0        6.511529    1.725938   -0.265114
    106          1           0        6.286686    0.215917    0.776002
    107          1           0        7.261741   -1.130947   -1.084371
    108          1           0        7.636461    0.485759   -2.054745
    109          1           0        9.220484    0.999981    0.129210
    110          1           0        8.760599   -0.814820    0.874741
    111          1           0       10.334826    0.030107   -1.783794
    112          1           0        9.166464   -2.283258   -1.906941
    113          1           0       10.870405   -2.344640   -1.915413
    114          1           0       10.170191   -2.847649   -0.577813
    115          1           0       11.417568    0.599742    0.419910
    116          1           0       11.320193   -0.784687    1.039267
    117          1           0       12.952632   -1.678757   -0.763469
    118          1           0       12.809606    0.020503   -1.550949
    119          1           0       14.075710    0.874153    0.793605
    120          1           0       13.826240   -0.716277    1.310175
    121          1           0       15.296227    0.290317   -1.380808
    122          1           0       15.727995   -2.325395    0.219727
    123          1           0       15.038010   -2.248245   -1.420633
    124          1           0       16.701621   -1.944613   -1.046698
    125          1           0       15.698028    1.295110    0.552893
    126          1           0       16.529833   -0.394609    1.298582
    127          1           0       18.066396   -0.339805   -0.683755
    128          1           0       17.701868    1.188610   -1.058200
    129          1           0       18.417121    2.364394    0.947356
    130          1           0       18.788185    0.697172    1.559019
    131          1           0       20.647497    0.370504   -0.223605
    132          1           0       19.935792    3.348287   -1.085490
    133          1           0       21.465180    2.396106   -1.512813
    134          1           0       19.963647    1.777836   -2.125658
    135          1           0       21.074658    1.318082    2.010202
    136          1           0       22.264256    2.121599    0.900154
    137          1           0       20.707972    2.836658    1.454913
 ---------------------------------------------------------------------

 SCF Done:  E(RCAM-B3LYP) =  -2932.64733549     A.U. after   15 cycles

 Excitation energies and oscillator strengths:

 Excited State   1:      Singlet-A      2.1496 eV  576.77 nm  f=0.2247  <S**2>=0.000
     240 -> 242       -0.17085
     240 -> 243       -0.22944
     241 -> 242        0.62518
     241 -> 243       -0.13623
 This state for optimization and/or second-order correction.
 Total Energy, E(TD-HF/TD-KS) =  -2932.56833787
 Copying the excited state density for this state as the 1-particle RhoCI density.

 The electronic state is 1-A.
 Alpha  occ. eigenvalues --  -46.84125 -19.28076 -19.25341 -19.22303 -19.19777
 Alpha  occ. eigenvalues --  -19.19701 -14.41289 -14.39138 -14.38885 -14.38447
 Alpha  occ. eigenvalues --  -10.38914 -10.38355 -10.36411 -10.33131 -10.32054
 Alpha  occ. eigenvalues --  -10.30990 -10.29745 -10.29522 -10.29371 -10.29290
 Alpha  occ. eigenvalues --  -10.29143 -10.28632 -10.28490 -10.28055 -10.27842
 Alpha  occ. eigenvalues --  -10.27615 -10.27372 -10.27302 -10.27270 -10.27147
 Alpha  occ. eigenvalues --  -10.26845 -10.26796 -10.26780 -10.26738 -10.26671
 Alpha  occ. eigenvalues --  -10.26628 -10.26616 -10.26574 -10.26385 -10.26236
 Alpha  occ. eigenvalues --  -10.26210 -10.26122 -10.26011 -10.25964 -10.25954
 Alpha  occ. eigenvalues --  -10.25879 -10.25665 -10.25636 -10.25558 -10.25495
 Alpha  occ. eigenvalues --  -10.25450 -10.25423 -10.25255 -10.25194 -10.25071
 Alpha  occ. eigenvalues --  -10.25006 -10.24998 -10.24979 -10.24894 -10.23707
 Alpha  occ. eigenvalues --  -10.23662 -10.23579 -10.23576 -10.23518 -10.23441
 Alpha  occ. eigenvalues --   -3.13148  -1.87865  -1.87387  -1.87314  -1.21491
 Alpha  occ. eigenvalues --   -1.16432  -1.14451  -1.09677  -1.06318  -1.05809
 Alpha  occ. eigenvalues --   -1.04585  -1.03625  -1.02017  -0.92838  -0.91788
 Alpha  occ. eigenvalues --   -0.90853  -0.90192  -0.89617  -0.89158  -0.89116
 Alpha  occ. eigenvalues --   -0.88194  -0.88107  -0.87989  -0.87526  -0.86224
 Alpha  occ. eigenvalues --   -0.84989  -0.84336  -0.83864  -0.82936  -0.82599
 Alpha  occ. eigenvalues --   -0.82342  -0.81626  -0.80882  -0.80377  -0.79497
 Alpha  occ. eigenvalues --   -0.78496  -0.77106  -0.76670  -0.76589  -0.76286
 Alpha  occ. eigenvalues --   -0.75383  -0.75164  -0.74988  -0.74037  -0.72609
 Alpha  occ. eigenvalues --   -0.72166  -0.71389  -0.69222  -0.69039  -0.68485
 Alpha  occ. eigenvalues --   -0.67222  -0.66578  -0.66193  -0.64912  -0.64567
 Alpha  occ. eigenvalues --   -0.64467  -0.62414  -0.62326  -0.62221  -0.61987
 Alpha  occ. eigenvalues --   -0.61428  -0.60762  -0.60634  -0.59324  -0.59262
 Alpha  occ. eigenvalues --   -0.58748  -0.58088  -0.57927  -0.57553  -0.57344
 Alpha  occ. eigenvalues --   -0.56326  -0.56137  -0.55634  -0.55246  -0.55068
 Alpha  occ. eigenvalues --   -0.54906  -0.54632  -0.54322  -0.54181  -0.54032
 Alpha  occ. eigenvalues --   -0.52962  -0.52888  -0.52684  -0.52075  -0.51669
 Alpha  occ. eigenvalues --   -0.51513  -0.51333  -0.50939  -0.50845  -0.50528
 Alpha  occ. eigenvalues --   -0.50388  -0.50245  -0.49905  -0.49884  -0.49651
 Alpha  occ. eigenvalues --   -0.49166  -0.48951  -0.48885  -0.48772  -0.48559
 Alpha  occ. eigenvalues --   -0.48248  -0.48120  -0.47900  -0.47682  -0.47439
 Alpha  occ. eigenvalues --   -0.47213  -0.47025  -0.46832  -0.46547  -0.46182
 Alpha  occ. eigenvalues --   -0.46102  -0.46019  -0.45843  -0.45769  -0.45621
 Alpha  occ. eigenvalues --   -0.45544  -0.45173  -0.44971  -0.44773  -0.44353
 Alpha  occ. eigenvalues --   -0.44250  -0.44162  -0.43989  -0.43627  -0.43422
 Alpha  occ. eigenvalues --   -0.43228  -0.43115  -0.42832  -0.42358  -0.42172
 Alpha  occ. eigenvalues --   -0.41931  -0.41822  -0.41596  -0.41355  -0.41246
 Alpha  occ. eigenvalues --   -0.40948  -0.40830  -0.40740  -0.40406  -0.40187
 Alpha  occ. eigenvalues --   -0.39594  -0.39572  -0.39195  -0.39028  -0.38801
 Alpha  occ. eigenvalues --   -0.38409  -0.38292  -0.38106  -0.37724  -0.37628
 Alpha  occ. eigenvalues --   -0.37556  -0.37386  -0.37357  -0.36919  -0.36819
 Alpha  occ. eigenvalues --   -0.36642  -0.36291  -0.35957  -0.35670  -0.35339
 Alpha  occ. eigenvalues --   -0.35217  -0.34844  -0.34715  -0.33499  -0.33224
 Alpha  occ. eigenvalues --   -0.32550  -0.32299  -0.32172  -0.31001  -0.30398
 Alpha  occ. eigenvalues --   -0.30163  -0.29698  -0.28387  -0.27091  -0.23089
 Alpha  occ. eigenvalues --   -0.21022
 Alpha virt. eigenvalues --   -0.05913  -0.02462   0.01820   0.05450   0.06086
 Alpha virt. eigenvalues --    0.06461   0.06596   0.06889   0.07123   0.07938
 Alpha virt. eigenvalues --    0.08832   0.11142   0.11197   0.11394   0.11900

 Mulliken charges:
               1
     1  Mg   0.811735
     2  C   -0.001784
     3  C   -0.224113
     4  C   -0.160744
     5  C   -0.166841
     6  N   -0.622233
     7  C    0.262318
     8  C   -0.165768
     9  C   -0.166639
    10  C    0.376317
    11  C   -0.315485
    12  C   -0.093316
    13  C   -0.274859
    14  C    0.582304
    15  O   -0.502130
    16  O   -0.497376
    17  N   -0.699278
    18  C    0.326866
    19  C   -0.064202
    20  C    0.027750
    21  C    0.299385
    22  C   -0.361632
    23  C   -0.079481
    24  C   -0.205996
    25  N   -0.690515
    26  C    0.278813
    27  C    0.012021
    28  C    0.064724
    29  C    0.260796
    30  C   -0.388977
    31  C   -0.238273
    32  C   -0.304100
    33  N   -0.731482
    34  C    0.276735
    35  C    0.012122
    36  C   -0.033619
    37  C    0.369649
    38  C   -0.377492
    39  C    0.370308
    40  O   -0.412668
    41  C   -0.336845
    42  C    0.623069
    43  O   -0.500549
    44  O   -0.405723
    45  C   -0.089090
    46  C    0.034216
    47  C   -0.164672
    48  C    0.145604
    49  C   -0.353570
    50  C   -0.228746
    51  C   -0.155847
    52  C   -0.141403
    53  C   -0.053729
    54  C   -0.323296
    55  C   -0.187458
    56  C   -0.176884
    57  C   -0.189856
    58  C   -0.054165
    59  C   -0.315031
    60  C   -0.167142
    61  C   -0.181250
    62  C   -0.171086
    63  C   -0.053291
    64  C   -0.296140
    65  C   -0.303334
    66  H    0.082255
    67  H    0.081458
    68  H    0.094121
    69  H    0.142487
    70  H    0.112724
    71  H    0.105369
    72  H    0.121163
    73  H    0.127997
    74  H    0.132052
    75  H    0.116097
    76  H    0.139250
    77  H    0.133262
    78  H    0.119827
    79  H    0.123709
    80  H    0.125822
    81  H    0.077097
    82  H    0.100014
    83  H    0.088405
    84  H    0.117041
    85  H    0.103802
    86  H    0.126277
    87  H    0.102363
    88  H    0.099010
    89  H    0.080540
    90  H    0.112244
    91  H    0.103830
    92  H    0.141134
    93  H    0.140616
    94  H    0.149959
    95  H    0.146699
    96  H    0.145501
    97  H    0.119465
    98  H    0.122607
    99  H    0.118832
   100  H    0.128062
   101  H    0.080348
   102  H    0.115762
   103  H    0.133268
   104  H    0.102254
   105  H    0.058122
   106  H    0.100371
   107  H    0.114642
   108  H    0.067343
   109  H    0.097452
   110  H    0.062539
   111  H    0.077496
   112  H    0.101293
   113  H    0.106890
   114  H    0.111156
   115  H    0.092257
   116  H    0.092242
   117  H    0.098870
   118  H    0.073813
   119  H    0.080280
   120  H    0.093475
   121  H    0.084332
   122  H    0.106298
   123  H    0.112694
   124  H    0.095806
   125  H    0.091120
   126  H    0.044289
   127  H    0.102001
   128  H    0.106265
   129  H    0.089055
   130  H    0.088175
   131  H    0.071410
   132  H    0.109338
   133  H    0.068767
   134  H    0.090474
   135  H    0.098188
   136  H    0.097996
   137  H    0.096205
 Sum of Mulliken charges =   0.00000

 Dipole moment (field-independent basis, Debye):
    X=              1.6269    Y=              1.1613    Z=              1.3474  Tot=              2.4105
 Quadrupole moment (field-independent basis, Debye-Ang):
   XX=           -366.5062   YY=           -389.2215   ZZ=           -395.0760
   XY=              0.3230   XZ=              4.6390   YZ=             -6.7672

 Normal termination of Gaussian 09 at Thu Jul  4 16:10:05 2019.
