 Gaussian 16, Revision A.03,
 Gaussian 16:  ES64L-G16RevA.03 25-Dec-2016

 ----------------------------------------------------------------------
 # td=(NStates=1) iop(3/107=0140000000,3/108=0140000000) CAM-B3LYP/6-31
 G(d,p)
 ----------------------------------------------------------------------

 --
 TD
 --
 Symbolic Z-matrix:
 Charge =  0 Multiplicity = 1

                         Standard orientation:
 ---------------------------------------------------------------------
 Center     Atomic      Atomic             Coordinates (Angstroms)
 Number     Number       Type             X           Y           Z
 ---------------------------------------------------------------------
      1         12           0       -7.111338    0.635639    0.055413
      2          6           0       -4.869239   -2.050049    0.598660
      3          6           0       -4.746237    2.781856    1.071999
      4          6           0       -9.339183    3.135001   -0.473598
      5          6           0       -9.614242   -1.665142   -0.846289
      6          7           0       -5.082771    0.432489    0.676292
      7          6           0       -4.310322   -0.747681    0.824246
      8          6           0       -2.852219   -0.494774    1.123695
      9          6           0       -2.982220    0.984976    1.605164
     10          6           0       -4.393407    1.435886    1.117065
     11          6           0       -2.993942    1.110903    3.160360
     12          6           0       -1.915347   -0.680891    0.052104
     13          6           0       -0.514411   -0.335531    0.387754
     14          6           0        0.505749   -0.448039   -0.622242
     15          8           0        0.237607   -0.890360   -1.755497
     16          8           0        1.750618   -0.324261   -0.130410
     17          7           0       -7.032519    2.610664    0.307296
     18          6           0       -5.981875    3.369532    0.789723
     19          6           0       -6.432286    4.687954    0.886870
     20          6           0       -7.696484    4.832475    0.383162
     21          6           0       -8.032306    3.467599    0.030761
     22          6           0       -5.518938    5.892995    1.440408
     23          6           0       -8.470591    5.973781    0.211260
     24          6           0       -8.219340    7.215187    0.839186
     25          7           0       -9.159111    0.728927   -0.583102
     26          6           0       -9.844330    1.863259   -0.636060
     27          6           0      -11.197367    1.438693   -1.172076
     28          6           0      -11.193652    0.121049   -1.261011
     29          6           0       -9.946201   -0.391873   -0.927743
     30          6           0      -12.214986    2.569619   -1.345078
     31          6           0      -12.405533   -0.724931   -1.768100
     32          6           0      -12.098315   -1.166957   -3.221820
     33          7           0       -7.244804   -1.375706   -0.185736
     34          6           0       -8.352938   -2.201958   -0.557450
     35          6           0       -7.820739   -3.585512   -0.544761
     36          6           0       -6.532783   -3.526339   -0.052030
     37          6           0       -6.209012   -2.247506    0.152510
     38          6           0       -8.643275   -4.807276   -0.842683
     39          6           0       -5.316057   -4.395976    0.193152
     40          8           0       -5.190071   -5.610164    0.172409
     41          6           0       -4.212515   -3.403454    0.571597
     42          6           0       -3.635930   -3.788693    1.871266
     43          8           0       -3.717639   -3.170297    2.916760
     44          8           0       -2.751038   -4.819174    1.701609
     45          6           0       -2.317685   -5.396128    3.010946
     46          6           0        2.817171   -0.604883   -1.218119
     47          6           0        4.080391   -0.417786   -0.531958
     48          6           0        5.132587    0.406984   -0.960353
     49          6           0        5.144975    1.369658   -2.217647
     50          6           0        6.338818    0.493472   -0.148068
     51          6           0        7.621598    0.008006   -1.050059
     52          6           0        8.882300   -0.018621   -0.166192
     53          6           0       10.118403   -0.490578   -0.885907
     54          6           0        9.942192   -2.000192   -1.484171
     55          6           0       11.332526   -0.224869   -0.032249
     56          6           0       12.718726   -0.393441   -0.784333
     57          6           0       13.907946   -0.070522    0.199369
     58          6           0       15.277747   -0.211780   -0.431536
     59          6           0       15.621452   -1.574819   -0.980511
     60          6           0       16.427747    0.458432    0.463000
     61          6           0       17.781202    0.538609   -0.086223
     62          6           0       18.844654    1.170210    0.729383
     63          6           0       20.262530    1.225609    0.220209
     64          6           0       20.428962    1.983438   -1.015402
     65          6           0       21.109796    1.669108    1.391408
     66          1           0       -3.818452    3.520598    1.336249
     67          1           0       -9.969131    4.072742   -0.766854
     68          1           0      -10.455716   -2.411292   -0.849120
     69          1           0       -2.591821   -1.174321    1.961521
     70          1           0       -2.211008    1.674369    1.326190
     71          1           0       -1.861247    0.953671    3.640191
     72          1           0       -3.145476    2.175456    3.426160
     73          1           0       -3.733686    0.557897    3.712312
     74          1           0       -1.837272   -1.628664   -0.684473
     75          1           0       -2.113612    0.044288   -0.664239
     76          1           0       -0.455803    0.533038    1.109511
     77          1           0       -0.222046   -1.163707    1.104397
     78          1           0       -5.758616    6.769390    0.975742
     79          1           0       -5.618658    5.929687    2.531513
     80          1           0       -4.358218    5.777350    1.446395
     81          1           0       -9.187613    5.965274   -0.500096
     82          1           0       -8.794375    8.214414    0.460760
     83          1           0       -7.578041    7.478507    1.572297
     84          1           0      -12.043003    3.452854   -2.092973
     85          1           0      -13.122917    2.033406   -1.550825
     86          1           0      -12.430373    2.848510   -0.377954
     87          1           0      -12.706855   -1.653830   -0.981548
     88          1           0      -13.250960   -0.137437   -1.840684
     89          1           0      -12.984054   -1.723250   -3.576756
     90          1           0      -12.081357   -0.305535   -3.727456
     91          1           0      -11.185319   -1.719634   -3.261925
     92          1           0       -9.179867   -4.654884   -1.773957
     93          1           0       -7.876159   -5.708149   -0.979772
     94          1           0       -9.300086   -5.044090   -0.034412
     95          1           0       -3.409068   -3.433049   -0.233403
     96          1           0       -1.806263   -4.659849    3.605520
     97          1           0       -3.125131   -5.857608    3.667354
     98          1           0       -1.805410   -6.388228    2.844577
     99          1           0        2.527615   -1.630042   -1.499178
    100          1           0        2.680615   -0.045089   -2.105378
    101          1           0        4.388394   -1.061228    0.308640
    102          1           0        4.235835    1.681050   -2.729262
    103          1           0        5.383211    2.401335   -1.908249
    104          1           0        5.745713    1.145467   -3.077350
    105          1           0        6.564888    1.587746    0.219258
    106          1           0        6.322486   -0.347967    0.672655
    107          1           0        7.590747   -1.042479   -1.363135
    108          1           0        7.890976    0.855979   -1.830084
    109          1           0        9.204996    0.979164    0.278558
    110          1           0        8.668030   -0.692944    0.676942
    111          1           0       10.103495    0.125691   -1.650401
    112          1           0        8.939242   -2.128856   -2.022910
    113          1           0       10.943847   -2.052246   -2.296111
    114          1           0       10.290551   -2.503892   -0.705939
    115          1           0       11.189625    0.615321    0.600375
    116          1           0       11.291278   -1.046733    0.837402
    117          1           0       12.775525   -1.333661   -1.284489
    118          1           0       12.604791    0.421578   -1.610495
    119          1           0       13.874055    0.870077    0.571413
    120          1           0       13.986738   -0.769503    1.084171
    121          1           0       15.151234    0.457647   -1.305453
    122          1           0       16.120592   -2.302274   -0.011770
    123          1           0       14.812619   -2.007422   -1.523609
    124          1           0       16.430754   -1.525061   -1.744426
    125          1           0       15.986508    1.486930    0.841909
    126          1           0       16.701161   -0.277622    1.335868
    127          1           0       18.320217   -0.478857   -0.254846
    128          1           0       17.787901    0.859755   -1.139499
    129          1           0       18.499423    2.330712    0.988737
    130          1           0       18.846217    0.522312    1.687064
    131          1           0       20.331601    0.145550   -0.029251
    132          1           0       20.141675    3.097937   -1.076861
    133          1           0       21.526057    1.765658   -1.196632
    134          1           0       19.713556    1.531525   -1.794786
    135          1           0       20.630561    1.058788    2.453048
    136          1           0       22.228499    1.592514    1.231052
    137          1           0       21.079645    2.658459    1.772081
 ---------------------------------------------------------------------

 SCF Done:  E(RCAM-B3LYP) =  -2933.50970270     A.U. after   16 cycles

 Excitation energies and oscillator strengths:

 Excited State   1:      Singlet-A      2.0078 eV  617.50 nm  f=0.2766  <S**2>=0.000
     240 -> 243        0.23046
     241 -> 242        0.66630
 This state for optimization and/or second-order correction.
 Total Energy, E(TD-HF/TD-DFT) =  -2933.43591608
 Copying the excited state density for this state as the 1-particle RhoCI density.

 The electronic state is 1-A.
 Alpha  occ. eigenvalues --  -46.79599 -19.21945 -19.21562 -19.16757 -19.16494
 Alpha  occ. eigenvalues --  -19.15625 -14.38038 -14.35219 -14.34634 -14.34414
 Alpha  occ. eigenvalues --  -10.34408 -10.33745 -10.30869 -10.27188 -10.27183
 Alpha  occ. eigenvalues --  -10.26526 -10.26342 -10.25438 -10.25242 -10.24915
 Alpha  occ. eigenvalues --  -10.24614 -10.24299 -10.24241 -10.24026 -10.23665
 Alpha  occ. eigenvalues --  -10.23437 -10.23308 -10.23263 -10.23159 -10.22991
 Alpha  occ. eigenvalues --  -10.22970 -10.22956 -10.22948 -10.22935 -10.22892
 Alpha  occ. eigenvalues --  -10.22817 -10.22775 -10.22637 -10.22525 -10.22487
 Alpha  occ. eigenvalues --  -10.22466 -10.22462 -10.22413 -10.22345 -10.22121
 Alpha  occ. eigenvalues --  -10.22064 -10.21959 -10.21954 -10.21912 -10.21651
 Alpha  occ. eigenvalues --  -10.21626 -10.21593 -10.21567 -10.21493 -10.21395
 Alpha  occ. eigenvalues --  -10.21380 -10.21330 -10.21237 -10.20847 -10.20750
 Alpha  occ. eigenvalues --  -10.20702 -10.20493 -10.20221 -10.19943 -10.19447
 Alpha  occ. eigenvalues --   -3.08162  -1.83114  -1.82626  -1.82566  -1.11933
 Alpha  occ. eigenvalues --   -1.11149  -1.06028  -1.03385  -1.02013  -1.00028
 Alpha  occ. eigenvalues --   -0.99117  -0.97951  -0.96410  -0.87970  -0.86769
 Alpha  occ. eigenvalues --   -0.86253  -0.85994  -0.84875  -0.84790  -0.84300
 Alpha  occ. eigenvalues --   -0.83848  -0.82464  -0.82289  -0.81199  -0.80768
 Alpha  occ. eigenvalues --   -0.80013  -0.79519  -0.78703  -0.78390  -0.77438
 Alpha  occ. eigenvalues --   -0.76880  -0.76354  -0.75869  -0.74482  -0.73613
 Alpha  occ. eigenvalues --   -0.73227  -0.72672  -0.72061  -0.71771  -0.71048
 Alpha  occ. eigenvalues --   -0.70798  -0.70126  -0.69824  -0.68486  -0.67659
 Alpha  occ. eigenvalues --   -0.66616  -0.66607  -0.65040  -0.64826  -0.64570
 Alpha  occ. eigenvalues --   -0.63353  -0.61876  -0.61597  -0.60657  -0.60572
 Alpha  occ. eigenvalues --   -0.59784  -0.59304  -0.58499  -0.57534  -0.57488
 Alpha  occ. eigenvalues --   -0.57361  -0.57255  -0.56527  -0.56070  -0.55360
 Alpha  occ. eigenvalues --   -0.54884  -0.54482  -0.53789  -0.53182  -0.52549
 Alpha  occ. eigenvalues --   -0.51974  -0.51750  -0.51152  -0.50972  -0.50732
 Alpha  occ. eigenvalues --   -0.50310  -0.50018  -0.49996  -0.49755  -0.49251
 Alpha  occ. eigenvalues --   -0.49044  -0.48497  -0.48459  -0.48160  -0.47965
 Alpha  occ. eigenvalues --   -0.47606  -0.47372  -0.47340  -0.47126  -0.46993
 Alpha  occ. eigenvalues --   -0.46678  -0.46459  -0.46320  -0.46122  -0.45973
 Alpha  occ. eigenvalues --   -0.45761  -0.45506  -0.45219  -0.44992  -0.44852
 Alpha  occ. eigenvalues --   -0.44646  -0.44467  -0.44277  -0.43922  -0.43667
 Alpha  occ. eigenvalues --   -0.43419  -0.43210  -0.42852  -0.42683  -0.42280
 Alpha  occ. eigenvalues --   -0.42090  -0.41828  -0.41724  -0.41574  -0.41427
 Alpha  occ. eigenvalues --   -0.41227  -0.41209  -0.41038  -0.40916  -0.40324
 Alpha  occ. eigenvalues --   -0.40043  -0.39841  -0.39804  -0.39572  -0.39477
 Alpha  occ. eigenvalues --   -0.39342  -0.39199  -0.38969  -0.38924  -0.38774
 Alpha  occ. eigenvalues --   -0.38736  -0.38443  -0.38326  -0.38271  -0.38186
 Alpha  occ. eigenvalues --   -0.38064  -0.37906  -0.37770  -0.37528  -0.37376
 Alpha  occ. eigenvalues --   -0.37284  -0.37209  -0.36715  -0.36438  -0.36209
 Alpha  occ. eigenvalues --   -0.35847  -0.35336  -0.34944  -0.34690  -0.34470
 Alpha  occ. eigenvalues --   -0.34270  -0.34079  -0.33968  -0.33770  -0.33403
 Alpha  occ. eigenvalues --   -0.33126  -0.32755  -0.32680  -0.32556  -0.32240
 Alpha  occ. eigenvalues --   -0.32181  -0.32113  -0.31692  -0.31518  -0.30434
 Alpha  occ. eigenvalues --   -0.29911  -0.29632  -0.29355  -0.28682  -0.27112
 Alpha  occ. eigenvalues --   -0.26605  -0.26407  -0.25556  -0.24826  -0.21459
 Alpha  occ. eigenvalues --   -0.19981
 Alpha virt. eigenvalues --   -0.07268  -0.03528  -0.00322   0.01307   0.01725
 Alpha virt. eigenvalues --    0.03349   0.03802   0.04873   0.05194   0.05737
 Alpha virt. eigenvalues --    0.06311   0.08539   0.08721   0.09063   0.09774

 Mulliken charges:
               1
     1  Mg   0.804492
     2  C    0.072927
     3  C   -0.220891
     4  C   -0.179282
     5  C   -0.188213
     6  N   -0.623422
     7  C    0.251912
     8  C   -0.131534
     9  C   -0.165602
    10  C    0.389769
    11  C   -0.310142
    12  C   -0.156436
    13  C   -0.277841
    14  C    0.626931
    15  O   -0.507693
    16  O   -0.484674
    17  N   -0.742560
    18  C    0.340882
    19  C   -0.013357
    20  C    0.077070
    21  C    0.310591
    22  C   -0.375332
    23  C   -0.091620
    24  C   -0.243995
    25  N   -0.702463
    26  C    0.329379
    27  C   -0.010715
    28  C    0.029045
    29  C    0.337184
    30  C   -0.377637
    31  C   -0.234729
    32  C   -0.305372
    33  N   -0.738805
    34  C    0.274444
    35  C   -0.042169
    36  C    0.050442
    37  C    0.297196
    38  C   -0.380691
    39  C    0.376842
    40  O   -0.455902
    41  C   -0.345455
    42  C    0.648117
    43  O   -0.468201
    44  O   -0.456214
    45  C   -0.099034
    46  C    0.000389
    47  C   -0.126475
    48  C    0.153151
    49  C   -0.391131
    50  C   -0.231341
    51  C   -0.179372
    52  C   -0.184563
    53  C   -0.046183
    54  C   -0.309054
    55  C   -0.181616
    56  C   -0.184561
    57  C   -0.155625
    58  C   -0.057790
    59  C   -0.291537
    60  C   -0.152483
    61  C   -0.177045
    62  C   -0.140898
    63  C   -0.033210
    64  C   -0.289485
    65  C   -0.292490
    66  H    0.075061
    67  H    0.084683
    68  H    0.101498
    69  H    0.126651
    70  H    0.103735
    71  H    0.076116
    72  H    0.107116
    73  H    0.138651
    74  H    0.113587
    75  H    0.121086
    76  H    0.123082
    77  H    0.136523
    78  H    0.128666
    79  H    0.126124
    80  H    0.094449
    81  H    0.093601
    82  H    0.079100
    83  H    0.114215
    84  H    0.114761
    85  H    0.104149
    86  H    0.141884
    87  H    0.068885
    88  H    0.106776
    89  H    0.097482
    90  H    0.125308
    91  H    0.117583
    92  H    0.119034
    93  H    0.125665
    94  H    0.135692
    95  H    0.178607
    96  H    0.142447
    97  H    0.123124
    98  H    0.122454
    99  H    0.137838
   100  H    0.137374
   101  H    0.089673
   102  H    0.114137
   103  H    0.113571
   104  H    0.135085
   105  H    0.106093
   106  H    0.093102
   107  H    0.102710
   108  H    0.088261
   109  H    0.074803
   110  H    0.079888
   111  H    0.092408
   112  H    0.112676
   113  H    0.058346
   114  H    0.131494
   115  H    0.099923
   116  H    0.059746
   117  H    0.106629
   118  H    0.081383
   119  H    0.098329
   120  H    0.085020
   121  H    0.078626
   122  H    0.055528
   123  H    0.107317
   124  H    0.106177
   125  H    0.077851
   126  H    0.075036
   127  H    0.073263
   128  H    0.081346
   129  H    0.044013
   130  H    0.073973
   131  H    0.088597
   132  H    0.098020
   133  H    0.098346
   134  H    0.094449
   135  H    0.055452
   136  H    0.089011
   137  H    0.120787
 Sum of Mulliken charges =  -0.00000

 Dipole moment (field-independent basis, Debye):
    X=              2.3563    Y=              4.8711    Z=              0.1639  Tot=              5.4135
 Quadrupole moment (field-independent basis, Debye-Ang):
   XX=           -350.4389   YY=           -392.1445   ZZ=           -397.5379
   XY=            -15.5014   XZ=             -0.6141   YZ=             -5.4834

 Normal termination of Gaussian 16 at Sun Sep 15 22:39:40 2019.
