 Gaussian 09, Revision D.01,
 Gaussian 09:  ES64L-G09RevD.01 24-Apr-2013

 -------------------------------------
 # td=(NStates=1) CAM-B3LYP/6-31G(d,p)
 -------------------------------------

 --
 TD
 --
 Symbolic Z-matrix:
 Charge =  0 Multiplicity = 1

                         Standard orientation:
 ---------------------------------------------------------------------
 Center     Atomic      Atomic             Coordinates (Angstroms)
 Number     Number       Type             X           Y           Z
 ---------------------------------------------------------------------
      1         12           0       -7.078528    0.538261   -0.014289
      2          6           0       -4.839254   -1.925195    0.450516
      3          6           0       -4.892417    2.834619    1.262149
      4          6           0       -9.416991    3.098651   -0.477827
      5          6           0       -9.445053   -1.791569   -0.939746
      6          7           0       -5.051068    0.444592    0.675746
      7          6           0       -4.316633   -0.675303    0.796217
      8          6           0       -2.920351   -0.362219    1.300462
      9          6           0       -2.938868    1.131085    1.792610
     10          6           0       -4.431863    1.519750    1.124312
     11          6           0       -3.018912    1.242908    3.352250
     12          6           0       -1.887831   -0.582282    0.213311
     13          6           0       -0.509513   -0.278622    0.600308
     14          6           0        0.501607   -0.572527   -0.565461
     15          8           0        0.119915   -0.993577   -1.678941
     16          8           0        1.760939   -0.346952   -0.249097
     17          7           0       -7.188285    2.609475    0.325956
     18          6           0       -6.147699    3.313557    0.775927
     19          6           0       -6.443112    4.787618    0.828201
     20          6           0       -7.778820    4.805134    0.378498
     21          6           0       -8.172012    3.448818    0.056036
     22          6           0       -5.563095    5.912293    1.155651
     23          6           0       -8.638197    6.009510    0.187350
     24          6           0       -8.641407    7.116407    0.938786
     25          7           0       -9.102549    0.649783   -0.604416
     26          6           0       -9.814691    1.737687   -0.786426
     27          6           0      -11.122213    1.383269   -1.220527
     28          6           0      -11.154996    0.048875   -1.322877
     29          6           0       -9.812347   -0.400081   -0.980787
     30          6           0      -12.161127    2.441507   -1.564186
     31          6           0      -12.296293   -0.802377   -1.799819
     32          6           0      -12.312168   -1.093509   -3.253927
     33          7           0       -7.217839   -1.398435   -0.162415
     34          6           0       -8.227054   -2.281475   -0.546714
     35          6           0       -7.831550   -3.637591   -0.525342
     36          6           0       -6.426184   -3.588279   -0.082424
     37          6           0       -6.171418   -2.155660    0.035497
     38          6           0       -8.598237   -4.903202   -0.797883
     39          6           0       -5.312419   -4.379983    0.150972
     40          8           0       -5.093205   -5.648570    0.185941
     41          6           0       -4.166297   -3.357702    0.479314
     42          6           0       -3.557761   -3.602462    1.948217
     43          8           0       -3.681638   -3.039799    2.957435
     44          8           0       -2.734895   -4.717616    1.818327
     45          6           0       -2.159651   -5.079958    3.076330
     46          6           0        2.761706   -0.713041   -1.206125
     47          6           0        4.084802   -0.466838   -0.681561
     48          6           0        5.099682    0.378242   -0.935530
     49          6           0        5.125858    1.337998   -2.170500
     50          6           0        6.405331    0.383583   -0.213080
     51          6           0        7.681985   -0.062266   -0.908508
     52          6           0        8.836671   -0.205017   -0.030775
     53          6           0       10.202935   -0.544775   -0.744701
     54          6           0       10.097432   -1.922878   -1.236761
     55          6           0       11.409291   -0.314270    0.189932
     56          6           0       12.712148   -0.561284   -0.534096
     57          6           0       13.982400   -0.099580    0.238456
     58          6           0       15.299955   -0.305355   -0.467526
     59          6           0       15.617239   -1.637773   -0.865920
     60          6           0       16.441344    0.371836    0.338711
     61          6           0       17.789875    0.670332   -0.305334
     62          6           0       18.774850    1.335640    0.597793
     63          6           0       20.237402    1.303410    0.066049
     64          6           0       20.312638    2.135674   -1.184514
     65          6           0       21.215228    1.798277    1.182190
     66          1           0       -4.333905    3.503044    1.433632
     67          1           0      -10.168245    3.776463   -0.651727
     68          1           0      -10.192986   -2.438813   -1.334560
     69          1           0       -2.714425   -1.044250    2.047781
     70          1           0       -2.090086    1.695981    1.536648
     71          1           0       -2.140643    0.967604    3.791023
     72          1           0       -3.181926    2.295879    3.612869
     73          1           0       -3.726420    0.408336    3.541850
     74          1           0       -1.982309   -1.788840   -0.061022
     75          1           0       -2.213621    0.002188   -0.615213
     76          1           0       -0.485242    0.789822    0.937371
     77          1           0       -0.042696   -0.725529    1.588586
     78          1           0       -5.782910    6.710565    0.542648
     79          1           0       -5.400599    6.089475    2.228384
     80          1           0       -4.517103    5.548523    0.930592
     81          1           0       -9.324816    6.012039   -0.567550
     82          1           0       -9.274171    7.981441    0.851601
     83          1           0       -7.714271    7.228695    1.616998
     84          1           0      -11.819747    2.940010   -2.531603
     85          1           0      -13.163879    1.937690   -1.796449
     86          1           0      -12.444587    3.190596   -0.688988
     87          1           0      -12.658492   -1.769219   -1.221839
     88          1           0      -13.081195   -0.272642   -1.279263
     89          1           0      -13.002529   -1.865718   -3.760524
     90          1           0      -12.630916   -0.099761   -3.884284
     91          1           0      -11.174338   -1.337752   -3.465054
     92          1           0       -8.954604   -4.981163   -1.877138
     93          1           0       -8.074710   -5.726469   -0.874589
     94          1           0       -9.495103   -4.833638   -0.234326
     95          1           0       -3.312915   -3.580636   -0.156212
     96          1           0       -1.564305   -4.206172    3.734616
     97          1           0       -2.848550   -5.575144    3.683693
     98          1           0       -1.217848   -5.745630    2.777403
     99          1           0        2.527978   -1.782765   -1.447785
    100          1           0        2.602187    0.036475   -1.973412
    101          1           0        4.202984   -0.886458    0.306507
    102          1           0        4.171781    1.391816   -2.601398
    103          1           0        5.486561    2.243993   -1.752340
    104          1           0        5.805704    0.983092   -3.005899
    105          1           0        6.581644    1.318958    0.072932
    106          1           0        6.409776   -0.208400    0.759398
    107          1           0        7.577780   -1.186140   -1.185420
    108          1           0        7.873648    0.513074   -1.869977
    109          1           0        8.974407    0.850724    0.362421
    110          1           0        8.732157   -0.831572    0.911467
    111          1           0       10.291452    0.042522   -1.652604
    112          1           0        9.134731   -2.178633   -1.664751
    113          1           0       10.967270   -2.279046   -2.020916
    114          1           0       10.345032   -2.781957   -0.498335
    115          1           0       11.620212    0.689502    0.723082
    116          1           0       11.480886   -1.116828    0.836017
    117          1           0       12.858750   -1.468402   -0.734809
    118          1           0       12.674317    0.011668   -1.503739
    119          1           0       13.708619    0.922277    0.602406
    120          1           0       13.961864   -0.738481    1.143449
    121          1           0       15.114301    0.205419   -1.330185
    122          1           0       15.644965   -2.441832    0.063689
    123          1           0       14.848418   -1.905615   -1.446124
    124          1           0       16.606465   -1.589334   -1.382946
    125          1           0       16.200299    1.354399    0.660424
    126          1           0       16.399088   -0.273598    1.283162
    127          1           0       18.351336   -0.189393   -0.812463
    128          1           0       17.462678    1.460424   -1.221515
    129          1           0       18.602412    2.457787    0.728114
    130          1           0       18.698363    0.860701    1.570027
    131          1           0       20.410156    0.371171   -0.016542
    132          1           0       19.796846    3.030536   -1.170375
    133          1           0       21.350755    2.336456   -1.456239
    134          1           0       19.864378    1.635869   -2.173336
    135          1           0       21.174449    1.415065    2.255738
    136          1           0       22.202068    1.546065    0.876994
    137          1           0       21.121299    3.006916    1.165006
 ---------------------------------------------------------------------

 SCF Done:  E(RCAM-B3LYP) =  -2932.68652094     A.U. after   18 cycles

 Excitation energies and oscillator strengths:

 Excited State   1:      Singlet-A      2.1397 eV  579.44 nm  f=0.2268  <S**2>=0.000
     240 -> 243       -0.26481
     241 -> 242        0.64623
 This state for optimization and/or second-order correction.
 Total Energy, E(TD-HF/TD-KS) =  -2932.60788714
 Copying the excited state density for this state as the 1-particle RhoCI density.

 The electronic state is 1-A.
 Alpha  occ. eigenvalues --  -46.85600 -19.26664 -19.25043 -19.21985 -19.20076
 Alpha  occ. eigenvalues --  -19.18488 -14.42207 -14.40070 -14.39833 -14.39141
 Alpha  occ. eigenvalues --  -10.39452 -10.38934 -10.33924 -10.32121 -10.31922
 Alpha  occ. eigenvalues --  -10.31567 -10.31012 -10.30618 -10.29600 -10.29474
 Alpha  occ. eigenvalues --  -10.29447 -10.29042 -10.28610 -10.28534 -10.28434
 Alpha  occ. eigenvalues --  -10.28350 -10.28273 -10.27932 -10.27931 -10.27753
 Alpha  occ. eigenvalues --  -10.27657 -10.27479 -10.27407 -10.27042 -10.26893
 Alpha  occ. eigenvalues --  -10.26766 -10.26762 -10.26729 -10.26665 -10.26582
 Alpha  occ. eigenvalues --  -10.26522 -10.26491 -10.26435 -10.26190 -10.25946
 Alpha  occ. eigenvalues --  -10.25933 -10.25864 -10.25656 -10.25620 -10.25618
 Alpha  occ. eigenvalues --  -10.25540 -10.25444 -10.25439 -10.25354 -10.24994
 Alpha  occ. eigenvalues --  -10.24962 -10.24744 -10.24669 -10.24640 -10.24618
 Alpha  occ. eigenvalues --  -10.24563 -10.24270 -10.24018 -10.23983 -10.23176
 Alpha  occ. eigenvalues --   -3.14593  -1.89298  -1.88813  -1.88789  -1.18885
 Alpha  occ. eigenvalues --   -1.18677  -1.10003  -1.07498  -1.06268  -1.05789
 Alpha  occ. eigenvalues --   -1.05304  -1.05038  -1.04229  -0.92390  -0.91936
 Alpha  occ. eigenvalues --   -0.91660  -0.90696  -0.90295  -0.89421  -0.89410
 Alpha  occ. eigenvalues --   -0.89167  -0.88763  -0.88104  -0.87243  -0.87158
 Alpha  occ. eigenvalues --   -0.85299  -0.84683  -0.83901  -0.83409  -0.82903
 Alpha  occ. eigenvalues --   -0.82648  -0.81487  -0.81125  -0.80075  -0.79009
 Alpha  occ. eigenvalues --   -0.78496  -0.77071  -0.76712  -0.75859  -0.75689
 Alpha  occ. eigenvalues --   -0.75493  -0.74584  -0.74550  -0.74136  -0.73084
 Alpha  occ. eigenvalues --   -0.71554  -0.70122  -0.69488  -0.69286  -0.68839
 Alpha  occ. eigenvalues --   -0.67336  -0.66772  -0.65962  -0.65140  -0.64996
 Alpha  occ. eigenvalues --   -0.64378  -0.63854  -0.63467  -0.63118  -0.62568
 Alpha  occ. eigenvalues --   -0.61640  -0.61066  -0.60746  -0.60700  -0.59698
 Alpha  occ. eigenvalues --   -0.59372  -0.59099  -0.58167  -0.57901  -0.56312
 Alpha  occ. eigenvalues --   -0.56271  -0.56228  -0.55908  -0.55581  -0.55250
 Alpha  occ. eigenvalues --   -0.54766  -0.54733  -0.54011  -0.53946  -0.53641
 Alpha  occ. eigenvalues --   -0.53379  -0.53248  -0.52992  -0.52737  -0.52449
 Alpha  occ. eigenvalues --   -0.52001  -0.51762  -0.51491  -0.51274  -0.51049
 Alpha  occ. eigenvalues --   -0.50823  -0.50251  -0.50155  -0.50072  -0.49831
 Alpha  occ. eigenvalues --   -0.49527  -0.49386  -0.49108  -0.48673  -0.48520
 Alpha  occ. eigenvalues --   -0.48409  -0.48179  -0.47934  -0.47699  -0.47521
 Alpha  occ. eigenvalues --   -0.47334  -0.47112  -0.46803  -0.46370  -0.46196
 Alpha  occ. eigenvalues --   -0.46066  -0.46032  -0.45914  -0.45752  -0.45589
 Alpha  occ. eigenvalues --   -0.45290  -0.44999  -0.44844  -0.44757  -0.44478
 Alpha  occ. eigenvalues --   -0.44409  -0.44147  -0.44031  -0.43761  -0.43485
 Alpha  occ. eigenvalues --   -0.43095  -0.42816  -0.42702  -0.42544  -0.42289
 Alpha  occ. eigenvalues --   -0.42131  -0.41956  -0.41890  -0.41429  -0.41114
 Alpha  occ. eigenvalues --   -0.41012  -0.40861  -0.40743  -0.40491  -0.40054
 Alpha  occ. eigenvalues --   -0.39956  -0.39707  -0.39409  -0.39292  -0.39217
 Alpha  occ. eigenvalues --   -0.39024  -0.38483  -0.38172  -0.38025  -0.37656
 Alpha  occ. eigenvalues --   -0.37520  -0.37313  -0.36872  -0.36774  -0.36342
 Alpha  occ. eigenvalues --   -0.36295  -0.35952  -0.35670  -0.35543  -0.35396
 Alpha  occ. eigenvalues --   -0.35369  -0.35066  -0.34503  -0.33893  -0.33777
 Alpha  occ. eigenvalues --   -0.33200  -0.32812  -0.32710  -0.30962  -0.30380
 Alpha  occ. eigenvalues --   -0.29716  -0.29040  -0.28949  -0.27895  -0.23196
 Alpha  occ. eigenvalues --   -0.21715
 Alpha virt. eigenvalues --   -0.06532  -0.03088   0.00683   0.04355   0.04902
 Alpha virt. eigenvalues --    0.05136   0.06240   0.06651   0.07030   0.07785
 Alpha virt. eigenvalues --    0.08912   0.10635   0.11426   0.11836   0.12161

 Mulliken charges:
               1
     1  Mg   0.841844
     2  C    0.028759
     3  C   -0.086919
     4  C   -0.150700
     5  C   -0.160182
     6  N   -0.638015
     7  C    0.316572
     8  C   -0.157518
     9  C   -0.158462
    10  C    0.308385
    11  C   -0.301607
    12  C   -0.138681
    13  C   -0.271646
    14  C    0.612717
    15  O   -0.498184
    16  O   -0.462184
    17  N   -0.699611
    18  C    0.275435
    19  C    0.028413
    20  C   -0.018499
    21  C    0.334920
    22  C   -0.383613
    23  C   -0.072026
    24  C   -0.244779
    25  N   -0.679026
    26  C    0.287259
    27  C    0.036323
    28  C   -0.005248
    29  C    0.267955
    30  C   -0.376420
    31  C   -0.237228
    32  C   -0.284808
    33  N   -0.758076
    34  C    0.269170
    35  C    0.050449
    36  C    0.017278
    37  C    0.335355
    38  C   -0.355202
    39  C    0.321986
    40  O   -0.515658
    41  C   -0.309575
    42  C    0.608847
    43  O   -0.425672
    44  O   -0.451504
    45  C   -0.075672
    46  C    0.029859
    47  C   -0.135800
    48  C    0.103419
    49  C   -0.361039
    50  C   -0.218653
    51  C   -0.167534
    52  C   -0.176828
    53  C   -0.046544
    54  C   -0.318824
    55  C   -0.169017
    56  C   -0.188237
    57  C   -0.189482
    58  C   -0.059806
    59  C   -0.283105
    60  C   -0.160103
    61  C   -0.170348
    62  C   -0.165602
    63  C   -0.041240
    64  C   -0.314061
    65  C   -0.315792
    66  H    0.007746
    67  H    0.084644
    68  H    0.100457
    69  H    0.124543
    70  H    0.098368
    71  H    0.115635
    72  H    0.109032
    73  H    0.128052
    74  H    0.091878
    75  H    0.124449
    76  H    0.123756
    77  H    0.120370
    78  H    0.139727
    79  H    0.133273
    80  H    0.109403
    81  H    0.091821
    82  H    0.112347
    83  H    0.090707
    84  H    0.124549
    85  H    0.107206
    86  H    0.109760
    87  H    0.088701
    88  H    0.109400
    89  H    0.106653
    90  H    0.083252
    91  H    0.100929
    92  H    0.110535
    93  H    0.156402
    94  H    0.137145
    95  H    0.167735
    96  H    0.090758
    97  H    0.140817
    98  H    0.104282
    99  H    0.137919
   100  H    0.116866
   101  H    0.080831
   102  H    0.115913
   103  H    0.120144
   104  H    0.119282
   105  H    0.112028
   106  H    0.091704
   107  H    0.085326
   108  H    0.093694
   109  H    0.074692
   110  H    0.094970
   111  H    0.094439
   112  H    0.114918
   113  H    0.076434
   114  H    0.090301
   115  H    0.083803
   116  H    0.103175
   117  H    0.107505
   118  H    0.070047
   119  H    0.082852
   120  H    0.076194
   121  H    0.091668
   122  H    0.063512
   123  H    0.112523
   124  H    0.104750
   125  H    0.096788
   126  H    0.072634
   127  H    0.081647
   128  H    0.059007
   129  H    0.078711
   130  H    0.092231
   131  H    0.097476
   132  H    0.116290
   133  H    0.100791
   134  H    0.085718
   135  H    0.099547
   136  H    0.106366
   137  H    0.076757
 Sum of Mulliken charges =   0.00000

 Dipole moment (field-independent basis, Debye):
    X=              1.7051    Y=              6.1452    Z=             -0.1212  Tot=              6.3785
 Quadrupole moment (field-independent basis, Debye-Ang):
   XX=           -333.4137   YY=           -400.4422   ZZ=           -398.2105
   XY=            -23.9822   XZ=             12.9167   YZ=             -1.4367

 Normal termination of Gaussian 09 at Fri Jul  5 04:56:03 2019.
