 Gaussian 09, Revision D.01,
 Gaussian 09:  ES64L-G09RevD.01 24-Apr-2013

 -------------------------------------
 # td=(NStates=1) CAM-B3LYP/6-31G(d,p)
 -------------------------------------

 --
 TD
 --
 Symbolic Z-matrix:
 Charge =  0 Multiplicity = 1

                         Standard orientation:
 ---------------------------------------------------------------------
 Center     Atomic      Atomic             Coordinates (Angstroms)
 Number     Number       Type             X           Y           Z
 ---------------------------------------------------------------------
      1         12           0       -7.229809    0.678964    0.025166
      2          6           0       -4.837942   -1.951476    0.425810
      3          6           0       -4.770964    2.926767    1.011308
      4          6           0       -9.462592    3.224303   -0.375476
      5          6           0       -9.625313   -1.717866   -0.851286
      6          7           0       -5.108035    0.450574    0.699310
      7          6           0       -4.375849   -0.653879    0.723035
      8          6           0       -2.908426   -0.418125    1.093637
      9          6           0       -2.957868    1.117424    1.517255
     10          6           0       -4.375315    1.523264    1.048511
     11          6           0       -2.790654    1.268682    3.068801
     12          6           0       -1.931151   -0.601592    0.009148
     13          6           0       -0.435225   -0.393274    0.452924
     14          6           0        0.523654   -0.682147   -0.663760
     15          8           0        0.225551   -0.991063   -1.784901
     16          8           0        1.762461   -0.433152   -0.252120
     17          7           0       -7.214725    2.667732    0.169570
     18          6           0       -6.093147    3.385874    0.647079
     19          6           0       -6.443695    4.764909    0.716182
     20          6           0       -7.792980    4.933840    0.373356
     21          6           0       -8.177333    3.585834   -0.050849
     22          6           0       -5.449299    5.916937    1.045979
     23          6           0       -8.638313    6.068441    0.267563
     24          6           0       -8.433766    7.185307    0.886879
     25          7           0       -9.153337    0.678399   -0.478025
     26          6           0       -9.902975    1.804312   -0.569696
     27          6           0      -11.288568    1.467566   -1.003545
     28          6           0      -11.376265    0.058955   -1.177923
     29          6           0      -10.022254   -0.327977   -0.784546
     30          6           0      -12.428264    2.478632   -1.270313
     31          6           0      -12.407598   -0.847150   -1.644154
     32          6           0      -12.261844   -1.271191   -3.099084
     33          7           0       -7.233273   -1.383111   -0.182085
     34          6           0       -8.327450   -2.199125   -0.556737
     35          6           0       -7.916886   -3.606416   -0.474316
     36          6           0       -6.519766   -3.574938   -0.163364
     37          6           0       -6.267686   -2.210323   -0.003479
     38          6           0       -8.654362   -4.812213   -0.849763
     39          6           0       -5.333257   -4.404441    0.173816
     40          8           0       -5.175898   -5.555765    0.277607
     41          6           0       -4.226342   -3.326906    0.511853
     42          6           0       -3.647588   -3.730820    1.859008
     43          8           0       -3.824094   -3.263310    2.976365
     44          8           0       -2.786844   -4.695707    1.770129
     45          6           0       -2.302861   -5.366909    3.094143
     46          6           0        2.834175   -0.618810   -1.211278
     47          6           0        4.168859   -0.369390   -0.491616
     48          6           0        5.218605    0.273938   -0.951966
     49          6           0        5.156787    1.234055   -2.096390
     50          6           0        6.413634    0.283662   -0.080309
     51          6           0        7.691925   -0.278009   -0.840868
     52          6           0        8.974044   -0.160746   -0.023354
     53          6           0       10.277135   -0.618556   -0.772235
     54          6           0       10.016367   -2.133633   -1.268760
     55          6           0       11.521439   -0.377743   -0.023064
     56          6           0       12.852716   -0.498554   -0.680528
     57          6           0       13.989048   -0.156880    0.134786
     58          6           0       15.428288   -0.314573   -0.521470
     59          6           0       15.808760   -1.796855   -0.952856
     60          6           0       16.469902    0.302378    0.414625
     61          6           0       17.898758    0.492516   -0.268116
     62          6           0       18.865959    1.336632    0.715148
     63          6           0       20.313821    1.529423    0.223670
     64          6           0       20.426920    2.364788   -1.062455
     65          6           0       21.183566    1.994753    1.372335
     66          1           0       -3.905771    3.485691    1.367094
     67          1           0      -10.283613    3.856490   -0.457134
     68          1           0      -10.484776   -2.223867   -1.146154
     69          1           0       -2.698969   -1.057201    2.025001
     70          1           0       -2.134893    1.855384    1.215091
     71          1           0       -1.754989    0.893801    3.321430
     72          1           0       -2.780026    2.338616    3.258599
     73          1           0       -3.498207    0.678222    3.682700
     74          1           0       -2.068166   -1.665246   -0.181558
     75          1           0       -2.198752    0.060192   -0.939278
     76          1           0       -0.175985    0.587348    0.734826
     77          1           0       -0.461022   -0.901686    1.361640
     78          1           0       -5.684640    6.963786    0.804970
     79          1           0       -5.338734    5.933331    2.148298
     80          1           0       -4.379005    5.627789    0.629219
     81          1           0       -9.701703    5.869327   -0.234584
     82          1           0       -9.406543    7.916178    0.668728
     83          1           0       -7.552895    7.570079    1.428451
     84          1           0      -12.114248    3.377534   -1.614206
     85          1           0      -13.297854    1.888518   -2.076421
     86          1           0      -12.756187    2.861196   -0.271542
     87          1           0      -12.589361   -1.646925   -0.916943
     88          1           0      -13.215938   -0.188825   -1.682184
     89          1           0      -13.024781   -2.016566   -3.369985
     90          1           0      -12.466075   -0.389428   -3.756947
     91          1           0      -11.300742   -1.702815   -3.461210
     92          1           0       -8.939922   -4.810219   -1.888895
     93          1           0       -7.935337   -5.627750   -0.738814
     94          1           0       -9.563555   -4.777235   -0.132077
     95          1           0       -3.436339   -3.436747   -0.216957
     96          1           0       -1.478133   -4.666762    3.611884
     97          1           0       -3.193901   -5.560336    3.721477
     98          1           0       -1.714935   -6.151764    2.751193
     99          1           0        2.759696   -1.661190   -1.275939
    100          1           0        2.697866   -0.050017   -2.015766
    101          1           0        4.331076   -0.982791    0.490539
    102          1           0        4.095001    1.215068   -2.672632
    103          1           0        5.364921    2.291361   -1.909168
    104          1           0        5.714154    0.777366   -2.926061
    105          1           0        6.605661    1.356633    0.267153
    106          1           0        6.193482   -0.301528    0.923697
    107          1           0        7.459450   -1.274625   -1.335344
    108          1           0        7.811677    0.366301   -1.740832
    109          1           0        9.219515    1.042623    0.095885
    110          1           0        8.978363   -0.621934    0.923054
    111          1           0       10.356264    0.005147   -1.542272
    112          1           0        9.367661   -2.272070   -2.114958
    113          1           0       11.126477   -2.411887   -1.674135
    114          1           0       10.002210   -2.746969   -0.400784
    115          1           0       11.500873    0.756784    0.295404
    116          1           0       11.810454   -1.028446    0.927043
    117          1           0       13.014400   -1.437272   -1.017552
    118          1           0       12.814378    0.262590   -1.432156
    119          1           0       14.002402    0.766580    0.655009
    120          1           0       14.218494   -0.867177    0.819634
    121          1           0       15.250909    0.423635   -1.311033
    122          1           0       15.913057   -2.445309   -0.132959
    123          1           0       14.952880   -2.087798   -1.580233
    124          1           0       16.851040   -1.914127   -1.582019
    125          1           0       16.098706    1.475940    0.530334
    126          1           0       16.622483   -0.154106    1.272978
    127          1           0       18.522911   -0.471994   -0.547950
    128          1           0       17.848640    1.098616   -1.139983
    129          1           0       18.551497    2.328691    0.903322
    130          1           0       19.027535    0.864135    1.744947
    131          1           0       20.730380    0.411711    0.114507
    132          1           0       19.922061    3.360882   -0.901377
    133          1           0       21.476262    2.405513   -1.315505
    134          1           0       19.931770    1.805609   -1.855590
    135          1           0       21.372426    1.382439    2.217644
    136          1           0       22.231714    2.337177    0.896063
    137          1           0       20.997782    2.907545    2.021524
 ---------------------------------------------------------------------

 SCF Done:  E(RCAM-B3LYP) =  -2932.71823847     A.U. after   18 cycles

 Excitation energies and oscillator strengths:

 Excited State   1:      Singlet-A      2.0613 eV  601.50 nm  f=0.1791  <S**2>=0.000
     240 -> 243       -0.27326
     241 -> 242        0.64060
 This state for optimization and/or second-order correction.
 Total Energy, E(TD-HF/TD-KS) =  -2932.64248872
 Copying the excited state density for this state as the 1-particle RhoCI density.

 The electronic state is 1-A.
 Alpha  occ. eigenvalues --  -46.84722 -19.25339 -19.24949 -19.20897 -19.20158
 Alpha  occ. eigenvalues --  -19.18192 -14.41492 -14.39733 -14.39597 -14.39258
 Alpha  occ. eigenvalues --  -10.38450 -10.37524 -10.35217 -10.32604 -10.31407
 Alpha  occ. eigenvalues --  -10.31144 -10.30670 -10.30189 -10.29698 -10.29200
 Alpha  occ. eigenvalues --  -10.29099 -10.28304 -10.28204 -10.28137 -10.27868
 Alpha  occ. eigenvalues --  -10.27773 -10.27719 -10.27673 -10.27666 -10.27382
 Alpha  occ. eigenvalues --  -10.27360 -10.27314 -10.27264 -10.27252 -10.27045
 Alpha  occ. eigenvalues --  -10.27018 -10.26966 -10.26938 -10.26862 -10.26735
 Alpha  occ. eigenvalues --  -10.26675 -10.26661 -10.26540 -10.26532 -10.26337
 Alpha  occ. eigenvalues --  -10.26178 -10.26167 -10.26149 -10.26136 -10.26135
 Alpha  occ. eigenvalues --  -10.26090 -10.25974 -10.25945 -10.25871 -10.25836
 Alpha  occ. eigenvalues --  -10.25828 -10.25626 -10.25609 -10.25395 -10.24937
 Alpha  occ. eigenvalues --  -10.24797 -10.24766 -10.24456 -10.23182 -10.22925
 Alpha  occ. eigenvalues --   -3.13744  -1.88443  -1.87993  -1.87919  -1.18402
 Alpha  occ. eigenvalues --   -1.17295  -1.14162  -1.09210  -1.05477  -1.04813
 Alpha  occ. eigenvalues --   -1.03891  -1.03484  -1.02387  -0.91893  -0.91404
 Alpha  occ. eigenvalues --   -0.91165  -0.89854  -0.89711  -0.89616  -0.89103
 Alpha  occ. eigenvalues --   -0.88211  -0.88003  -0.87251  -0.86270  -0.85815
 Alpha  occ. eigenvalues --   -0.85007  -0.84178  -0.83181  -0.82667  -0.82293
 Alpha  occ. eigenvalues --   -0.81213  -0.80729  -0.79864  -0.79539  -0.77967
 Alpha  occ. eigenvalues --   -0.77727  -0.77081  -0.76461  -0.76080  -0.76011
 Alpha  occ. eigenvalues --   -0.75426  -0.74636  -0.74566  -0.73219  -0.72045
 Alpha  occ. eigenvalues --   -0.71318  -0.70498  -0.69918  -0.69178  -0.67609
 Alpha  occ. eigenvalues --   -0.66909  -0.66480  -0.65078  -0.64609  -0.64297
 Alpha  occ. eigenvalues --   -0.63686  -0.63070  -0.63020  -0.62791  -0.61497
 Alpha  occ. eigenvalues --   -0.61202  -0.60295  -0.59789  -0.59275  -0.58796
 Alpha  occ. eigenvalues --   -0.58641  -0.58257  -0.57722  -0.57458  -0.56896
 Alpha  occ. eigenvalues --   -0.56669  -0.56288  -0.55271  -0.54903  -0.54368
 Alpha  occ. eigenvalues --   -0.54222  -0.53745  -0.53223  -0.53061  -0.52786
 Alpha  occ. eigenvalues --   -0.52366  -0.52244  -0.51596  -0.51553  -0.51335
 Alpha  occ. eigenvalues --   -0.51101  -0.50934  -0.50904  -0.50633  -0.50346
 Alpha  occ. eigenvalues --   -0.50277  -0.50131  -0.49795  -0.49678  -0.49632
 Alpha  occ. eigenvalues --   -0.49362  -0.49188  -0.49057  -0.48926  -0.48613
 Alpha  occ. eigenvalues --   -0.48354  -0.48194  -0.47740  -0.47677  -0.47149
 Alpha  occ. eigenvalues --   -0.46915  -0.46778  -0.46388  -0.46289  -0.46055
 Alpha  occ. eigenvalues --   -0.45868  -0.45757  -0.45546  -0.45417  -0.45306
 Alpha  occ. eigenvalues --   -0.44772  -0.44701  -0.44621  -0.44421  -0.44359
 Alpha  occ. eigenvalues --   -0.44194  -0.43825  -0.43653  -0.43251  -0.43103
 Alpha  occ. eigenvalues --   -0.43051  -0.42736  -0.42483  -0.42076  -0.42015
 Alpha  occ. eigenvalues --   -0.41894  -0.41782  -0.41607  -0.41586  -0.41283
 Alpha  occ. eigenvalues --   -0.41127  -0.41088  -0.40709  -0.40591  -0.40447
 Alpha  occ. eigenvalues --   -0.40052  -0.39902  -0.39649  -0.39478  -0.39375
 Alpha  occ. eigenvalues --   -0.39010  -0.38645  -0.38468  -0.37998  -0.37979
 Alpha  occ. eigenvalues --   -0.37484  -0.37193  -0.37190  -0.36831  -0.36502
 Alpha  occ. eigenvalues --   -0.36339  -0.36029  -0.35871  -0.35595  -0.35265
 Alpha  occ. eigenvalues --   -0.34838  -0.34665  -0.34341  -0.33508  -0.33053
 Alpha  occ. eigenvalues --   -0.32486  -0.32170  -0.31513  -0.30243  -0.30105
 Alpha  occ. eigenvalues --   -0.29570  -0.29186  -0.28084  -0.27349  -0.22347
 Alpha  occ. eigenvalues --   -0.21087
 Alpha virt. eigenvalues --   -0.06065  -0.03121   0.02326   0.04764   0.06045
 Alpha virt. eigenvalues --    0.06549   0.06646   0.07490   0.07725   0.08453
 Alpha virt. eigenvalues --    0.08838   0.09585   0.11147   0.11281   0.11292

 Mulliken charges:
               1
     1  Mg   0.845352
     2  C    0.068128
     3  C   -0.203220
     4  C   -0.159952
     5  C   -0.138035
     6  N   -0.631077
     7  C    0.302079
     8  C   -0.183031
     9  C   -0.167027
    10  C    0.341777
    11  C   -0.308034
    12  C   -0.144104
    13  C   -0.271707
    14  C    0.610243
    15  O   -0.475180
    16  O   -0.489252
    17  N   -0.729899
    18  C    0.329578
    19  C   -0.009288
    20  C    0.048292
    21  C    0.308054
    22  C   -0.373375
    23  C   -0.059015
    24  C   -0.236309
    25  N   -0.693668
    26  C    0.288336
    27  C   -0.038782
    28  C    0.071680
    29  C    0.230896
    30  C   -0.355605
    31  C   -0.257075
    32  C   -0.312708
    33  N   -0.691620
    34  C    0.244918
    35  C   -0.000823
    36  C   -0.017489
    37  C    0.300690
    38  C   -0.368449
    39  C    0.383182
    40  O   -0.420368
    41  C   -0.342335
    42  C    0.602127
    43  O   -0.513460
    44  O   -0.452839
    45  C   -0.073751
    46  C    0.048435
    47  C   -0.158094
    48  C    0.160035
    49  C   -0.369283
    50  C   -0.226203
    51  C   -0.183340
    52  C   -0.159027
    53  C   -0.043620
    54  C   -0.323224
    55  C   -0.171946
    56  C   -0.154145
    57  C   -0.189123
    58  C   -0.078425
    59  C   -0.317824
    60  C   -0.155165
    61  C   -0.183651
    62  C   -0.170212
    63  C   -0.052298
    64  C   -0.305519
    65  C   -0.314108
    66  H    0.086797
    67  H    0.073394
    68  H    0.083998
    69  H    0.130446
    70  H    0.099466
    71  H    0.099240
    72  H    0.103228
    73  H    0.129804
    74  H    0.110166
    75  H    0.106217
    76  H    0.135670
    77  H    0.137727
    78  H    0.120572
    79  H    0.124537
    80  H    0.106656
    81  H    0.092314
    82  H    0.077758
    83  H    0.113009
    84  H    0.127842
    85  H    0.082600
    86  H    0.121249
    87  H    0.121174
    88  H    0.114378
    89  H    0.105556
    90  H    0.107226
    91  H    0.113309
    92  H    0.133994
    93  H    0.146110
    94  H    0.116670
    95  H    0.166699
    96  H    0.115252
    97  H    0.159446
    98  H    0.142219
    99  H    0.132789
   100  H    0.121244
   101  H    0.082623
   102  H    0.087018
   103  H    0.131125
   104  H    0.125990
   105  H    0.096426
   106  H    0.087951
   107  H    0.097851
   108  H    0.095309
   109  H    0.056558
   110  H    0.102660
   111  H    0.092074
   112  H    0.119172
   113  H    0.066327
   114  H    0.119237
   115  H    0.069918
   116  H    0.063539
   117  H    0.100965
   118  H    0.082842
   119  H    0.090600
   120  H    0.094948
   121  H    0.084080
   122  H    0.114283
   123  H    0.107776
   124  H    0.090237
   125  H    0.063588
   126  H    0.103657
   127  H    0.077466
   128  H    0.103800
   129  H    0.093263
   130  H    0.074477
   131  H    0.067331
   132  H    0.101511
   133  H    0.108059
   134  H    0.108904
   135  H    0.111758
   136  H    0.071327
   137  H    0.085480
 Sum of Mulliken charges =   0.00000

 Dipole moment (field-independent basis, Debye):
    X=              1.6708    Y=              3.6873    Z=             -0.0130  Tot=              4.0482
 Quadrupole moment (field-independent basis, Debye-Ang):
   XX=           -346.5910   YY=           -386.5035   ZZ=           -398.4645
   XY=            -20.4941   XZ=             12.3832   YZ=             -1.5988

 Normal termination of Gaussian 09 at Fri Jul  5 01:43:44 2019.
