 Gaussian 16, Revision A.03,
 Gaussian 16:  ES64L-G16RevA.03 25-Dec-2016

 ----------------------------------------------------------------------
 # td=(NStates=1) iop(3/107=0140000000,3/108=0140000000) CAM-B3LYP/6-31
 G(d,p)
 ----------------------------------------------------------------------

 --
 TD
 --
 Symbolic Z-matrix:
 Charge =  0 Multiplicity = 1

                         Standard orientation:
 ---------------------------------------------------------------------
 Center     Atomic      Atomic             Coordinates (Angstroms)
 Number     Number       Type             X           Y           Z
 ---------------------------------------------------------------------
      1         12           0       -7.152576    0.651795   -0.019724
      2          6           0       -4.927514   -1.981527    0.537138
      3          6           0       -4.746204    2.918828    1.188932
      4          6           0       -9.346107    3.120174   -0.383877
      5          6           0       -9.549507   -1.770696   -0.920420
      6          7           0       -5.165175    0.443388    0.890373
      7          6           0       -4.318696   -0.722570    0.784949
      8          6           0       -2.986908   -0.414909    1.243123
      9          6           0       -2.986580    1.069643    1.775694
     10          6           0       -4.450964    1.471802    1.188766
     11          6           0       -3.003629    1.240214    3.247995
     12          6           0       -1.945007   -0.680447    0.083441
     13          6           0       -0.581805   -0.483923    0.620649
     14          6           0        0.561087   -0.747735   -0.427251
     15          8           0        0.195454   -1.101801   -1.499251
     16          8           0        1.815830   -0.366163   -0.101599
     17          7           0       -7.082823    2.676565    0.387126
     18          6           0       -6.048989    3.412102    0.822578
     19          6           0       -6.350141    4.871825    0.743968
     20          6           0       -7.619985    4.916213    0.392521
     21          6           0       -8.087532    3.511525    0.130427
     22          6           0       -5.403519    5.945077    0.993187
     23          6           0       -8.476800    6.056358    0.023513
     24          6           0       -8.203126    7.285307    0.544202
     25          7           0       -9.111802    0.591771   -0.506860
     26          6           0       -9.838125    1.838303   -0.665827
     27          6           0      -11.145849    1.526614   -1.103888
     28          6           0      -11.238381    0.151822   -1.184380
     29          6           0       -9.938208   -0.439949   -0.888879
     30          6           0      -12.231929    2.425404   -1.440445
     31          6           0      -12.411614   -0.730653   -1.709248
     32          6           0      -12.101145   -1.067924   -3.285708
     33          7           0       -7.297767   -1.371983   -0.130373
     34          6           0       -8.328705   -2.301435   -0.521773
     35          6           0       -7.800561   -3.610161   -0.486555
     36          6           0       -6.481256   -3.585985   -0.201100
     37          6           0       -6.217644   -2.179132    0.123971
     38          6           0       -8.683671   -4.865365   -0.886667
     39          6           0       -5.319116   -4.341086    0.179110
     40          8           0       -5.203741   -5.595471    0.157869
     41          6           0       -4.174026   -3.328732    0.466559
     42          6           0       -3.614497   -3.647413    1.829565
     43          8           0       -3.778686   -2.937479    2.853571
     44          8           0       -2.782177   -4.801715    1.804212
     45          6           0       -2.280041   -5.173292    2.986711
     46          6           0        2.803371   -0.655781   -1.115030
     47          6           0        4.067377   -0.479302   -0.503842
     48          6           0        5.151163    0.329070   -0.957694
     49          6           0        5.127609    1.024047   -2.233936
     50          6           0        6.463105    0.433777   -0.240068
     51          6           0        7.688473   -0.116396   -1.045315
     52          6           0        8.914239   -0.070435   -0.180859
     53          6           0       10.106302   -0.554957   -0.867989
     54          6           0       10.101822   -2.106447   -1.284680
     55          6           0       11.408886   -0.342679    0.056070
     56          6           0       12.745595   -0.417390   -0.755031
     57          6           0       13.896422   -0.130001    0.113009
     58          6           0       15.296137   -0.262099   -0.556525
     59          6           0       15.545439   -1.743509   -0.792461
     60          6           0       16.446908    0.414958    0.380086
     61          6           0       17.840797    0.557067   -0.142517
     62          6           0       18.792247    1.357388    0.651988
     63          6           0       20.224609    1.364015    0.183051
     64          6           0       20.268304    2.141486   -1.070845
     65          6           0       21.098271    1.978739    1.246525
     66          1           0       -4.011572    3.623837    1.667682
     67          1           0       -9.906819    3.996039   -0.509972
     68          1           0      -10.220905   -2.423922   -1.250709
     69          1           0       -2.639756   -1.160990    1.912225
     70          1           0       -2.159915    1.640704    1.534642
     71          1           0       -2.119982    0.822426    3.854843
     72          1           0       -3.136289    2.258091    3.509853
     73          1           0       -3.866956    0.879893    4.013160
     74          1           0       -1.979525   -1.751625   -0.115990
     75          1           0       -2.066716    0.013390   -0.789823
     76          1           0       -0.384855    0.400404    0.939046
     77          1           0       -0.293690   -1.052310    1.456806
     78          1           0       -5.558083    7.026282    0.426416
     79          1           0       -5.237712    6.161514    2.074701
     80          1           0       -4.313949    5.682322    0.483386
     81          1           0       -9.123439    6.025247   -0.724941
     82          1           0       -8.789640    8.166701    0.325773
     83          1           0       -7.679373    7.275641    1.570578
     84          1           0      -11.972485    3.186975   -2.216375
     85          1           0      -13.146853    1.637727   -1.545318
     86          1           0      -12.674485    3.043483   -0.646543
     87          1           0      -12.206915   -1.745592   -1.249234
     88          1           0      -13.347000   -0.172397   -1.666137
     89          1           0      -12.862425   -1.706024   -3.749611
     90          1           0      -12.112901   -0.321228   -4.003034
     91          1           0      -11.044322   -1.718729   -3.365283
     92          1           0       -9.151280   -4.617878   -1.914403
     93          1           0       -8.159667   -5.874231   -0.985321
     94          1           0       -9.565321   -5.029499   -0.088767
     95          1           0       -3.389706   -3.358313   -0.354675
     96          1           0       -1.697446   -4.393092    3.431586
     97          1           0       -2.830344   -5.519998    3.776300
     98          1           0       -1.554384   -6.065212    2.579273
     99          1           0        2.665493   -1.775025   -1.276990
    100          1           0        2.601239   -0.100077   -2.055740
    101          1           0        4.230017   -1.180441    0.524017
    102          1           0        4.211904    1.152181   -2.649648
    103          1           0        5.553184    2.004145   -2.016553
    104          1           0        5.908888    0.764373   -3.035582
    105          1           0        6.694355    1.514368    0.158747
    106          1           0        6.492583   -0.047664    0.823645
    107          1           0        7.438940   -1.287851   -1.345963
    108          1           0        7.866012    0.268099   -1.933140
    109          1           0        9.131998    0.947739    0.187438
    110          1           0        8.586102   -0.509378    0.760416
    111          1           0       10.055406   -0.131348   -2.069682
    112          1           0        9.404823   -2.222888   -2.181698
    113          1           0       11.238205   -2.438371   -1.568561
    114          1           0        9.840610   -2.848769   -0.507939
    115          1           0       11.459803    0.594586    0.507565
    116          1           0       11.306218   -1.198059    0.705756
    117          1           0       12.979922   -1.520280   -1.079231
    118          1           0       12.589784    0.241563   -1.651782
    119          1           0       13.816194    0.978490    0.610190
    120          1           0       14.018638   -0.846040    0.959675
    121          1           0       15.252396    0.262402   -1.721613
    122          1           0       15.473605   -2.346263    0.253333
    123          1           0       14.984141   -2.252221   -1.406435
    124          1           0       16.569418   -1.808907   -1.164003
    125          1           0       15.912889    1.379830    0.639493
    126          1           0       16.366796   -0.260002    1.247667
    127          1           0       18.313122   -0.406589   -0.426885
    128          1           0       17.674990    0.911855   -1.156136
    129          1           0       18.339189    2.470909    0.701531
    130          1           0       18.823101    0.996403    1.714122
    131          1           0       20.597493    0.306048    0.084744
    132          1           0       19.777428    3.105843   -0.854548
    133          1           0       21.308719    2.148401   -1.387920
    134          1           0       19.865914    1.612879   -1.792763
    135          1           0       21.022591    1.245905    2.119402
    136          1           0       22.166706    2.045738    1.122370
    137          1           0       20.864043    3.061119    1.709467
 ---------------------------------------------------------------------

 SCF Done:  E(RCAM-B3LYP) =  -2933.49746565     A.U. after   16 cycles

 Excitation energies and oscillator strengths:

 Excited State   1:      Singlet-A      2.0222 eV  613.11 nm  f=0.2502  <S**2>=0.000
     240 -> 243       -0.23775
     241 -> 242        0.66387
 This state for optimization and/or second-order correction.
 Total Energy, E(TD-HF/TD-DFT) =  -2933.42315024
 Copying the excited state density for this state as the 1-particle RhoCI density.

 The electronic state is 1-A.
 Alpha  occ. eigenvalues --  -46.80450 -19.22145 -19.22010 -19.18021 -19.16182
 Alpha  occ. eigenvalues --  -19.15548 -14.38215 -14.35778 -14.35179 -14.34566
 Alpha  occ. eigenvalues --  -10.35731 -10.33812 -10.30442 -10.27667 -10.27411
 Alpha  occ. eigenvalues --  -10.26567 -10.26075 -10.25691 -10.25442 -10.25172
 Alpha  occ. eigenvalues --  -10.24819 -10.24560 -10.24336 -10.24210 -10.24207
 Alpha  occ. eigenvalues --  -10.24155 -10.23806 -10.23771 -10.23745 -10.23556
 Alpha  occ. eigenvalues --  -10.23504 -10.23465 -10.23452 -10.23354 -10.23139
 Alpha  occ. eigenvalues --  -10.22948 -10.22599 -10.22498 -10.22387 -10.22374
 Alpha  occ. eigenvalues --  -10.22374 -10.22357 -10.22296 -10.22186 -10.21906
 Alpha  occ. eigenvalues --  -10.21906 -10.21867 -10.21768 -10.21753 -10.21701
 Alpha  occ. eigenvalues --  -10.21668 -10.21623 -10.21489 -10.21351 -10.21221
 Alpha  occ. eigenvalues --  -10.21153 -10.21141 -10.20921 -10.20861 -10.20856
 Alpha  occ. eigenvalues --  -10.20783 -10.20541 -10.20471 -10.19876 -10.18269
 Alpha  occ. eigenvalues --   -3.08945  -1.83876  -1.83443  -1.83319  -1.13448
 Alpha  occ. eigenvalues --   -1.12582  -1.05447  -1.04287  -1.03347  -1.00172
 Alpha  occ. eigenvalues --   -0.99032  -0.97273  -0.95692  -0.87860  -0.86448
 Alpha  occ. eigenvalues --   -0.86036  -0.85726  -0.85121  -0.84882  -0.83703
 Alpha  occ. eigenvalues --   -0.83530  -0.82674  -0.81882  -0.81520  -0.81297
 Alpha  occ. eigenvalues --   -0.80577  -0.79706  -0.78915  -0.78799  -0.77754
 Alpha  occ. eigenvalues --   -0.77421  -0.76332  -0.75681  -0.75254  -0.73173
 Alpha  occ. eigenvalues --   -0.72487  -0.71913  -0.71834  -0.71330  -0.71045
 Alpha  occ. eigenvalues --   -0.70511  -0.69915  -0.69510  -0.68442  -0.67714
 Alpha  occ. eigenvalues --   -0.66776  -0.66292  -0.65269  -0.64409  -0.64133
 Alpha  occ. eigenvalues --   -0.62969  -0.62892  -0.61580  -0.61216  -0.60387
 Alpha  occ. eigenvalues --   -0.60175  -0.59138  -0.58534  -0.58501  -0.58215
 Alpha  occ. eigenvalues --   -0.56841  -0.56655  -0.56468  -0.56122  -0.55762
 Alpha  occ. eigenvalues --   -0.54935  -0.54848  -0.54004  -0.53559  -0.53337
 Alpha  occ. eigenvalues --   -0.52312  -0.51939  -0.51431  -0.51400  -0.51010
 Alpha  occ. eigenvalues --   -0.50951  -0.50818  -0.50323  -0.49798  -0.49412
 Alpha  occ. eigenvalues --   -0.49327  -0.48883  -0.48755  -0.48451  -0.48290
 Alpha  occ. eigenvalues --   -0.47824  -0.47391  -0.47214  -0.46927  -0.46841
 Alpha  occ. eigenvalues --   -0.46662  -0.46442  -0.46246  -0.46163  -0.45780
 Alpha  occ. eigenvalues --   -0.45647  -0.45407  -0.45274  -0.45078  -0.45000
 Alpha  occ. eigenvalues --   -0.44574  -0.44441  -0.44048  -0.43920  -0.43313
 Alpha  occ. eigenvalues --   -0.43205  -0.42838  -0.42690  -0.42472  -0.42354
 Alpha  occ. eigenvalues --   -0.42030  -0.41963  -0.41671  -0.41508  -0.41380
 Alpha  occ. eigenvalues --   -0.41281  -0.40989  -0.40928  -0.40642  -0.40350
 Alpha  occ. eigenvalues --   -0.40263  -0.40085  -0.39848  -0.39719  -0.39607
 Alpha  occ. eigenvalues --   -0.39523  -0.39362  -0.39066  -0.38928  -0.38794
 Alpha  occ. eigenvalues --   -0.38709  -0.38628  -0.38465  -0.38169  -0.38082
 Alpha  occ. eigenvalues --   -0.37976  -0.37705  -0.37413  -0.37211  -0.37149
 Alpha  occ. eigenvalues --   -0.36862  -0.36715  -0.36247  -0.36010  -0.35774
 Alpha  occ. eigenvalues --   -0.35726  -0.35393  -0.35020  -0.35006  -0.34667
 Alpha  occ. eigenvalues --   -0.34630  -0.34218  -0.34164  -0.33625  -0.33509
 Alpha  occ. eigenvalues --   -0.33323  -0.33290  -0.32842  -0.32710  -0.32467
 Alpha  occ. eigenvalues --   -0.32317  -0.32237  -0.31720  -0.31243  -0.30669
 Alpha  occ. eigenvalues --   -0.30155  -0.29826  -0.29580  -0.28494  -0.27052
 Alpha  occ. eigenvalues --   -0.26559  -0.26123  -0.25696  -0.24932  -0.21873
 Alpha  occ. eigenvalues --   -0.19622
 Alpha virt. eigenvalues --   -0.06811  -0.04020  -0.01155   0.01229   0.02047
 Alpha virt. eigenvalues --    0.02145   0.03381   0.04752   0.05218   0.05772
 Alpha virt. eigenvalues --    0.07365   0.09019   0.09267   0.09338   0.09608

 Mulliken charges:
               1
     1  Mg   0.826871
     2  C    0.072363
     3  C   -0.200751
     4  C   -0.162624
     5  C   -0.167219
     6  N   -0.611779
     7  C    0.295030
     8  C   -0.168035
     9  C   -0.116332
    10  C    0.337596
    11  C   -0.317955
    12  C   -0.171792
    13  C   -0.263121
    14  C    0.573107
    15  O   -0.446844
    16  O   -0.465755
    17  N   -0.700324
    18  C    0.292491
    19  C    0.091983
    20  C    0.002785
    21  C    0.293398
    22  C   -0.402700
    23  C   -0.063267
    24  C   -0.251085
    25  N   -0.727826
    26  C    0.296002
    27  C    0.071829
    28  C    0.010040
    29  C    0.333871
    30  C   -0.385354
    31  C   -0.236118
    32  C   -0.313986
    33  N   -0.732299
    34  C    0.297033
    35  C   -0.002832
    36  C    0.060300
    37  C    0.293088
    38  C   -0.370603
    39  C    0.355571
    40  O   -0.483213
    41  C   -0.327438
    42  C    0.623400
    43  O   -0.462985
    44  O   -0.424513
    45  C   -0.074832
    46  C    0.008823
    47  C   -0.118718
    48  C    0.134984
    49  C   -0.370270
    50  C   -0.242823
    51  C   -0.157992
    52  C   -0.148261
    53  C   -0.051115
    54  C   -0.317425
    55  C   -0.176394
    56  C   -0.166709
    57  C   -0.148739
    58  C   -0.066352
    59  C   -0.294013
    60  C   -0.164505
    61  C   -0.176741
    62  C   -0.142812
    63  C   -0.065420
    64  C   -0.279024
    65  C   -0.303452
    66  H    0.090582
    67  H    0.066614
    68  H    0.059385
    69  H    0.127358
    70  H    0.110277
    71  H    0.101807
    72  H    0.112749
    73  H    0.102435
    74  H    0.114158
    75  H    0.115179
    76  H    0.129976
    77  H    0.123771
    78  H    0.114211
    79  H    0.130014
    80  H    0.091692
    81  H    0.098901
    82  H    0.100381
    83  H    0.100957
    84  H    0.121404
    85  H    0.084483
    86  H    0.121683
    87  H    0.117274
    88  H    0.107877
    89  H    0.099592
    90  H    0.123571
    91  H    0.080297
    92  H    0.112429
    93  H    0.142261
    94  H    0.109071
    95  H    0.177674
    96  H    0.106315
    97  H    0.131608
    98  H    0.091982
    99  H    0.120947
   100  H    0.123995
   101  H    0.075331
   102  H    0.115735
   103  H    0.117264
   104  H    0.118752
   105  H    0.092106
   106  H    0.090663
   107  H    0.074389
   108  H    0.104358
   109  H    0.088609
   110  H    0.094376
   111  H    0.047046
   112  H    0.095977
   113  H    0.082257
   114  H    0.102298
   115  H    0.097939
   116  H    0.106092
   117  H    0.080758
   118  H    0.098600
   119  H    0.051513
   120  H    0.089870
   121  H    0.035965
   122  H    0.067335
   123  H    0.119864
   124  H    0.099114
   125  H    0.088011
   126  H    0.088275
   127  H    0.086435
   128  H    0.099738
   129  H    0.066600
   130  H    0.081108
   131  H    0.083392
   132  H    0.100584
   133  H    0.089302
   134  H    0.110137
   135  H    0.085371
   136  H    0.102779
   137  H    0.080931
 Sum of Mulliken charges =  -0.00000

 Dipole moment (field-independent basis, Debye):
    X=              2.6494    Y=              5.3021    Z=             -0.6547  Tot=              5.9632
 Quadrupole moment (field-independent basis, Debye-Ang):
   XX=           -346.4060   YY=           -398.9456   ZZ=           -395.9320
   XY=            -33.8169   XZ=             12.6659   YZ=             -1.3277

 Normal termination of Gaussian 16 at Fri Sep  6 18:00:45 2019.
