 Gaussian 16, Revision A.03,
 Gaussian 16:  ES64L-G16RevA.03 25-Dec-2016

 ----------------------------------------------------------------------
 # td=(NStates=1) iop(3/107=0140000000,3/108=0140000000) CAM-B3LYP/6-31
 G(d,p)
 ----------------------------------------------------------------------

 --
 TD
 --
 Symbolic Z-matrix:
 Charge =  0 Multiplicity = 1

                         Standard orientation:
 ---------------------------------------------------------------------
 Center     Atomic      Atomic             Coordinates (Angstroms)
 Number     Number       Type             X           Y           Z
 ---------------------------------------------------------------------
      1         12           0       -7.106949    0.562655   -0.012382
      2          6           0       -4.865087   -1.928919    0.354914
      3          6           0       -4.763396    2.790160    1.138543
      4          6           0       -9.351080    3.162100   -0.433923
      5          6           0       -9.542064   -1.663818   -1.112693
      6          7           0       -5.071227    0.383267    0.675747
      7          6           0       -4.333521   -0.685096    0.676119
      8          6           0       -3.037607   -0.446078    1.204893
      9          6           0       -3.033549    1.014237    1.718704
     10          6           0       -4.359006    1.508349    1.123207
     11          6           0       -2.981813    1.184681    3.303593
     12          6           0       -1.890400   -0.655396    0.066205
     13          6           0       -0.441655   -0.609447    0.639328
     14          6           0        0.551530   -0.655659   -0.417043
     15          8           0        0.264940   -0.922103   -1.610366
     16          8           0        1.784971   -0.451322   -0.081334
     17          7           0       -7.104386    2.697909    0.351364
     18          6           0       -5.954815    3.343351    0.795660
     19          6           0       -6.355802    4.783554    0.907443
     20          6           0       -7.612956    4.882875    0.463693
     21          6           0       -8.071232    3.587719    0.072205
     22          6           0       -5.372051    5.898627    1.180855
     23          6           0       -8.453365    6.036884    0.243191
     24          6           0       -8.428418    7.281795    0.902657
     25          7           0       -9.081009    0.653820   -0.604298
     26          6           0       -9.727784    1.802869   -0.743976
     27          6           0      -11.133927    1.596065   -1.208018
     28          6           0      -11.206379    0.188519   -1.398401
     29          6           0       -9.905547   -0.354544   -1.017566
     30          6           0      -12.154765    2.621614   -1.543674
     31          6           0      -12.428857   -0.678123   -1.775717
     32          6           0      -12.201440   -1.191949   -3.157834
     33          7           0       -7.197378   -1.366578   -0.220643
     34          6           0       -8.280354   -2.193322   -0.626459
     35          6           0       -7.898011   -3.529067   -0.567344
     36          6           0       -6.519840   -3.581501   -0.221220
     37          6           0       -6.201461   -2.180031    0.022846
     38          6           0       -8.795298   -4.674886   -1.065572
     39          6           0       -5.359601   -4.342837    0.296904
     40          8           0       -5.323452   -5.581700    0.551113
     41          6           0       -4.273055   -3.283866    0.583769
     42          6           0       -3.731249   -3.719094    2.063194
     43          8           0       -3.911499   -3.196769    3.061414
     44          8           0       -2.978614   -4.775200    1.800914
     45          6           0       -2.416836   -5.308177    2.982420
     46          6           0        2.759749   -0.642771   -1.094911
     47          6           0        4.160324   -0.467814   -0.486273
     48          6           0        5.137383    0.381178   -0.880587
     49          6           0        4.991797    1.156703   -2.222902
     50          6           0        6.392080    0.385722   -0.219354
     51          6           0        7.628950   -0.234416   -0.876812
     52          6           0        8.959387   -0.312813   -0.063391
     53          6           0       10.199124   -0.679245   -0.887852
     54          6           0       10.153228   -2.087088   -1.453214
     55          6           0       11.475553   -0.413323   -0.010612
     56          6           0       12.890599   -0.496274   -0.694293
     57          6           0       13.980250   -0.153053    0.172556
     58          6           0       15.387903   -0.209046   -0.509984
     59          6           0       15.736688   -1.634328   -0.854224
     60          6           0       16.440070    0.433398    0.308360
     61          6           0       17.804962    0.691829   -0.218179
     62          6           0       18.782077    1.377256    0.627067
     63          6           0       20.285104    1.362570    0.232213
     64          6           0       20.489426    2.245972   -1.127554
     65          6           0       21.205457    1.806174    1.320940
     66          1           0       -4.083299    3.490928    1.654173
     67          1           0      -10.009365    3.973431   -0.469207
     68          1           0      -10.378828   -2.497175   -1.152147
     69          1           0       -2.700403   -1.365711    1.858538
     70          1           0       -2.249016    1.732069    1.284682
     71          1           0       -2.187468    0.830586    3.725447
     72          1           0       -3.269811    2.174386    3.562583
     73          1           0       -3.803508    0.679700    3.695984
     74          1           0       -2.068291   -1.709102   -0.119627
     75          1           0       -2.155986    0.085046   -0.947436
     76          1           0       -0.254237    0.285256    1.360026
     77          1           0       -0.163891   -1.358847    1.251400
     78          1           0       -5.522609    6.935600    0.815055
     79          1           0       -5.437298    6.033571    2.302379
     80          1           0       -4.237020    5.445337    1.101788
     81          1           0       -9.390076    5.831577   -0.344110
     82          1           0       -9.069649    8.164659    0.647426
     83          1           0       -7.812959    7.516363    1.815322
     84          1           0      -11.703516    3.337535   -2.334761
     85          1           0      -13.057255    2.046716   -1.891451
     86          1           0      -12.538898    3.170161   -0.519089
     87          1           0      -12.625662   -1.574403   -1.272246
     88          1           0      -13.391151   -0.114272   -1.728855
     89          1           0      -13.279263   -1.681930   -3.455808
     90          1           0      -12.086974   -0.445126   -4.139037
     91          1           0      -11.348383   -1.686909   -3.221229
     92          1           0       -9.061538   -4.321826   -2.119621
     93          1           0       -8.076599   -5.612736   -1.283375
     94          1           0       -9.605365   -4.950107   -0.346963
     95          1           0       -3.447082   -3.254208   -0.112198
     96          1           0       -1.762730   -4.499664    3.369351
     97          1           0       -3.343091   -5.548122    3.579009
     98          1           0       -1.759567   -6.111364    2.679101
     99          1           0        2.601261   -1.440723   -1.321579
    100          1           0        2.640780    0.106777   -1.973856
    101          1           0        4.536290   -1.247454    0.308114
    102          1           0        3.974098    1.354542   -2.634525
    103          1           0        5.470032    2.087070   -2.197222
    104          1           0        5.636967    0.398258   -2.878297
    105          1           0        6.584595    1.479570   -0.124658
    106          1           0        6.240636   -0.032419    0.746617
    107          1           0        7.227303   -1.232568   -1.140238
    108          1           0        7.787896    0.198697   -1.996912
    109          1           0        9.203452    0.744337    0.220593
    110          1           0        8.840763   -0.910116    0.904777
    111          1           0       10.281045   -0.004481   -1.866182
    112          1           0        9.207642   -2.451608   -1.981976
    113          1           0       10.925995   -2.412501   -2.073088
    114          1           0       10.317181   -2.644164   -0.680200
    115          1           0       11.267937    0.543927    0.507937
    116          1           0       11.518663   -1.180841    0.824057
    117          1           0       12.889736   -1.524003   -1.043065
    118          1           0       12.868521    0.204908   -1.510449
    119          1           0       13.592663    0.722205    0.592969
    120          1           0       13.975329   -0.806328    0.992893
    121          1           0       15.104654    0.277367   -1.346352
    122          1           0       15.614044   -2.088625    0.181760
    123          1           0       15.062965   -2.026579   -1.663567
    124          1           0       16.807977   -1.654678   -1.100285
    125          1           0       15.948238    1.441661    0.596766
    126          1           0       16.377532   -0.010893    1.355009
    127          1           0       18.212272   -0.348197   -0.359250
    128          1           0       17.531829    1.217442   -1.296537
    129          1           0       18.452065    2.501550    0.678462
    130          1           0       18.679346    1.232865    1.783937
    131          1           0       20.565312    0.245052   -0.113770
    132          1           0       20.182709    3.370020   -1.144399
    133          1           0       21.555474    1.990729   -1.517052
    134          1           0       19.739598    1.867536   -2.039089
    135          1           0       21.103271    1.412457    2.302191
    136          1           0       22.244832    1.885612    0.853725
    137          1           0       20.903974    2.744855    1.795725
 ---------------------------------------------------------------------

 SCF Done:  E(RCAM-B3LYP) =  -2933.45102439     A.U. after   16 cycles

 Excitation energies and oscillator strengths:

 Excited State   1:      Singlet-A      2.0076 eV  617.58 nm  f=0.2984  <S**2>=0.000
     240 -> 243        0.22621
     241 -> 242        0.66158
 This state for optimization and/or second-order correction.
 Total Energy, E(TD-HF/TD-DFT) =  -2933.37724692
 Copying the excited state density for this state as the 1-particle RhoCI density.

 The electronic state is 1-A.
 Alpha  occ. eigenvalues --  -46.80251 -19.22114 -19.21497 -19.17736 -19.14816
 Alpha  occ. eigenvalues --  -19.14576 -14.37547 -14.35364 -14.35295 -14.34498
 Alpha  occ. eigenvalues --  -10.34222 -10.33598 -10.29964 -10.26753 -10.26341
 Alpha  occ. eigenvalues --  -10.25843 -10.25625 -10.25537 -10.25278 -10.24805
 Alpha  occ. eigenvalues --  -10.24673 -10.24470 -10.24463 -10.24410 -10.23876
 Alpha  occ. eigenvalues --  -10.23800 -10.23767 -10.23688 -10.23648 -10.23554
 Alpha  occ. eigenvalues --  -10.23495 -10.23453 -10.23243 -10.23186 -10.23177
 Alpha  occ. eigenvalues --  -10.23176 -10.23132 -10.23096 -10.23027 -10.22891
 Alpha  occ. eigenvalues --  -10.22835 -10.22819 -10.22735 -10.22645 -10.22453
 Alpha  occ. eigenvalues --  -10.22346 -10.22217 -10.22117 -10.22112 -10.21997
 Alpha  occ. eigenvalues --  -10.21878 -10.21706 -10.21680 -10.21636 -10.21544
 Alpha  occ. eigenvalues --  -10.21373 -10.20898 -10.20739 -10.20454 -10.20450
 Alpha  occ. eigenvalues --  -10.20145 -10.20103 -10.19734 -10.18815 -10.18569
 Alpha  occ. eigenvalues --   -3.08810  -1.83757  -1.83264  -1.83224  -1.16058
 Alpha  occ. eigenvalues --   -1.15002  -1.08027  -1.02274  -1.01633  -1.00495
 Alpha  occ. eigenvalues --   -0.99030  -0.98437  -0.97810  -0.87210  -0.87054
 Alpha  occ. eigenvalues --   -0.86809  -0.84844  -0.84566  -0.84495  -0.83738
 Alpha  occ. eigenvalues --   -0.83381  -0.83341  -0.82521  -0.82186  -0.81548
 Alpha  occ. eigenvalues --   -0.80589  -0.79747  -0.78775  -0.78465  -0.77369
 Alpha  occ. eigenvalues --   -0.77094  -0.76685  -0.76320  -0.75880  -0.74115
 Alpha  occ. eigenvalues --   -0.72688  -0.72665  -0.72001  -0.71211  -0.70930
 Alpha  occ. eigenvalues --   -0.70855  -0.70140  -0.69654  -0.69258  -0.68047
 Alpha  occ. eigenvalues --   -0.67591  -0.66406  -0.65073  -0.64403  -0.63359
 Alpha  occ. eigenvalues --   -0.62832  -0.62521  -0.61861  -0.60768  -0.60572
 Alpha  occ. eigenvalues --   -0.59985  -0.59482  -0.59419  -0.58296  -0.58129
 Alpha  occ. eigenvalues --   -0.58094  -0.56716  -0.55856  -0.55469  -0.55081
 Alpha  occ. eigenvalues --   -0.54817  -0.54374  -0.54244  -0.53717  -0.53226
 Alpha  occ. eigenvalues --   -0.52900  -0.52489  -0.51959  -0.51288  -0.50971
 Alpha  occ. eigenvalues --   -0.50815  -0.50650  -0.50440  -0.50044  -0.49330
 Alpha  occ. eigenvalues --   -0.49212  -0.48972  -0.48885  -0.48408  -0.47818
 Alpha  occ. eigenvalues --   -0.47659  -0.47442  -0.47200  -0.47127  -0.46937
 Alpha  occ. eigenvalues --   -0.46694  -0.46530  -0.46457  -0.46339  -0.46019
 Alpha  occ. eigenvalues --   -0.45689  -0.45549  -0.45395  -0.45139  -0.45075
 Alpha  occ. eigenvalues --   -0.44813  -0.44397  -0.44362  -0.44176  -0.43986
 Alpha  occ. eigenvalues --   -0.43847  -0.43209  -0.42824  -0.42584  -0.42417
 Alpha  occ. eigenvalues --   -0.42272  -0.42071  -0.41898  -0.41792  -0.41661
 Alpha  occ. eigenvalues --   -0.41445  -0.41342  -0.41231  -0.41175  -0.40819
 Alpha  occ. eigenvalues --   -0.40675  -0.40499  -0.40245  -0.40145  -0.39827
 Alpha  occ. eigenvalues --   -0.39609  -0.39253  -0.39072  -0.38996  -0.38906
 Alpha  occ. eigenvalues --   -0.38507  -0.38370  -0.38265  -0.38101  -0.37990
 Alpha  occ. eigenvalues --   -0.37842  -0.37703  -0.37421  -0.37295  -0.36637
 Alpha  occ. eigenvalues --   -0.36464  -0.36424  -0.36262  -0.35971  -0.35934
 Alpha  occ. eigenvalues --   -0.35784  -0.35596  -0.35415  -0.35127  -0.34591
 Alpha  occ. eigenvalues --   -0.34119  -0.33876  -0.33871  -0.33832  -0.33718
 Alpha  occ. eigenvalues --   -0.33486  -0.33207  -0.32947  -0.32843  -0.32422
 Alpha  occ. eigenvalues --   -0.32397  -0.32104  -0.31741  -0.31470  -0.31047
 Alpha  occ. eigenvalues --   -0.30297  -0.29680  -0.28916  -0.27942  -0.26749
 Alpha  occ. eigenvalues --   -0.26491  -0.25834  -0.25394  -0.24453  -0.21606
 Alpha  occ. eigenvalues --   -0.19897
 Alpha virt. eigenvalues --   -0.07378  -0.03835  -0.00125   0.01747   0.03901
 Alpha virt. eigenvalues --    0.04247   0.04504   0.04747   0.05255   0.06186
 Alpha virt. eigenvalues --    0.06432   0.08973   0.09305   0.09851   0.09878

 Mulliken charges:
               1
     1  Mg   0.820914
     2  C    0.025711
     3  C   -0.183077
     4  C   -0.153879
     5  C   -0.197038
     6  N   -0.661224
     7  C    0.435291
     8  C   -0.205420
     9  C   -0.142145
    10  C    0.308736
    11  C   -0.309822
    12  C   -0.156503
    13  C   -0.268584
    14  C    0.603979
    15  O   -0.518842
    16  O   -0.447876
    17  N   -0.709094
    18  C    0.316016
    19  C    0.014644
    20  C    0.054832
    21  C    0.300758
    22  C   -0.377877
    23  C   -0.097169
    24  C   -0.263976
    25  N   -0.694168
    26  C    0.324249
    27  C    0.018568
    28  C    0.018242
    29  C    0.319678
    30  C   -0.371657
    31  C   -0.231845
    32  C   -0.290937
    33  N   -0.750015
    34  C    0.279480
    35  C   -0.027976
    36  C    0.028290
    37  C    0.295407
    38  C   -0.378333
    39  C    0.370957
    40  O   -0.498004
    41  C   -0.303598
    42  C    0.576878
    43  O   -0.422981
    44  O   -0.405364
    45  C   -0.085806
    46  C    0.108184
    47  C   -0.167782
    48  C    0.127704
    49  C   -0.356254
    50  C   -0.223592
    51  C   -0.177567
    52  C   -0.162118
    53  C   -0.054662
    54  C   -0.312953
    55  C   -0.198861
    56  C   -0.183264
    57  C   -0.166948
    58  C   -0.053111
    59  C   -0.301465
    60  C   -0.173380
    61  C   -0.144280
    62  C   -0.168065
    63  C   -0.022847
    64  C   -0.304984
    65  C   -0.307428
    66  H    0.081074
    67  H    0.076617
    68  H    0.099419
    69  H    0.103561
    70  H    0.101865
    71  H    0.120421
    72  H    0.107213
    73  H    0.130880
    74  H    0.115763
    75  H    0.104465
    76  H    0.121832
    77  H    0.146462
    78  H    0.133791
    79  H    0.120183
    80  H    0.093668
    81  H    0.088563
    82  H    0.105082
    83  H    0.100438
    84  H    0.124970
    85  H    0.116204
    86  H    0.102347
    87  H    0.124348
    88  H    0.099319
    89  H    0.073753
    90  H    0.073312
    91  H    0.130344
    92  H    0.124291
    93  H    0.125481
    94  H    0.129578
    95  H    0.156908
    96  H    0.112514
    97  H    0.137239
    98  H    0.128497
    99  H    0.092425
   100  H    0.105058
   101  H    0.066182
   102  H    0.118003
   103  H    0.117109
   104  H    0.116851
   105  H    0.094640
   106  H    0.107588
   107  H    0.097070
   108  H    0.073416
   109  H    0.095284
   110  H    0.091943
   111  H    0.066672
   112  H    0.091580
   113  H    0.105874
   114  H    0.112122
   115  H    0.082876
   116  H    0.080622
   117  H    0.094883
   118  H    0.092370
   119  H    0.090417
   120  H    0.083601
   121  H    0.086062
   122  H    0.091208
   123  H    0.101432
   124  H    0.103288
   125  H    0.070424
   126  H    0.076084
   127  H    0.089183
   128  H    0.077816
   129  H    0.076482
   130  H    0.077477
   131  H    0.070474
   132  H    0.103151
   133  H    0.094272
   134  H    0.075726
   135  H    0.107375
   136  H    0.099554
   137  H    0.097259
 Sum of Mulliken charges =  -0.00000

 Dipole moment (field-independent basis, Debye):
    X=              3.2104    Y=              4.5481    Z=              1.5855  Tot=              5.7884
 Quadrupole moment (field-independent basis, Debye-Ang):
   XX=           -351.6468   YY=           -401.0186   ZZ=           -397.3954
   XY=            -22.2709   XZ=             12.1650   YZ=              0.5327

 Normal termination of Gaussian 16 at Wed Sep  4 17:07:09 2019.
