 Gaussian 16, Revision A.03,
 Gaussian 16:  ES64L-G16RevA.03 25-Dec-2016

 ----------------------------------------------------------------------
 # td=(NStates=1) iop(3/107=0140000000,3/108=0140000000) CAM-B3LYP/6-31
 G(d,p)
 ----------------------------------------------------------------------

 --
 TD
 --
 Symbolic Z-matrix:
 Charge =  0 Multiplicity = 1

                         Standard orientation:
 ---------------------------------------------------------------------
 Center     Atomic      Atomic             Coordinates (Angstroms)
 Number     Number       Type             X           Y           Z
 ---------------------------------------------------------------------
      1         12           0       -7.132820    0.628668    0.067735
      2          6           0       -4.857294   -1.987398    0.514770
      3          6           0       -4.769062    2.761463    1.026063
      4          6           0       -9.421562    3.198815   -0.367565
      5          6           0       -9.459258   -1.628961   -0.916249
      6          7           0       -5.131399    0.358769    0.790636
      7          6           0       -4.360493   -0.680798    0.777002
      8          6           0       -2.943159   -0.450236    1.183419
      9          6           0       -2.982114    1.005719    1.610861
     10          6           0       -4.402565    1.463360    1.089179
     11          6           0       -2.812907    1.078368    3.267085
     12          6           0       -1.809370   -0.833058    0.125098
     13          6           0       -0.452158   -0.538674    0.536633
     14          6           0        0.547723   -0.792294   -0.504427
     15          8           0        0.229183   -1.204733   -1.594455
     16          8           0        1.739152   -0.429857   -0.186389
     17          7           0       -7.050995    2.628523    0.277357
     18          6           0       -5.976696    3.379578    0.708909
     19          6           0       -6.269445    4.760717    0.808291
     20          6           0       -7.632604    4.832735    0.356488
     21          6           0       -8.124048    3.506950    0.025063
     22          6           0       -5.388808    5.877809    1.177795
     23          6           0       -8.327190    6.099836    0.286689
     24          6           0       -8.206391    7.381678    0.935457
     25          7           0       -9.054339    0.714327   -0.637856
     26          6           0       -9.746482    1.917884   -0.800937
     27          6           0      -11.197539    1.601824   -1.233189
     28          6           0      -11.228542    0.210804   -1.454292
     29          6           0       -9.889619   -0.325021   -1.043416
     30          6           0      -12.353166    2.608208   -1.364042
     31          6           0      -12.324947   -0.703328   -1.771451
     32          6           0      -12.324993   -1.070361   -3.277149
     33          7           0       -7.244053   -1.375470   -0.261376
     34          6           0       -8.239977   -2.215845   -0.542500
     35          6           0       -7.940285   -3.577648   -0.454647
     36          6           0       -6.532041   -3.556650   -0.078186
     37          6           0       -6.198103   -2.098335    0.099243
     38          6           0       -8.659600   -4.833700   -0.759900
     39          6           0       -5.373831   -4.439869    0.245300
     40          8           0       -5.267089   -5.617114    0.225759
     41          6           0       -4.324028   -3.330068    0.507255
     42          6           0       -3.610830   -3.647404    1.907458
     43          8           0       -3.694933   -3.058458    2.936032
     44          8           0       -2.817570   -4.769443    1.740332
     45          6           0       -2.144889   -5.137664    3.038157
     46          6           0        2.899163   -0.728344   -1.197409
     47          6           0        4.162621   -0.576087   -0.417249
     48          6           0        5.048856    0.349558   -0.874646
     49          6           0        4.936554    1.221549   -2.041486
     50          6           0        6.414382    0.490990   -0.077011
     51          6           0        7.655296   -0.232772   -0.884588
     52          6           0        8.886873   -0.173092   -0.069309
     53          6           0       10.112926   -0.553909   -0.879958
     54          6           0       10.036631   -2.074024   -1.377330
     55          6           0       11.410349   -0.439499    0.096374
     56          6           0       12.731523   -0.576977   -0.763422
     57          6           0       13.960486   -0.128145    0.143040
     58          6           0       15.239755   -0.182486   -0.624066
     59          6           0       15.646098   -1.609106   -0.956255
     60          6           0       16.397527    0.451102    0.365856
     61          6           0       17.816780    0.661475   -0.309993
     62          6           0       18.754400    1.308147    0.658994
     63          6           0       20.182372    1.462779    0.098935
     64          6           0       20.291526    2.280599   -1.096861
     65          6           0       21.043760    2.043972    1.349883
     66          1           0       -4.071660    3.704422    1.552441
     67          1           0      -10.177376    3.985757   -0.536333
     68          1           0      -10.224021   -2.367259   -1.388807
     69          1           0       -2.802478   -1.063298    2.119971
     70          1           0       -2.189563    1.550072    1.170436
     71          1           0       -1.666175    0.920155    3.374647
     72          1           0       -3.002353    2.153903    3.653420
     73          1           0       -3.434165    0.322784    3.729807
     74          1           0       -1.744554   -1.985352    0.095105
     75          1           0       -2.112437   -0.470786   -0.873757
     76          1           0       -0.272108    0.436914    0.827213
     77          1           0       -0.248341   -1.153231    1.459466
     78          1           0       -5.580624    6.771306    0.600218
     79          1           0       -5.620244    6.230505    2.209815
     80          1           0       -4.382635    5.610186    1.191212
     81          1           0       -9.331181    6.019562   -0.186805
     82          1           0       -8.859469    8.208205    0.583462
     83          1           0       -7.352542    7.533999    1.507222
     84          1           0      -12.145881    3.639371   -2.087966
     85          1           0      -13.363592    2.289218   -1.679236
     86          1           0      -12.294147    3.195716   -0.402398
     87          1           0      -12.129694   -1.786076   -1.142068
     88          1           0      -13.142784   -0.128887   -1.301212
     89          1           0      -13.137845   -1.738014   -3.600383
     90          1           0      -12.295830   -0.177587   -3.984577
     91          1           0      -11.538308   -1.685141   -3.489922
     92          1           0       -9.245636   -4.769533   -1.663546
     93          1           0       -7.824313   -5.642417   -0.916006
     94          1           0       -9.357059   -5.226817    0.155873
     95          1           0       -3.389250   -3.694474   -0.249065
     96          1           0       -1.158724   -4.538056    3.183645
     97          1           0       -2.857108   -5.435194    3.809353
     98          1           0       -1.826280   -6.271775    2.762784
     99          1           0        2.834155   -1.745428   -1.555945
    100          1           0        2.670905   -0.313570   -1.924146
    101          1           0        4.406549   -1.195299    0.384762
    102          1           0        3.948400    1.174508   -2.398577
    103          1           0        5.218248    2.248007   -1.661669
    104          1           0        5.653222    0.915726   -2.732466
    105          1           0        6.489144    1.623662   -0.036338
    106          1           0        6.323318    0.034770    0.904485
    107          1           0        7.521628   -1.251421   -1.329748
    108          1           0        7.682294    0.285120   -1.880931
    109          1           0        9.130950    0.838855    0.332616
    110          1           0        8.622536   -0.893368    0.691712
    111          1           0       10.279882   -0.192688   -1.936265
    112          1           0        9.145063   -2.115001   -2.178348
    113          1           0       11.042864   -2.302320   -1.751166
    114          1           0        9.914710   -2.900568   -0.482096
    115          1           0       11.169481    0.647707    0.595522
    116          1           0       11.367755   -1.176616    0.850108
    117          1           0       12.781999   -1.622307   -1.029819
    118          1           0       12.594275   -0.067162   -1.879285
    119          1           0       13.658161    0.826092    0.485941
    120          1           0       14.065604   -0.811914    1.020813
    121          1           0       15.092619    0.320331   -1.616499
    122          1           0       15.935160   -2.114704    0.277336
    123          1           0       14.775732   -2.268897   -1.216979
    124          1           0       16.496827   -1.841217   -1.570040
    125          1           0       16.024407    1.551446    0.428261
    126          1           0       16.329170   -0.184451    1.389086
    127          1           0       18.038506   -0.214542   -0.516469
    128          1           0       17.632119    1.312406   -1.183247
    129          1           0       18.281894    2.169715    0.929522
    130          1           0       18.839447    0.529402    1.545218
    131          1           0       20.447681    0.447719   -0.028215
    132          1           0       20.008446    3.326342   -0.824018
    133          1           0       21.338902    2.433930   -1.396766
    134          1           0       19.588340    1.743217   -1.797950
    135          1           0       20.833693    1.197559    2.089036
    136          1           0       22.147019    1.977747    1.003759
    137          1           0       20.547040    2.973814    1.739832
 ---------------------------------------------------------------------

 SCF Done:  E(RCAM-B3LYP) =  -2933.45133179     A.U. after   16 cycles

 Excitation energies and oscillator strengths:

 Excited State   1:      Singlet-A      1.9731 eV  628.39 nm  f=0.3367  <S**2>=0.000
     240 -> 242       -0.11148
     240 -> 243        0.21076
     241 -> 242        0.66138
 This state for optimization and/or second-order correction.
 Total Energy, E(TD-HF/TD-DFT) =  -2933.37882322
 Copying the excited state density for this state as the 1-particle RhoCI density.

 The electronic state is 1-A.
 Alpha  occ. eigenvalues --  -46.79941 -19.21408 -19.21033 -19.17207 -19.16306
 Alpha  occ. eigenvalues --  -19.14227 -14.37863 -14.35504 -14.35137 -14.34858
 Alpha  occ. eigenvalues --  -10.34132 -10.32357 -10.30212 -10.28375 -10.26103
 Alpha  occ. eigenvalues --  -10.26082 -10.25987 -10.25481 -10.25160 -10.25019
 Alpha  occ. eigenvalues --  -10.24824 -10.24675 -10.24514 -10.24415 -10.24249
 Alpha  occ. eigenvalues --  -10.23732 -10.23536 -10.23527 -10.23378 -10.23194
 Alpha  occ. eigenvalues --  -10.23149 -10.23014 -10.22902 -10.22878 -10.22854
 Alpha  occ. eigenvalues --  -10.22809 -10.22775 -10.22737 -10.22690 -10.22680
 Alpha  occ. eigenvalues --  -10.22672 -10.22515 -10.22415 -10.22408 -10.22395
 Alpha  occ. eigenvalues --  -10.22380 -10.22358 -10.22273 -10.22207 -10.22168
 Alpha  occ. eigenvalues --  -10.22082 -10.21906 -10.21682 -10.21529 -10.21407
 Alpha  occ. eigenvalues --  -10.21341 -10.21271 -10.21184 -10.21004 -10.20866
 Alpha  occ. eigenvalues --  -10.20801 -10.20536 -10.20191 -10.19997 -10.19015
 Alpha  occ. eigenvalues --   -3.08574  -1.83512  -1.83055  -1.82976  -1.12765
 Alpha  occ. eigenvalues --   -1.12035  -1.07870  -1.03793  -1.02670  -1.01180
 Alpha  occ. eigenvalues --   -0.99738  -0.97165  -0.95660  -0.87683  -0.86662
 Alpha  occ. eigenvalues --   -0.85433  -0.85063  -0.84640  -0.84067  -0.83546
 Alpha  occ. eigenvalues --   -0.83097  -0.82892  -0.82018  -0.81705  -0.80992
 Alpha  occ. eigenvalues --   -0.79662  -0.79043  -0.78589  -0.77649  -0.77575
 Alpha  occ. eigenvalues --   -0.77046  -0.75162  -0.74672  -0.74575  -0.72844
 Alpha  occ. eigenvalues --   -0.72599  -0.72163  -0.71825  -0.70654  -0.70578
 Alpha  occ. eigenvalues --   -0.70288  -0.69519  -0.69283  -0.68467  -0.68263
 Alpha  occ. eigenvalues --   -0.66655  -0.66327  -0.65329  -0.65055  -0.63813
 Alpha  occ. eigenvalues --   -0.62678  -0.62400  -0.61391  -0.60396  -0.60330
 Alpha  occ. eigenvalues --   -0.59376  -0.59091  -0.58911  -0.58727  -0.57748
 Alpha  occ. eigenvalues --   -0.56835  -0.56525  -0.56049  -0.55377  -0.55029
 Alpha  occ. eigenvalues --   -0.54478  -0.53873  -0.53612  -0.52898  -0.51829
 Alpha  occ. eigenvalues --   -0.51753  -0.51536  -0.51372  -0.50862  -0.50676
 Alpha  occ. eigenvalues --   -0.50273  -0.50164  -0.49998  -0.49516  -0.49302
 Alpha  occ. eigenvalues --   -0.48810  -0.48312  -0.48041  -0.48024  -0.47826
 Alpha  occ. eigenvalues --   -0.47780  -0.47524  -0.46838  -0.46787  -0.46360
 Alpha  occ. eigenvalues --   -0.46349  -0.46250  -0.46140  -0.45783  -0.45727
 Alpha  occ. eigenvalues --   -0.45673  -0.45535  -0.45415  -0.45314  -0.45026
 Alpha  occ. eigenvalues --   -0.44907  -0.44415  -0.44217  -0.43984  -0.43755
 Alpha  occ. eigenvalues --   -0.43070  -0.42783  -0.42623  -0.42443  -0.42386
 Alpha  occ. eigenvalues --   -0.42251  -0.42211  -0.41845  -0.41682  -0.41375
 Alpha  occ. eigenvalues --   -0.41204  -0.41116  -0.40833  -0.40818  -0.40487
 Alpha  occ. eigenvalues --   -0.40471  -0.40304  -0.40256  -0.40084  -0.40015
 Alpha  occ. eigenvalues --   -0.39907  -0.39661  -0.39521  -0.39251  -0.39166
 Alpha  occ. eigenvalues --   -0.38958  -0.38795  -0.38523  -0.38101  -0.37865
 Alpha  occ. eigenvalues --   -0.37764  -0.37478  -0.37326  -0.37232  -0.36665
 Alpha  occ. eigenvalues --   -0.36592  -0.36397  -0.36091  -0.35918  -0.35858
 Alpha  occ. eigenvalues --   -0.35664  -0.35648  -0.35458  -0.35392  -0.35242
 Alpha  occ. eigenvalues --   -0.34691  -0.34487  -0.33825  -0.33748  -0.32974
 Alpha  occ. eigenvalues --   -0.32776  -0.32698  -0.32631  -0.32624  -0.32398
 Alpha  occ. eigenvalues --   -0.32235  -0.31852  -0.31618  -0.30657  -0.30160
 Alpha  occ. eigenvalues --   -0.29405  -0.29051  -0.28873  -0.28080  -0.26926
 Alpha  occ. eigenvalues --   -0.26604  -0.26360  -0.25331  -0.23745  -0.21494
 Alpha  occ. eigenvalues --   -0.19755
 Alpha virt. eigenvalues --   -0.07490  -0.03473   0.00110   0.01864   0.03385
 Alpha virt. eigenvalues --    0.03832   0.04787   0.05261   0.05554   0.06277
 Alpha virt. eigenvalues --    0.06879   0.08368   0.08862   0.09014   0.09288

 Mulliken charges:
               1
     1  Mg   0.813556
     2  C    0.138597
     3  C   -0.197401
     4  C   -0.152090
     5  C   -0.212856
     6  N   -0.626908
     7  C    0.343430
     8  C   -0.174707
     9  C   -0.139229
    10  C    0.325487
    11  C   -0.314506
    12  C   -0.161519
    13  C   -0.267161
    14  C    0.607735
    15  O   -0.498787
    16  O   -0.477127
    17  N   -0.745856
    18  C    0.315717
    19  C    0.071024
    20  C   -0.019570
    21  C    0.333913
    22  C   -0.393240
    23  C   -0.113357
    24  C   -0.248896
    25  N   -0.677151
    26  C    0.286509
    27  C    0.024645
    28  C    0.048775
    29  C    0.313317
    30  C   -0.381055
    31  C   -0.244550
    32  C   -0.309903
    33  N   -0.726361
    34  C    0.290970
    35  C    0.078017
    36  C   -0.082473
    37  C    0.303302
    38  C   -0.389269
    39  C    0.407920
    40  O   -0.434140
    41  C   -0.376467
    42  C    0.610120
    43  O   -0.449973
    44  O   -0.461697
    45  C   -0.096464
    46  C    0.040724
    47  C   -0.117919
    48  C    0.098689
    49  C   -0.347863
    50  C   -0.227237
    51  C   -0.194603
    52  C   -0.140812
    53  C   -0.064312
    54  C   -0.311736
    55  C   -0.168191
    56  C   -0.196456
    57  C   -0.152218
    58  C   -0.060588
    59  C   -0.280041
    60  C   -0.179057
    61  C   -0.171133
    62  C   -0.153994
    63  C   -0.061411
    64  C   -0.289469
    65  C   -0.308119
    66  H    0.057026
    67  H    0.097521
    68  H    0.068179
    69  H    0.130765
    70  H    0.102185
    71  H    0.100768
    72  H    0.100632
    73  H    0.138993
    74  H    0.103625
    75  H    0.121358
    76  H    0.129414
    77  H    0.123100
    78  H    0.134491
    79  H    0.125797
    80  H    0.116121
    81  H    0.067239
    82  H    0.107577
    83  H    0.090730
    84  H    0.085634
    85  H    0.128808
    86  H    0.128972
    87  H    0.079120
    88  H    0.106005
    89  H    0.100978
    90  H    0.107919
    91  H    0.125928
    92  H    0.123978
    93  H    0.142624
    94  H    0.111764
    95  H    0.150275
    96  H    0.129717
    97  H    0.151567
    98  H    0.104812
    99  H    0.127200
   100  H    0.102456
   101  H    0.091849
   102  H    0.119500
   103  H    0.112372
   104  H    0.138378
   105  H    0.094566
   106  H    0.101765
   107  H    0.101923
   108  H    0.079408
   109  H    0.090741
   110  H    0.105986
   111  H    0.092045
   112  H    0.083650
   113  H    0.104950
   114  H    0.071453
   115  H    0.059796
   116  H    0.108779
   117  H    0.108487
   118  H    0.068046
   119  H    0.106008
   120  H    0.088537
   121  H    0.082528
   122  H    0.019557
   123  H    0.100341
   124  H    0.117328
   125  H    0.074466
   126  H    0.077564
   127  H    0.100921
   128  H    0.093788
   129  H    0.090982
   130  H    0.068272
   131  H    0.088836
   132  H    0.093357
   133  H    0.100452
   134  H    0.097459
   135  H    0.091969
   136  H    0.091118
   137  H    0.104970
 Sum of Mulliken charges =  -0.00000

 Dipole moment (field-independent basis, Debye):
    X=              3.8853    Y=              3.3463    Z=              0.0537  Tot=              5.1280
 Quadrupole moment (field-independent basis, Debye-Ang):
   XX=           -350.3346   YY=           -400.6391   ZZ=           -397.1641
   XY=            -18.4298   XZ=              1.2493   YZ=             -4.4330

 Normal termination of Gaussian 16 at Tue Sep 10 19:05:26 2019.
