 Gaussian 16, Revision A.03,
 Gaussian 16:  ES64L-G16RevA.03 25-Dec-2016

 ----------------------------------------------------------------------
 # td=(NStates=1) iop(3/107=0140000000,3/108=0140000000) CAM-B3LYP/6-31
 G(d,p)
 ----------------------------------------------------------------------

 --
 TD
 --
 Symbolic Z-matrix:
 Charge =  0 Multiplicity = 1

                         Standard orientation:
 ---------------------------------------------------------------------
 Center     Atomic      Atomic             Coordinates (Angstroms)
 Number     Number       Type             X           Y           Z
 ---------------------------------------------------------------------
      1         12           0       -7.164715    0.648506    0.184533
      2          6           0       -4.876310   -1.944551    0.523233
      3          6           0       -4.807738    2.843169    1.088311
      4          6           0       -9.477936    3.074055   -0.375091
      5          6           0       -9.559324   -1.748313   -0.773970
      6          7           0       -5.119604    0.374250    0.788878
      7          6           0       -4.365772   -0.708869    0.880199
      8          6           0       -2.947016   -0.346164    1.247125
      9          6           0       -3.087750    1.105703    1.716612
     10          6           0       -4.396148    1.487694    1.155582
     11          6           0       -2.995538    1.306623    3.293828
     12          6           0       -1.975973   -0.610074    0.061759
     13          6           0       -0.405432   -0.495427    0.454067
     14          6           0        0.486324   -0.780283   -0.718897
     15          8           0        0.259999   -1.007005   -1.871829
     16          8           0        1.758585   -0.696791   -0.190529
     17          7           0       -7.150248    2.616894    0.309827
     18          6           0       -6.070599    3.341819    0.788280
     19          6           0       -6.523656    4.782306    0.899846
     20          6           0       -7.826119    4.907592    0.298774
     21          6           0       -8.174123    3.443732    0.031778
     22          6           0       -5.529889    5.878812    1.233651
     23          6           0       -8.529049    6.136907   -0.077935
     24          6           0       -8.314953    7.223780    0.711049
     25          7           0       -9.229694    0.728423   -0.558007
     26          6           0       -9.884318    1.798467   -0.730110
     27          6           0      -11.280087    1.448196   -1.251537
     28          6           0      -11.303373   -0.008264   -1.223145
     29          6           0       -9.937219   -0.393679   -0.826650
     30          6           0      -12.427518    2.458462   -1.442043
     31          6           0      -12.375932   -0.816047   -1.779491
     32          6           0      -12.130108   -1.179532   -3.241132
     33          7           0       -7.265950   -1.355335   -0.139750
     34          6           0       -8.247713   -2.218310   -0.513781
     35          6           0       -7.834644   -3.541926   -0.525154
     36          6           0       -6.516511   -3.566206   -0.112575
     37          6           0       -6.172991   -2.168324    0.117682
     38          6           0       -8.574501   -4.821852   -0.878688
     39          6           0       -5.367853   -4.291190    0.244803
     40          8           0       -5.193246   -5.549769    0.204661
     41          6           0       -4.216094   -3.309917    0.654152
     42          6           0       -3.543582   -3.679230    1.898036
     43          8           0       -3.894436   -3.224473    3.020506
     44          8           0       -2.526594   -4.526327    1.626788
     45          6           0       -2.062998   -5.034446    2.942613
     46          6           0        2.875882   -0.609955   -1.240997
     47          6           0        4.120426   -0.411110   -0.562472
     48          6           0        5.099939    0.267667   -1.023221
     49          6           0        5.112489    1.010316   -2.345013
     50          6           0        6.454099    0.321658   -0.216806
     51          6           0        7.608523   -0.227320   -0.895984
     52          6           0        9.001460   -0.184681   -0.078514
     53          6           0       10.240523   -0.696952   -0.773580
     54          6           0       10.255406   -2.168863   -1.180409
     55          6           0       11.426620   -0.218378    0.061942
     56          6           0       12.807488   -0.644091   -0.502995
     57          6           0       14.019838   -0.054153    0.350924
     58          6           0       15.278708   -0.278238   -0.393686
     59          6           0       15.607624   -1.678334   -0.830449
     60          6           0       16.472418    0.396739    0.562442
     61          6           0       17.807116    0.678280   -0.208593
     62          6           0       18.876961    1.369986    0.680101
     63          6           0       20.275241    1.507520    0.175882
     64          6           0       20.328273    2.130205   -1.243720
     65          6           0       21.215354    2.136877    1.106665
     66          1           0       -4.076335    3.412944    1.468544
     67          1           0      -10.241640    3.785414   -0.579697
     68          1           0      -10.324968   -2.487109   -1.082885
     69          1           0       -2.836533   -0.944058    2.142707
     70          1           0       -2.401266    1.950065    1.336442
     71          1           0       -1.895467    1.125868    3.699368
     72          1           0       -3.564095    2.371296    3.496401
     73          1           0       -3.747978    0.470548    3.794012
     74          1           0       -2.211000   -1.592732   -0.412353
     75          1           0       -2.014300    0.192261   -0.774974
     76          1           0       -0.125281    0.418676    0.774329
     77          1           0       -0.251963   -1.258389    1.271985
     78          1           0       -5.428691    6.697949    0.389333
     79          1           0       -5.590987    6.325528    2.222427
     80          1           0       -4.680703    5.434331    1.112729
     81          1           0       -9.289374    5.936243   -0.850808
     82          1           0       -8.815823    8.155649    0.398898
     83          1           0       -7.608551    7.534412    1.366438
     84          1           0      -12.237060    3.047454   -2.318267
     85          1           0      -13.347038    1.839346   -1.462066
     86          1           0      -12.485129    3.050119   -0.519710
     87          1           0      -12.172080   -1.716434   -1.121157
     88          1           0      -13.346138   -0.424686   -1.649982
     89          1           0      -12.879078   -1.843459   -3.721886
     90          1           0      -11.970430   -0.214889   -3.751139
     91          1           0      -11.175223   -1.512834   -3.310153
     92          1           0       -8.807664   -4.727859   -2.015467
     93          1           0       -8.172834   -5.634571   -0.577302
     94          1           0       -9.604012   -4.697862   -0.069188
     95          1           0       -3.627665   -3.531755   -0.251763
     96          1           0       -1.716884   -4.226136    3.550338
     97          1           0       -2.871219   -5.603714    3.561772
     98          1           0       -1.329332   -5.704661    2.576730
     99          1           0        2.728506   -1.592629   -1.759100
    100          1           0        2.323956    0.105741   -1.899278
    101          1           0        4.200355   -0.879714    0.300515
    102          1           0        4.126596    0.951822   -2.855797
    103          1           0        5.582672    2.034178   -2.382890
    104          1           0        5.824822    0.510316   -2.984573
    105          1           0        6.488926    1.409859    0.063141
    106          1           0        6.322349    0.064341    0.822473
    107          1           0        7.510060   -1.295507   -1.315617
    108          1           0        7.984793    0.447935   -1.843273
    109          1           0        8.978555    0.778989    0.137580
    110          1           0        8.914787   -0.885706    0.845470
    111          1           0       10.305685    0.100170   -1.687384
    112          1           0        9.429245   -2.270677   -1.828841
    113          1           0       11.147977   -2.238231   -1.771615
    114          1           0       10.109155   -2.737537   -0.341941
    115          1           0       11.366686    0.954150   -0.012385
    116          1           0       11.527989   -0.683334    1.002803
    117          1           0       12.829072   -1.788488   -0.669881
    118          1           0       12.935168    0.082703   -1.326536
    119          1           0       13.818199    1.167330    0.599459
    120          1           0       14.060877   -0.652250    1.232042
    121          1           0       15.414798    0.445064   -1.408234
    122          1           0       15.709936   -2.404818    0.060107
    123          1           0       15.042577   -2.022923   -1.541422
    124          1           0       16.660261   -1.979291   -1.380461
    125          1           0       15.791482    1.404009    1.090478
    126          1           0       16.670117   -0.291030    1.340859
    127          1           0       18.124289   -0.323986   -0.602075
    128          1           0       17.653477    1.333916   -1.160705
    129          1           0       18.269914    2.242748    0.878223
    130          1           0       18.832792    0.827205    1.639774
    131          1           0       20.530831    0.450746   -0.124656
    132          1           0       20.166073    3.227896   -1.290278
    133          1           0       21.571392    2.017919   -1.457176
    134          1           0       19.743517    1.580665   -1.902504
    135          1           0       21.133452    1.614078    2.217646
    136          1           0       22.253054    1.813223    0.833229
    137          1           0       21.071244    3.226065    1.175179
 ---------------------------------------------------------------------

 SCF Done:  E(RCAM-B3LYP) =  -2933.47652388     A.U. after   16 cycles

 Excitation energies and oscillator strengths:

 Excited State   1:      Singlet-A      2.0289 eV  611.10 nm  f=0.2662  <S**2>=0.000
     240 -> 243       -0.23878
     241 -> 242        0.65719
 This state for optimization and/or second-order correction.
 Total Energy, E(TD-HF/TD-DFT) =  -2933.40196376
 Copying the excited state density for this state as the 1-particle RhoCI density.

 The electronic state is 1-A.
 Alpha  occ. eigenvalues --  -46.80747 -19.23305 -19.19862 -19.17110 -19.16631
 Alpha  occ. eigenvalues --  -19.14460 -14.37734 -14.36132 -14.35133 -14.34528
 Alpha  occ. eigenvalues --  -10.34676 -10.33916 -10.29569 -10.27057 -10.26842
 Alpha  occ. eigenvalues --  -10.26596 -10.26579 -10.26128 -10.25725 -10.25468
 Alpha  occ. eigenvalues --  -10.24616 -10.24303 -10.24171 -10.24070 -10.24048
 Alpha  occ. eigenvalues --  -10.23949 -10.23893 -10.23521 -10.23463 -10.23426
 Alpha  occ. eigenvalues --  -10.23418 -10.23390 -10.23127 -10.23017 -10.22968
 Alpha  occ. eigenvalues --  -10.22863 -10.22821 -10.22712 -10.22707 -10.22367
 Alpha  occ. eigenvalues --  -10.22343 -10.22248 -10.22109 -10.21984 -10.21948
 Alpha  occ. eigenvalues --  -10.21934 -10.21830 -10.21810 -10.21737 -10.21727
 Alpha  occ. eigenvalues --  -10.21681 -10.21436 -10.21385 -10.21293 -10.21277
 Alpha  occ. eigenvalues --  -10.21186 -10.21094 -10.21089 -10.20786 -10.20575
 Alpha  occ. eigenvalues --  -10.20256 -10.19774 -10.19764 -10.19721 -10.19604
 Alpha  occ. eigenvalues --   -3.09255  -1.84200  -1.83710  -1.83672  -1.12469
 Alpha  occ. eigenvalues --   -1.11423  -1.03257  -1.02719  -1.02101  -1.00407
 Alpha  occ. eigenvalues --   -0.99610  -0.98307  -0.97758  -0.87949  -0.86931
 Alpha  occ. eigenvalues --   -0.85527  -0.84679  -0.84583  -0.84271  -0.83928
 Alpha  occ. eigenvalues --   -0.83661  -0.83507  -0.82357  -0.81886  -0.81142
 Alpha  occ. eigenvalues --   -0.80129  -0.79178  -0.78760  -0.78088  -0.77688
 Alpha  occ. eigenvalues --   -0.76812  -0.76425  -0.76053  -0.75326  -0.73471
 Alpha  occ. eigenvalues --   -0.73111  -0.72706  -0.72306  -0.71468  -0.71298
 Alpha  occ. eigenvalues --   -0.70530  -0.70463  -0.69712  -0.68856  -0.68594
 Alpha  occ. eigenvalues --   -0.67026  -0.65971  -0.65869  -0.64755  -0.64344
 Alpha  occ. eigenvalues --   -0.63984  -0.61638  -0.61507  -0.60994  -0.60320
 Alpha  occ. eigenvalues --   -0.59372  -0.58617  -0.58362  -0.57898  -0.57347
 Alpha  occ. eigenvalues --   -0.56961  -0.56513  -0.56286  -0.56021  -0.55538
 Alpha  occ. eigenvalues --   -0.54680  -0.53911  -0.53814  -0.53085  -0.52120
 Alpha  occ. eigenvalues --   -0.51973  -0.51887  -0.51308  -0.51047  -0.50907
 Alpha  occ. eigenvalues --   -0.50661  -0.50546  -0.49895  -0.49713  -0.49324
 Alpha  occ. eigenvalues --   -0.48835  -0.48518  -0.48498  -0.48409  -0.48169
 Alpha  occ. eigenvalues --   -0.47723  -0.47600  -0.47444  -0.47360  -0.47340
 Alpha  occ. eigenvalues --   -0.47031  -0.46842  -0.46696  -0.46504  -0.46454
 Alpha  occ. eigenvalues --   -0.46117  -0.45709  -0.45294  -0.45200  -0.45025
 Alpha  occ. eigenvalues --   -0.44564  -0.44366  -0.44270  -0.44164  -0.43742
 Alpha  occ. eigenvalues --   -0.43605  -0.43418  -0.42965  -0.42848  -0.42782
 Alpha  occ. eigenvalues --   -0.42677  -0.42530  -0.42289  -0.42054  -0.42017
 Alpha  occ. eigenvalues --   -0.41888  -0.41743  -0.41437  -0.41318  -0.40836
 Alpha  occ. eigenvalues --   -0.40785  -0.40606  -0.40468  -0.40393  -0.39943
 Alpha  occ. eigenvalues --   -0.39835  -0.39510  -0.39371  -0.39231  -0.38943
 Alpha  occ. eigenvalues --   -0.38604  -0.38289  -0.38185  -0.38048  -0.37616
 Alpha  occ. eigenvalues --   -0.37553  -0.37209  -0.37140  -0.37100  -0.37029
 Alpha  occ. eigenvalues --   -0.36791  -0.36578  -0.36266  -0.36208  -0.35657
 Alpha  occ. eigenvalues --   -0.35570  -0.35198  -0.34968  -0.34549  -0.34456
 Alpha  occ. eigenvalues --   -0.34092  -0.33886  -0.33642  -0.33347  -0.33265
 Alpha  occ. eigenvalues --   -0.33037  -0.32928  -0.32903  -0.32523  -0.32391
 Alpha  occ. eigenvalues --   -0.32185  -0.31888  -0.31501  -0.30459  -0.30199
 Alpha  occ. eigenvalues --   -0.29955  -0.29609  -0.29308  -0.28627  -0.27990
 Alpha  occ. eigenvalues --   -0.26699  -0.25950  -0.25012  -0.24518  -0.21611
 Alpha  occ. eigenvalues --   -0.19768
 Alpha virt. eigenvalues --   -0.06976  -0.03832  -0.00681   0.01583   0.02700
 Alpha virt. eigenvalues --    0.04276   0.04339   0.04683   0.05429   0.05709
 Alpha virt. eigenvalues --    0.06775   0.08428   0.08665   0.09210   0.09857

 Mulliken charges:
               1
     1  Mg   0.821888
     2  C    0.065988
     3  C   -0.169461
     4  C   -0.163189
     5  C   -0.175164
     6  N   -0.631950
     7  C    0.291637
     8  C   -0.141732
     9  C   -0.155753
    10  C    0.338054
    11  C   -0.294446
    12  C   -0.177392
    13  C   -0.258343
    14  C    0.604276
    15  O   -0.467928
    16  O   -0.523482
    17  N   -0.723416
    18  C    0.327096
    19  C   -0.022572
    20  C    0.019832
    21  C    0.303556
    22  C   -0.369494
    23  C   -0.075434
    24  C   -0.228771
    25  N   -0.668473
    26  C    0.329247
    27  C   -0.034141
    28  C   -0.008887
    29  C    0.306758
    30  C   -0.373074
    31  C   -0.232617
    32  C   -0.302200
    33  N   -0.735193
    34  C    0.306344
    35  C   -0.025918
    36  C    0.123018
    37  C    0.250893
    38  C   -0.314968
    39  C    0.285360
    40  O   -0.510554
    41  C   -0.301700
    42  C    0.659228
    43  O   -0.516527
    44  O   -0.445943
    45  C   -0.096956
    46  C   -0.001615
    47  C   -0.095243
    48  C    0.130532
    49  C   -0.378779
    50  C   -0.228146
    51  C   -0.174663
    52  C   -0.144567
    53  C   -0.065145
    54  C   -0.314482
    55  C   -0.152394
    56  C   -0.203301
    57  C   -0.167082
    58  C   -0.029427
    59  C   -0.303078
    60  C   -0.162440
    61  C   -0.193884
    62  C   -0.153122
    63  C   -0.042774
    64  C   -0.295166
    65  C   -0.294840
    66  H    0.065148
    67  H    0.072099
    68  H    0.094234
    69  H    0.127286
    70  H    0.099845
    71  H    0.113124
    72  H    0.096988
    73  H    0.106190
    74  H    0.121974
    75  H    0.111010
    76  H    0.144111
    77  H    0.136084
    78  H    0.105996
    79  H    0.122434
    80  H    0.122927
    81  H    0.106569
    82  H    0.087743
    83  H    0.120494
    84  H    0.128995
    85  H    0.113474
    86  H    0.126221
    87  H    0.091770
    88  H    0.104788
    89  H    0.103617
    90  H    0.103581
    91  H    0.118155
    92  H    0.121751
    93  H    0.151056
    94  H    0.070637
    95  H    0.168128
    96  H    0.142987
    97  H    0.135521
    98  H    0.127758
    99  H    0.133975
   100  H    0.127139
   101  H    0.090972
   102  H    0.110255
   103  H    0.113250
   104  H    0.131961
   105  H    0.097523
   106  H    0.102984
   107  H    0.090967
   108  H    0.065116
   109  H    0.101032
   110  H    0.065358
   111  H    0.045584
   112  H    0.111688
   113  H    0.118531
   114  H    0.113647
   115  H    0.075466
   116  H    0.090088
   117  H    0.097570
   118  H    0.095142
   119  H    0.075291
   120  H    0.098951
   121  H    0.053202
   122  H    0.088790
   123  H    0.125864
   124  H    0.075786
   125  H    0.036481
   126  H    0.101148
   127  H    0.087314
   128  H    0.079344
   129  H    0.094070
   130  H    0.081043
   131  H    0.084580
   132  H    0.099816
   133  H    0.056473
   134  H    0.116807
   135  H    0.072352
   136  H    0.103018
   137  H    0.110847
 Sum of Mulliken charges =  -0.00000

 Dipole moment (field-independent basis, Debye):
    X=              2.7203    Y=              4.9951    Z=              0.5561  Tot=              5.7149
 Quadrupole moment (field-independent basis, Debye-Ang):
   XX=           -365.9237   YY=           -395.3392   ZZ=           -399.1392
   XY=            -37.9865   XZ=             10.1868   YZ=             -1.0948

 Normal termination of Gaussian 16 at Tue Sep 17 11:01:35 2019.
