 Gaussian 09, Revision D.01,
 Gaussian 09:  ES64L-G09RevD.01 24-Apr-2013

 -------------------------------------
 # td=(NStates=1) CAM-B3LYP/6-31G(d,p)
 -------------------------------------

 --
 TD
 --
 Symbolic Z-matrix:
 Charge =  0 Multiplicity = 1

                         Standard orientation:
 ---------------------------------------------------------------------
 Center     Atomic      Atomic             Coordinates (Angstroms)
 Number     Number       Type             X           Y           Z
 ---------------------------------------------------------------------
      1         12           0       -7.176438    0.597439    0.098088
      2          6           0       -4.925665   -1.980938    0.484210
      3          6           0       -4.842572    2.877625    1.247378
      4          6           0       -9.336627    3.150228   -0.408073
      5          6           0       -9.511432   -1.765271   -0.935633
      6          7           0       -5.128250    0.408040    0.894095
      7          6           0       -4.419861   -0.782382    0.990985
      8          6           0       -2.949025   -0.417167    1.342191
      9          6           0       -3.076096    1.055928    1.840193
     10          6           0       -4.428268    1.514747    1.292007
     11          6           0       -2.875379    1.250550    3.406554
     12          6           0       -1.917475   -0.631945    0.225307
     13          6           0       -0.455356   -0.420778    0.607479
     14          6           0        0.478387   -0.729746   -0.507884
     15          8           0        0.188381   -1.035004   -1.579956
     16          8           0        1.706931   -0.417067   -0.136475
     17          7           0       -7.156711    2.578842    0.470696
     18          6           0       -6.050212    3.317246    0.780377
     19          6           0       -6.416803    4.809649    0.725185
     20          6           0       -7.620171    4.878956    0.238139
     21          6           0       -8.092064    3.442762    0.081463
     22          6           0       -5.509167    6.012256    1.117254
     23          6           0       -8.474373    6.057883    0.011936
     24          6           0       -8.384983    7.225417    0.642104
     25          7           0       -9.090773    0.601831   -0.555600
     26          6           0       -9.860259    1.795635   -0.708552
     27          6           0      -11.190272    1.516791   -1.134837
     28          6           0      -11.148401    0.159704   -1.315677
     29          6           0       -9.857979   -0.385127   -0.924001
     30          6           0      -12.205315    2.525328   -1.450815
     31          6           0      -12.409899   -0.638036   -1.671676
     32          6           0      -12.475734   -1.066825   -3.258964
     33          7           0       -7.211265   -1.381098   -0.233488
     34          6           0       -8.224872   -2.218523   -0.598529
     35          6           0       -7.885608   -3.549542   -0.497812
     36          6           0       -6.513919   -3.599666   -0.137984
     37          6           0       -6.245774   -2.262410    0.060421
     38          6           0       -8.616806   -4.779467   -0.817395
     39          6           0       -5.436084   -4.366088    0.199811
     40          8           0       -5.260570   -5.576036    0.170005
     41          6           0       -4.218622   -3.397043    0.548504
     42          6           0       -3.600921   -3.716238    1.890874
     43          8           0       -3.719731   -3.215775    2.958156
     44          8           0       -2.645578   -4.725301    1.656025
     45          6           0       -2.083465   -5.174721    2.873149
     46          6           0        2.767376   -0.635771   -1.153692
     47          6           0        4.158658   -0.423152   -0.499121
     48          6           0        5.098252    0.333902   -0.942936
     49          6           0        5.121127    1.013314   -2.378905
     50          6           0        6.378043    0.436822   -0.156330
     51          6           0        7.555101   -0.147793   -0.921095
     52          6           0        8.868218   -0.131654   -0.153805
     53          6           0       10.113684   -0.626013   -0.918103
     54          6           0       10.143673   -2.090272   -1.349874
     55          6           0       11.400828   -0.336799   -0.123910
     56          6           0       12.715346   -0.525580   -0.802195
     57          6           0       13.916376   -0.086100    0.020709
     58          6           0       15.361475   -0.186977   -0.608339
     59          6           0       15.741987   -1.601526   -0.839751
     60          6           0       16.448163    0.661348    0.287594
     61          6           0       17.928153    0.495149   -0.216357
     62          6           0       18.834841    1.284253    0.759422
     63          6           0       20.257003    1.354974    0.297932
     64          6           0       20.567862    2.017406   -1.004819
     65          6           0       21.195302    2.060631    1.416617
     66          1           0       -3.970970    3.633017    1.394327
     67          1           0      -10.038022    3.891886   -1.019799
     68          1           0      -10.217168   -2.402030   -1.514793
     69          1           0       -2.614243   -1.028395    2.210046
     70          1           0       -2.077243    1.672661    1.736197
     71          1           0       -2.040943    0.729088    3.873134
     72          1           0       -3.123284    2.347256    3.605172
     73          1           0       -3.587466    0.768122    4.015056
     74          1           0       -2.141574   -1.537749   -0.233292
     75          1           0       -2.239365    0.160785   -0.775423
     76          1           0       -0.100999    0.700201    1.070493
     77          1           0       -0.318296   -1.219421    1.524429
     78          1           0       -5.724965    6.749400    0.359820
     79          1           0       -5.646395    6.078512    2.078057
     80          1           0       -4.465085    5.631695    0.946948
     81          1           0       -9.000818    6.244550   -0.856915
     82          1           0       -9.102489    7.910807    0.225801
     83          1           0       -7.674229    7.308473    1.516634
     84          1           0      -11.837807    3.348397   -2.185829
     85          1           0      -13.154628    2.138566   -2.010449
     86          1           0      -12.574876    3.106789   -0.572686
     87          1           0      -12.453996   -1.519353   -0.971723
     88          1           0      -13.229269   -0.127121   -1.332992
     89          1           0      -13.414927   -1.574030   -3.471183
     90          1           0      -12.379902   -0.216338   -3.891117
     91          1           0      -11.750354   -1.810440   -3.549617
     92          1           0       -9.124143   -4.851458   -1.688855
     93          1           0       -7.878679   -5.731311   -0.824459
     94          1           0       -9.384268   -5.137401   -0.204757
     95          1           0       -3.326583   -3.623147   -0.098671
     96          1           0       -1.269586   -4.344420    3.091132
     97          1           0       -2.898937   -5.309460    3.590038
     98          1           0       -1.540340   -6.122344    2.651419
     99          1           0        2.496856   -1.548670   -1.719981
    100          1           0        2.489925    0.004112   -2.077258
    101          1           0        4.202556   -0.917608    0.473783
    102          1           0        4.041786    1.183173   -2.743102
    103          1           0        5.671655    2.026969   -2.337170
    104          1           0        5.586920    0.379916   -3.133999
    105          1           0        6.414301    1.347714    0.217473
    106          1           0        6.326057   -0.222863    0.771216
    107          1           0        7.123113   -1.085907   -1.290187
    108          1           0        7.794095    0.318652   -1.870178
    109          1           0        9.046461    0.911787    0.452046
    110          1           0        8.764977   -0.720926    0.629432
    111          1           0       10.168008    0.083206   -1.777396
    112          1           0        9.362987   -2.454783   -2.103811
    113          1           0       11.016959   -2.272661   -1.880745
    114          1           0        9.998289   -2.820696   -0.492228
    115          1           0       11.364298    0.780794    0.137691
    116          1           0       11.446763   -0.960401    0.809535
    117          1           0       12.893023   -1.809342   -1.000493
    118          1           0       12.596600   -0.040333   -1.605867
    119          1           0       13.945933    0.946461    0.339417
    120          1           0       13.958281   -0.759083    0.930967
    121          1           0       15.235975    0.258634   -1.672715
    122          1           0       15.727780   -2.251829    0.111070
    123          1           0       15.122914   -1.917957   -1.729311
    124          1           0       16.708564   -1.612732   -1.281792
    125          1           0       16.103699    1.773599    0.374995
    126          1           0       16.277170    0.047461    1.370920
    127          1           0       18.120741   -0.480285   -0.240066
    128          1           0       18.020959    1.029071   -1.125668
    129          1           0       18.356888    2.261833    0.961771
    130          1           0       18.782773    0.724419    1.580561
    131          1           0       20.473703    0.321129    0.136767
    132          1           0       20.242590    3.096173   -0.886652
    133          1           0       21.674160    2.027932   -1.308058
    134          1           0       19.974467    1.550809   -1.862420
    135          1           0       21.285483    1.456809    2.268593
    136          1           0       22.058984    2.046056    0.895381
    137          1           0       20.753579    3.114779    1.537934
 ---------------------------------------------------------------------

 SCF Done:  E(RCAM-B3LYP) =  -2932.69801202     A.U. after   17 cycles

 Excitation energies and oscillator strengths:

 Excited State   1:      Singlet-A      2.2025 eV  562.93 nm  f=0.1819  <S**2>=0.000
     240 -> 243       -0.28030
     241 -> 242        0.63501
 This state for optimization and/or second-order correction.
 Total Energy, E(TD-HF/TD-KS) =  -2932.61707253
 Copying the excited state density for this state as the 1-particle RhoCI density.

 The electronic state is 1-A.
 Alpha  occ. eigenvalues --  -46.84632 -19.25258 -19.24194 -19.21298 -19.20486
 Alpha  occ. eigenvalues --  -19.18717 -14.42136 -14.40535 -14.39236 -14.39122
 Alpha  occ. eigenvalues --  -10.38482 -10.37853 -10.33656 -10.32566 -10.32355
 Alpha  occ. eigenvalues --  -10.31479 -10.30889 -10.30584 -10.30194 -10.29849
 Alpha  occ. eigenvalues --  -10.29717 -10.28570 -10.28305 -10.28268 -10.28256
 Alpha  occ. eigenvalues --  -10.28151 -10.28112 -10.27770 -10.27724 -10.27704
 Alpha  occ. eigenvalues --  -10.27627 -10.27440 -10.27435 -10.27428 -10.27390
 Alpha  occ. eigenvalues --  -10.27235 -10.27135 -10.27132 -10.26896 -10.26601
 Alpha  occ. eigenvalues --  -10.26508 -10.26428 -10.26424 -10.26295 -10.26270
 Alpha  occ. eigenvalues --  -10.26107 -10.26057 -10.25890 -10.25739 -10.25419
 Alpha  occ. eigenvalues --  -10.25371 -10.25229 -10.25210 -10.25144 -10.25108
 Alpha  occ. eigenvalues --  -10.25021 -10.25011 -10.24870 -10.24846 -10.24477
 Alpha  occ. eigenvalues --  -10.24347 -10.23811 -10.23795 -10.23748 -10.23309
 Alpha  occ. eigenvalues --   -3.13717  -1.88420  -1.87949  -1.87909  -1.19722
 Alpha  occ. eigenvalues --   -1.17423  -1.10450  -1.09546  -1.09154  -1.05491
 Alpha  occ. eigenvalues --   -1.05064  -1.03391  -1.02644  -0.92241  -0.91644
 Alpha  occ. eigenvalues --   -0.90645  -0.90439  -0.89934  -0.89035  -0.88764
 Alpha  occ. eigenvalues --   -0.88488  -0.87906  -0.87613  -0.86576  -0.85658
 Alpha  occ. eigenvalues --   -0.85042  -0.84513  -0.83389  -0.83199  -0.82531
 Alpha  occ. eigenvalues --   -0.81531  -0.80883  -0.80364  -0.79755  -0.79189
 Alpha  occ. eigenvalues --   -0.77768  -0.77121  -0.76488  -0.75938  -0.75163
 Alpha  occ. eigenvalues --   -0.74999  -0.74606  -0.74354  -0.73838  -0.72830
 Alpha  occ. eigenvalues --   -0.72149  -0.70632  -0.70247  -0.69158  -0.68528
 Alpha  occ. eigenvalues --   -0.67292  -0.66820  -0.65139  -0.65093  -0.64187
 Alpha  occ. eigenvalues --   -0.63158  -0.63127  -0.62821  -0.62459  -0.61151
 Alpha  occ. eigenvalues --   -0.60899  -0.60390  -0.60011  -0.59761  -0.59497
 Alpha  occ. eigenvalues --   -0.59133  -0.58428  -0.57936  -0.56661  -0.56098
 Alpha  occ. eigenvalues --   -0.56003  -0.55589  -0.55335  -0.55029  -0.54813
 Alpha  occ. eigenvalues --   -0.54678  -0.54031  -0.53986  -0.53587  -0.53482
 Alpha  occ. eigenvalues --   -0.53064  -0.52592  -0.52484  -0.51946  -0.51792
 Alpha  occ. eigenvalues --   -0.51456  -0.51252  -0.51012  -0.50862  -0.50432
 Alpha  occ. eigenvalues --   -0.50187  -0.50004  -0.49886  -0.49801  -0.49313
 Alpha  occ. eigenvalues --   -0.49102  -0.49079  -0.48636  -0.48437  -0.48198
 Alpha  occ. eigenvalues --   -0.48012  -0.47777  -0.47618  -0.47418  -0.47212
 Alpha  occ. eigenvalues --   -0.46744  -0.46548  -0.46235  -0.45975  -0.45580
 Alpha  occ. eigenvalues --   -0.45428  -0.45325  -0.45158  -0.45085  -0.45053
 Alpha  occ. eigenvalues --   -0.44943  -0.44691  -0.44399  -0.44311  -0.44080
 Alpha  occ. eigenvalues --   -0.43908  -0.43724  -0.43539  -0.43344  -0.43215
 Alpha  occ. eigenvalues --   -0.43124  -0.43108  -0.42803  -0.42685  -0.42296
 Alpha  occ. eigenvalues --   -0.42003  -0.41794  -0.41669  -0.41585  -0.41289
 Alpha  occ. eigenvalues --   -0.41223  -0.41114  -0.40841  -0.40465  -0.40428
 Alpha  occ. eigenvalues --   -0.40415  -0.40045  -0.39646  -0.39139  -0.39062
 Alpha  occ. eigenvalues --   -0.38519  -0.38347  -0.38190  -0.37908  -0.37823
 Alpha  occ. eigenvalues --   -0.37723  -0.37086  -0.36957  -0.36726  -0.36582
 Alpha  occ. eigenvalues --   -0.36401  -0.36278  -0.35948  -0.35702  -0.35650
 Alpha  occ. eigenvalues --   -0.35207  -0.34490  -0.34434  -0.34046  -0.33683
 Alpha  occ. eigenvalues --   -0.33647  -0.32824  -0.32678  -0.31165  -0.30838
 Alpha  occ. eigenvalues --   -0.29917  -0.29397  -0.29187  -0.28418  -0.23383
 Alpha  occ. eigenvalues --   -0.21486
 Alpha virt. eigenvalues --   -0.05992  -0.03516   0.01599   0.04382   0.05596
 Alpha virt. eigenvalues --    0.06552   0.06728   0.06895   0.07324   0.07504
 Alpha virt. eigenvalues --    0.08549   0.10610   0.11041   0.11432   0.11738

 Mulliken charges:
               1
     1  Mg   0.831472
     2  C    0.030187
     3  C   -0.225500
     4  C   -0.198066
     5  C   -0.156185
     6  N   -0.641614
     7  C    0.280075
     8  C   -0.161792
     9  C   -0.152403
    10  C    0.370121
    11  C   -0.335720
    12  C   -0.133898
    13  C   -0.270562
    14  C    0.627639
    15  O   -0.441901
    16  O   -0.484749
    17  N   -0.704980
    18  C    0.329626
    19  C   -0.049161
    20  C    0.044918
    21  C    0.338149
    22  C   -0.347943
    23  C   -0.084274
    24  C   -0.232964
    25  N   -0.702023
    26  C    0.217699
    27  C    0.102373
    28  C   -0.038273
    29  C    0.333137
    30  C   -0.396616
    31  C   -0.244652
    32  C   -0.327286
    33  N   -0.708199
    34  C    0.277183
    35  C    0.037222
    36  C    0.097722
    37  C    0.260230
    38  C   -0.412014
    39  C    0.318106
    40  O   -0.478658
    41  C   -0.316057
    42  C    0.619397
    43  O   -0.450906
    44  O   -0.477665
    45  C   -0.066242
    46  C   -0.013261
    47  C   -0.124260
    48  C    0.108102
    49  C   -0.358553
    50  C   -0.218146
    51  C   -0.179714
    52  C   -0.164226
    53  C   -0.063897
    54  C   -0.313737
    55  C   -0.171637
    56  C   -0.141594
    57  C   -0.160554
    58  C   -0.071271
    59  C   -0.300407
    60  C   -0.175667
    61  C   -0.182792
    62  C   -0.157205
    63  C   -0.074008
    64  C   -0.304833
    65  C   -0.305426
    66  H    0.095516
    67  H    0.090456
    68  H    0.111854
    69  H    0.119176
    70  H    0.106012
    71  H    0.119485
    72  H    0.103643
    73  H    0.122257
    74  H    0.132828
    75  H    0.062774
    76  H    0.120581
    77  H    0.112662
    78  H    0.140432
    79  H    0.147501
    80  H    0.105249
    81  H    0.099455
    82  H    0.104079
    83  H    0.106720
    84  H    0.112647
    85  H    0.109907
    86  H    0.129331
    87  H    0.099063
    88  H    0.113280
    89  H    0.105384
    90  H    0.119662
    91  H    0.112955
    92  H    0.126739
    93  H    0.133014
    94  H    0.129513
    95  H    0.169860
    96  H    0.094342
    97  H    0.135820
    98  H    0.118893
    99  H    0.134609
   100  H    0.109663
   101  H    0.101431
   102  H    0.107519
   103  H    0.108067
   104  H    0.132848
   105  H    0.112322
   106  H    0.089787
   107  H    0.102485
   108  H    0.091602
   109  H    0.067005
   110  H    0.104906
   111  H    0.077529
   112  H    0.087549
   113  H    0.121565
   114  H    0.098148
   115  H    0.077717
   116  H    0.082580
   117  H    0.051890
   118  H    0.095356
   119  H    0.087408
   120  H    0.077842
   121  H    0.063565
   122  H    0.090275
   123  H    0.101822
   124  H    0.104060
   125  H    0.085093
   126  H    0.055275
   127  H    0.107150
   128  H    0.104297
   129  H    0.077719
   130  H    0.103722
   131  H    0.082575
   132  H    0.089986
   133  H    0.097185
   134  H    0.092519
   135  H    0.106386
   136  H    0.110108
   137  H    0.095480
 Sum of Mulliken charges =   0.00000

 Dipole moment (field-independent basis, Debye):
    X=              1.2187    Y=              6.1315    Z=             -0.7876  Tot=              6.3008
 Quadrupole moment (field-independent basis, Debye-Ang):
   XX=           -327.5259   YY=           -395.9722   ZZ=           -394.8993
   XY=            -34.7809   XZ=             12.2032   YZ=             -2.6815

 Normal termination of Gaussian 09 at Thu Jul  4 10:21:47 2019.
