 Gaussian 16, Revision A.03,
 Gaussian 16:  ES64L-G16RevA.03 25-Dec-2016

 ----------------------------------------------------------------------
 # td=(NStates=1) iop(3/107=0140000000,3/108=0140000000) CAM-B3LYP/6-31
 G(d,p)
 ----------------------------------------------------------------------

 --
 TD
 --
 Symbolic Z-matrix:
 Charge =  0 Multiplicity = 1

                         Standard orientation:
 ---------------------------------------------------------------------
 Center     Atomic      Atomic             Coordinates (Angstroms)
 Number     Number       Type             X           Y           Z
 ---------------------------------------------------------------------
      1         12           0       -7.127723    0.625545    0.014729
      2          6           0       -4.837606   -2.038967    0.485935
      3          6           0       -4.632588    2.845073    1.111340
      4          6           0       -9.305783    3.063954   -0.408703
      5          6           0       -9.534488   -1.701330   -0.923406
      6          7           0       -4.991746    0.439108    0.659667
      7          6           0       -4.340672   -0.780742    0.738435
      8          6           0       -2.921869   -0.527833    1.355136
      9          6           0       -2.985909    0.991421    1.822170
     10          6           0       -4.272439    1.486851    1.150224
     11          6           0       -2.914136    1.133139    3.302496
     12          6           0       -1.942720   -0.737503    0.186642
     13          6           0       -0.490518   -0.640641    0.750817
     14          6           0        0.494413   -0.829572   -0.537559
     15          8           0        0.244247   -1.108156   -1.666910
     16          8           0        1.728845   -0.538324   -0.098987
     17          7           0       -7.033531    2.662797    0.319405
     18          6           0       -5.946730    3.388859    0.719306
     19          6           0       -6.311790    4.727066    0.837147
     20          6           0       -7.688983    4.866210    0.563256
     21          6           0       -8.032747    3.466601    0.062784
     22          6           0       -5.577208    5.942597    1.305554
     23          6           0       -8.557086    6.008101    0.363335
     24          6           0       -8.277230    7.232978    0.863881
     25          7           0       -9.035317    0.664435   -0.561507
     26          6           0       -9.689937    1.866412   -0.705707
     27          6           0      -11.126476    1.572881   -1.316385
     28          6           0      -11.137705    0.232625   -1.477062
     29          6           0       -9.797175   -0.378862   -1.040007
     30          6           0      -12.158246    2.600904   -1.496652
     31          6           0      -12.306056   -0.518197   -2.014959
     32          6           0      -12.024201   -1.072709   -3.373409
     33          7           0       -7.191418   -1.317057   -0.309633
     34          6           0       -8.225672   -2.195933   -0.574424
     35          6           0       -7.734692   -3.591074   -0.509338
     36          6           0       -6.469385   -3.573768   -0.098236
     37          6           0       -6.129735   -2.206137    0.008419
     38          6           0       -8.681408   -4.826269   -0.802093
     39          6           0       -5.348584   -4.438253    0.226870
     40          8           0       -5.288435   -5.670320    0.261366
     41          6           0       -4.228459   -3.348973    0.559884
     42          6           0       -3.521057   -3.620080    1.895798
     43          8           0       -3.764699   -3.204611    2.934771
     44          8           0       -2.613935   -4.779810    1.750166
     45          6           0       -2.092770   -5.307696    2.911114
     46          6           0        2.741418   -0.624047   -1.123226
     47          6           0        4.075526   -0.459647   -0.401761
     48          6           0        4.981685    0.454424   -0.890164
     49          6           0        4.964275    1.227484   -2.309155
     50          6           0        6.297154    0.521411   -0.149418
     51          6           0        7.618963   -0.092225   -0.828640
     52          6           0        8.746392   -0.039019    0.082315
     53          6           0       10.116215   -0.449707   -0.691780
     54          6           0        9.947129   -1.977009   -1.176389
     55          6           0       11.292414   -0.188361    0.189257
     56          6           0       12.632467   -0.719390   -0.525849
     57          6           0       13.918763   -0.088041    0.192597
     58          6           0       15.284659   -0.282890   -0.546856
     59          6           0       15.563709   -1.642134   -1.064405
     60          6           0       16.323912    0.375606    0.412961
     61          6           0       17.706285    0.559568   -0.275929
     62          6           0       18.758438    1.262194    0.661435
     63          6           0       20.097620    1.392464    0.025983
     64          6           0       20.258372    2.104539   -1.277653
     65          6           0       20.967288    2.062955    1.114880
     66          1           0       -3.974475    3.612689    1.436649
     67          1           0      -10.012376    3.822002   -0.502646
     68          1           0      -10.104579   -2.385385   -1.463276
     69          1           0       -2.480786   -1.215731    2.139192
     70          1           0       -2.363737    1.541822    1.227402
     71          1           0       -1.956484    0.776675    3.679665
     72          1           0       -3.249309    2.127064    3.354911
     73          1           0       -3.797765    0.670330    3.789178
     74          1           0       -2.045542   -1.636941   -0.335752
     75          1           0       -2.194138   -0.014194   -0.611487
     76          1           0       -0.271588    0.388402    1.341065
     77          1           0       -0.180825   -1.593397    1.386499
     78          1           0       -5.657809    6.730466    0.521747
     79          1           0       -5.791354    6.142936    2.358741
     80          1           0       -4.445977    5.555223    1.657136
     81          1           0       -9.306060    6.026044   -0.221991
     82          1           0       -8.839735    8.141818    0.716647
     83          1           0       -7.453800    7.349713    1.704925
     84          1           0      -12.212936    3.330565   -2.347875
     85          1           0      -13.179677    2.044374   -1.569861
     86          1           0      -12.299724    3.247705   -0.663814
     87          1           0      -12.558671   -1.413936   -1.362042
     88          1           0      -13.255858    0.308631   -1.867356
     89          1           0      -12.723478   -1.791906   -3.903594
     90          1           0      -11.989408   -0.309196   -4.316951
     91          1           0      -10.988309   -1.574232   -3.431770
     92          1           0       -8.988285   -4.994807   -1.925357
     93          1           0       -8.029175   -5.692001   -0.597235
     94          1           0       -9.873604   -5.019360   -0.355300
     95          1           0       -3.402667   -3.376949   -0.258320
     96          1           0       -1.421834   -4.654031    3.425724
     97          1           0       -2.851691   -5.544257    3.682731
     98          1           0       -1.489504   -6.006867    2.606137
     99          1           0        2.662566   -1.582788   -1.608458
    100          1           0        2.588473    0.140912   -1.915718
    101          1           0        4.213004   -1.078267    0.428299
    102          1           0        4.069872    1.430445   -2.831766
    103          1           0        5.490794    2.238195   -2.090186
    104          1           0        5.695259    0.739349   -3.009043
    105          1           0        6.552895    1.485333    0.118600
    106          1           0        6.172973    0.171015    0.769336
    107          1           0        7.280978   -1.012010   -1.362610
    108          1           0        7.891403    0.460593   -1.873418
    109          1           0        8.795688    1.064753    0.324779
    110          1           0        8.739145   -0.544205    1.023607
    111          1           0       10.143297    0.159407   -1.579588
    112          1           0        9.232924   -2.159017   -2.079048
    113          1           0       10.951687   -2.346421   -1.571075
    114          1           0        9.840489   -2.480581   -0.042539
    115          1           0       11.504566    1.006914    0.009491
    116          1           0       11.255551   -0.612730    1.335876
    117          1           0       12.602995   -1.887393   -0.539496
    118          1           0       12.769686   -0.510081   -1.555676
    119          1           0       13.714489    0.933521    0.318887
    120          1           0       13.822275   -0.508799    1.184997
    121          1           0       15.221966    0.313921   -1.398193
    122          1           0       15.351790   -2.220513   -0.164144
    123          1           0       15.068688   -1.926410   -1.764102
    124          1           0       16.618655   -1.720838   -1.317202
    125          1           0       15.819996    1.232277    0.731009
    126          1           0       16.395970   -0.247046    1.256350
    127          1           0       18.219980   -0.388157   -0.569723
    128          1           0       17.799462    1.247030   -1.156739
    129          1           0       18.380648    2.273531    1.010638
    130          1           0       18.728253    0.664971    1.564273
    131          1           0       20.532017    0.415545   -0.322452
    132          1           0       19.846160    3.152421   -1.311615
    133          1           0       21.314548    2.257315   -1.609208
    134          1           0       19.544518    1.613237   -2.112847
    135          1           0       21.188409    1.560150    1.932598
    136          1           0       22.107035    1.745316    0.832557
    137          1           0       20.840406    3.148237    1.109467
 ---------------------------------------------------------------------

 SCF Done:  E(RCAM-B3LYP) =  -2933.44915258     A.U. after   16 cycles

 Excitation energies and oscillator strengths:

 Excited State   1:      Singlet-A      1.8610 eV  666.22 nm  f=0.3801  <S**2>=0.000
     240 -> 243        0.18581
     241 -> 242        0.68435
 This state for optimization and/or second-order correction.
 Total Energy, E(TD-HF/TD-DFT) =  -2933.38076129
 Copying the excited state density for this state as the 1-particle RhoCI density.

 The electronic state is 1-A.
 Alpha  occ. eigenvalues --  -46.80125 -19.21382 -19.19337 -19.18845 -19.17610
 Alpha  occ. eigenvalues --  -19.17087 -14.38271 -14.36203 -14.35738 -14.35441
 Alpha  occ. eigenvalues --  -10.34848 -10.34206 -10.32000 -10.26620 -10.26558
 Alpha  occ. eigenvalues --  -10.26469 -10.25763 -10.25759 -10.25646 -10.25474
 Alpha  occ. eigenvalues --  -10.25421 -10.24952 -10.24876 -10.24836 -10.24418
 Alpha  occ. eigenvalues --  -10.24122 -10.24045 -10.23928 -10.23772 -10.23622
 Alpha  occ. eigenvalues --  -10.23144 -10.23091 -10.23014 -10.22948 -10.22890
 Alpha  occ. eigenvalues --  -10.22884 -10.22838 -10.22766 -10.22698 -10.22502
 Alpha  occ. eigenvalues --  -10.22400 -10.22264 -10.22142 -10.22137 -10.22066
 Alpha  occ. eigenvalues --  -10.21961 -10.21923 -10.21683 -10.21617 -10.21577
 Alpha  occ. eigenvalues --  -10.21458 -10.21424 -10.21386 -10.21202 -10.21048
 Alpha  occ. eigenvalues --  -10.21008 -10.20896 -10.20846 -10.20227 -10.20091
 Alpha  occ. eigenvalues --  -10.19892 -10.19870 -10.19830 -10.19682 -10.17361
 Alpha  occ. eigenvalues --   -3.08820  -1.83752  -1.83307  -1.83220  -1.14148
 Alpha  occ. eigenvalues --   -1.13544  -1.06111  -1.05046  -1.04874  -0.99793
 Alpha  occ. eigenvalues --   -0.98720  -0.97719  -0.96822  -0.89447  -0.85323
 Alpha  occ. eigenvalues --   -0.85025  -0.84755  -0.84405  -0.84067  -0.83992
 Alpha  occ. eigenvalues --   -0.83978  -0.83461  -0.83096  -0.81591  -0.80801
 Alpha  occ. eigenvalues --   -0.79771  -0.79022  -0.78442  -0.78159  -0.77440
 Alpha  occ. eigenvalues --   -0.76487  -0.76151  -0.75320  -0.74482  -0.72599
 Alpha  occ. eigenvalues --   -0.72314  -0.72068  -0.72040  -0.71808  -0.71313
 Alpha  occ. eigenvalues --   -0.71213  -0.70742  -0.68765  -0.68453  -0.67965
 Alpha  occ. eigenvalues --   -0.67167  -0.65351  -0.65033  -0.64624  -0.64250
 Alpha  occ. eigenvalues --   -0.62726  -0.62274  -0.61417  -0.60984  -0.60833
 Alpha  occ. eigenvalues --   -0.60742  -0.59340  -0.58982  -0.58108  -0.58005
 Alpha  occ. eigenvalues --   -0.57589  -0.57127  -0.56489  -0.56017  -0.55804
 Alpha  occ. eigenvalues --   -0.55036  -0.54647  -0.54089  -0.53654  -0.52371
 Alpha  occ. eigenvalues --   -0.52011  -0.51474  -0.51361  -0.51091  -0.50671
 Alpha  occ. eigenvalues --   -0.50494  -0.50320  -0.50254  -0.49798  -0.49764
 Alpha  occ. eigenvalues --   -0.49503  -0.48702  -0.48599  -0.48240  -0.48177
 Alpha  occ. eigenvalues --   -0.47712  -0.47660  -0.47600  -0.47053  -0.46862
 Alpha  occ. eigenvalues --   -0.46820  -0.46591  -0.46364  -0.46129  -0.46006
 Alpha  occ. eigenvalues --   -0.45749  -0.45648  -0.45356  -0.44826  -0.44791
 Alpha  occ. eigenvalues --   -0.44730  -0.44386  -0.43901  -0.43722  -0.43622
 Alpha  occ. eigenvalues --   -0.43571  -0.43268  -0.43240  -0.43135  -0.42873
 Alpha  occ. eigenvalues --   -0.42844  -0.42750  -0.42659  -0.42036  -0.41620
 Alpha  occ. eigenvalues --   -0.41539  -0.41310  -0.41218  -0.41010  -0.40808
 Alpha  occ. eigenvalues --   -0.40772  -0.40484  -0.40256  -0.40173  -0.40153
 Alpha  occ. eigenvalues --   -0.39740  -0.39507  -0.39299  -0.39197  -0.39031
 Alpha  occ. eigenvalues --   -0.38895  -0.38601  -0.38349  -0.38205  -0.38183
 Alpha  occ. eigenvalues --   -0.38066  -0.37871  -0.37424  -0.37239  -0.36964
 Alpha  occ. eigenvalues --   -0.36413  -0.36364  -0.36241  -0.36210  -0.35571
 Alpha  occ. eigenvalues --   -0.35522  -0.35383  -0.34815  -0.34620  -0.34153
 Alpha  occ. eigenvalues --   -0.34040  -0.33821  -0.33652  -0.33483  -0.33403
 Alpha  occ. eigenvalues --   -0.33112  -0.32936  -0.32918  -0.32905  -0.32332
 Alpha  occ. eigenvalues --   -0.32037  -0.31378  -0.31012  -0.30612  -0.30487
 Alpha  occ. eigenvalues --   -0.29932  -0.29771  -0.29191  -0.28923  -0.28214
 Alpha  occ. eigenvalues --   -0.27988  -0.26869  -0.26339  -0.24716  -0.22212
 Alpha  occ. eigenvalues --   -0.19722
 Alpha virt. eigenvalues --   -0.08098  -0.03033  -0.01296   0.02040   0.03417
 Alpha virt. eigenvalues --    0.03869   0.04698   0.05061   0.05110   0.05338
 Alpha virt. eigenvalues --    0.06135   0.08439   0.08813   0.08993   0.09343

 Mulliken charges:
               1
     1  Mg   0.820557
     2  C    0.161941
     3  C   -0.165010
     4  C   -0.155377
     5  C   -0.170439
     6  N   -0.621146
     7  C    0.279675
     8  C   -0.171553
     9  C   -0.117835
    10  C    0.279846
    11  C   -0.294170
    12  C   -0.169786
    13  C   -0.269306
    14  C    0.591980
    15  O   -0.456265
    16  O   -0.456564
    17  N   -0.705012
    18  C    0.321892
    19  C   -0.008328
    20  C    0.013459
    21  C    0.287433
    22  C   -0.373657
    23  C   -0.033222
    24  C   -0.266375
    25  N   -0.731827
    26  C    0.337300
    27  C    0.078426
    28  C    0.013365
    29  C    0.331770
    30  C   -0.404446
    31  C   -0.225964
    32  C   -0.308584
    33  N   -0.710241
    34  C    0.260082
    35  C   -0.024582
    36  C    0.106160
    37  C    0.223003
    38  C   -0.380567
    39  C    0.388500
    40  O   -0.452578
    41  C   -0.363469
    42  C    0.601617
    43  O   -0.388157
    44  O   -0.494559
    45  C   -0.058208
    46  C    0.005013
    47  C   -0.117704
    48  C    0.089680
    49  C   -0.367089
    50  C   -0.226804
    51  C   -0.166251
    52  C   -0.161000
    53  C   -0.056104
    54  C   -0.298296
    55  C   -0.163113
    56  C   -0.202256
    57  C   -0.195506
    58  C   -0.075341
    59  C   -0.280873
    60  C   -0.164988
    61  C   -0.194194
    62  C   -0.159021
    63  C   -0.044978
    64  C   -0.311479
    65  C   -0.297488
    66  H    0.080125
    67  H    0.070557
    68  H    0.089884
    69  H    0.103495
    70  H    0.112269
    71  H    0.117602
    72  H    0.107028
    73  H    0.122999
    74  H    0.119443
    75  H    0.113152
    76  H    0.123248
    77  H    0.125124
    78  H    0.142720
    79  H    0.140880
    80  H    0.057609
    81  H    0.078511
    82  H    0.099550
    83  H    0.092908
    84  H    0.127857
    85  H    0.101194
    86  H    0.133277
    87  H    0.110463
    88  H    0.071470
    89  H    0.103830
    90  H    0.086363
    91  H    0.110311
    92  H    0.110906
    93  H    0.144588
    94  H    0.097869
    95  H    0.163771
    96  H    0.092404
    97  H    0.110378
    98  H    0.119975
    99  H    0.125711
   100  H    0.111060
   101  H    0.097860
   102  H    0.124995
   103  H    0.105153
   104  H    0.125390
   105  H    0.097645
   106  H    0.104523
   107  H    0.097870
   108  H    0.061209
   109  H    0.087567
   110  H    0.095970
   111  H    0.090062
   112  H    0.104093
   113  H    0.097356
   114  H    0.077273
   115  H    0.080542
   116  H    0.081142
   117  H    0.080761
   118  H    0.097303
   119  H    0.094191
   120  H    0.087043
   121  H    0.084157
   122  H    0.093096
   123  H    0.105461
   124  H    0.093665
   125  H    0.097286
   126  H    0.094443
   127  H    0.091393
   128  H    0.088901
   129  H    0.077955
   130  H    0.093227
   131  H    0.085277
   132  H    0.088162
   133  H    0.109545
   134  H    0.080920
   135  H    0.117416
   136  H    0.047913
   137  H    0.112720
 Sum of Mulliken charges =  -0.00000

 Dipole moment (field-independent basis, Debye):
    X=              1.5212    Y=              4.8821    Z=             -0.0172  Tot=              5.1136
 Quadrupole moment (field-independent basis, Debye-Ang):
   XX=           -339.0259   YY=           -403.6706   ZZ=           -393.8363
   XY=            -25.9233   XZ=             13.2000   YZ=              0.7165

 Normal termination of Gaussian 16 at Mon Sep  9 13:33:56 2019.
