 Gaussian 09, Revision D.01,
 Gaussian 09:  ES64L-G09RevD.01 24-Apr-2013

 -------------------------------------
 # td=(NStates=1) CAM-B3LYP/6-31G(d,p)
 -------------------------------------

 --
 TD
 --
 Symbolic Z-matrix:
 Charge =  0 Multiplicity = 1

                         Standard orientation:
 ---------------------------------------------------------------------
 Center     Atomic      Atomic             Coordinates (Angstroms)
 Number     Number       Type             X           Y           Z
 ---------------------------------------------------------------------
      1         12           0       -7.142546    0.589052    0.156904
      2          6           0       -4.845075   -1.978077    0.528812
      3          6           0       -4.855126    2.746693    1.230863
      4          6           0       -9.406800    3.106511   -0.253925
      5          6           0       -9.475557   -1.702494   -0.829024
      6          7           0       -5.081362    0.420417    0.752919
      7          6           0       -4.363887   -0.793932    0.848489
      8          6           0       -2.878149   -0.405132    1.137704
      9          6           0       -3.013003    1.095708    1.640184
     10          6           0       -4.350320    1.477907    1.127155
     11          6           0       -2.876056    1.221331    3.118917
     12          6           0       -1.953103   -0.651015   -0.017888
     13          6           0       -0.468574   -0.466738    0.301594
     14          6           0        0.513081   -0.640057   -0.820284
     15          8           0        0.224293   -0.959413   -1.896226
     16          8           0        1.712761   -0.454982   -0.338327
     17          7           0       -7.127177    2.559026    0.397890
     18          6           0       -6.044838    3.276302    0.866651
     19          6           0       -6.391976    4.700119    0.950666
     20          6           0       -7.734521    4.903082    0.524855
     21          6           0       -8.258390    3.517011    0.216033
     22          6           0       -5.379212    5.773234    1.234816
     23          6           0       -8.536172    5.969036    0.132827
     24          6           0       -8.646622    7.210739    0.831621
     25          7           0       -9.120988    0.675391   -0.575426
     26          6           0       -9.836222    1.810776   -0.733165
     27          6           0      -11.194091    1.449626   -1.250657
     28          6           0      -11.201622    0.145310   -1.406192
     29          6           0       -9.846464   -0.349018   -0.957231
     30          6           0      -12.206235    2.488794   -1.437721
     31          6           0      -12.364345   -0.713778   -1.861747
     32          6           0      -12.350531   -0.797234   -3.402055
     33          7           0       -7.262101   -1.371181   -0.026855
     34          6           0       -8.206747   -2.221711   -0.344204
     35          6           0       -7.898472   -3.611533   -0.405683
     36          6           0       -6.545545   -3.641294    0.019785
     37          6           0       -6.212346   -2.204437    0.240769
     38          6           0       -8.796322   -4.858776   -0.768178
     39          6           0       -5.384513   -4.371389    0.295581
     40          8           0       -5.214661   -5.583977    0.313325
     41          6           0       -4.200581   -3.333920    0.523956
     42          6           0       -3.550010   -3.611341    1.892782
     43          8           0       -3.776280   -3.056172    2.978370
     44          8           0       -2.873077   -4.696392    1.835513
     45          6           0       -2.259573   -5.218565    3.026412
     46          6           0        2.779450   -0.758392   -1.257266
     47          6           0        4.114503   -0.574941   -0.570935
     48          6           0        5.060567    0.294604   -1.010918
     49          6           0        4.946247    1.083088   -2.213279
     50          6           0        6.375120    0.427186   -0.262339
     51          6           0        7.682352   -0.085246   -0.960155
     52          6           0        8.975924    0.007711   -0.187512
     53          6           0       10.245076   -0.484468   -0.891645
     54          6           0       10.115102   -1.904435   -1.417077
     55          6           0       11.422839   -0.163692   -0.012306
     56          6           0       12.842124   -0.560026   -0.761233
     57          6           0       14.077153   -0.146876    0.044150
     58          6           0       15.398431   -0.269695   -0.585422
     59          6           0       15.727706   -1.653153   -0.947305
     60          6           0       16.394176    0.393389    0.372289
     61          6           0       17.862771    0.527121   -0.116807
     62          6           0       18.850158    1.226960    0.832350
     63          6           0       20.289608    1.304779    0.367622
     64          6           0       20.428943    2.133840   -0.887432
     65          6           0       21.200127    2.004328    1.426405
     66          1           0       -4.081566    3.488973    1.468728
     67          1           0      -10.184486    4.028652   -0.431852
     68          1           0      -10.176952   -2.452424   -1.116913
     69          1           0       -2.687135   -0.972433    2.074039
     70          1           0       -2.318499    1.759376    1.163122
     71          1           0       -1.897618    0.842009    3.324847
     72          1           0       -2.856577    2.278318    3.507655
     73          1           0       -3.747995    0.592683    3.506139
     74          1           0       -2.110652   -1.618147   -0.212321
     75          1           0       -2.198947   -0.048322   -0.920108
     76          1           0       -0.393155    0.591100    0.689831
     77          1           0       -0.247816   -1.181697    1.216897
     78          1           0       -5.801648    6.650903    0.899225
     79          1           0       -5.191996    5.763423    2.278038
     80          1           0       -4.443010    5.634626    0.537973
     81          1           0       -9.251384    5.838103   -0.658117
     82          1           0       -9.041403    8.060405    0.242636
     83          1           0       -7.942271    7.711091    1.568668
     84          1           0      -11.727114    3.402418   -2.118269
     85          1           0      -13.032055    2.073113   -2.050155
     86          1           0      -12.526177    3.020860   -0.492425
     87          1           0      -12.148303   -1.848499   -1.623974
     88          1           0      -13.297821   -0.252048   -1.556058
     89          1           0      -13.013859   -1.738317   -3.785326
     90          1           0      -12.884687    0.175448   -3.898634
     91          1           0      -11.243629   -0.968812   -3.849935
     92          1           0       -9.399803   -4.936505   -1.732509
     93          1           0       -8.201362   -5.802555   -0.808745
     94          1           0       -9.369283   -5.129141    0.297083
     95          1           0       -3.458502   -3.477783   -0.116301
     96          1           0       -1.567068   -4.327489    3.294186
     97          1           0       -3.131525   -5.505394    3.775471
     98          1           0       -1.743758   -6.105713    2.780677
     99          1           0        2.874075   -1.839379   -1.492673
    100          1           0        2.489206   -0.188055   -2.271273
    101          1           0        4.392620   -1.146196    0.345541
    102          1           0        3.975675    1.330382   -2.456178
    103          1           0        5.432656    1.941790   -2.084044
    104          1           0        5.145417    0.557897   -3.093166
    105          1           0        6.567610    1.466491    0.036628
    106          1           0        6.247130   -0.060386    0.665937
    107          1           0        7.441246   -1.215444   -1.390194
    108          1           0        7.962858    0.472388   -1.857026
    109          1           0        8.975511    1.018484    0.347870
    110          1           0        8.918845   -0.674466    0.698792
    111          1           0       10.171548   -0.017693   -2.000101
    112          1           0        9.340634   -2.124315   -2.104839
    113          1           0       11.041662   -2.095876   -2.083184
    114          1           0       10.278064   -2.546804   -0.414372
    115          1           0       11.517727    0.827441    0.341465
    116          1           0       11.550657   -0.880881    0.803747
    117          1           0       12.817337   -1.658190   -1.004307
    118          1           0       12.978394    0.048313   -1.757529
    119          1           0       13.661590    0.868464    0.467361
    120          1           0       14.074216   -0.646270    1.144336
    121          1           0       15.445204    0.331517   -1.704344
    122          1           0       15.793664   -2.287412   -0.049348
    123          1           0       15.150948   -2.242289   -1.688715
    124          1           0       16.920292   -1.702784   -1.195987
    125          1           0       15.981082    1.405767    0.728394
    126          1           0       16.466597   -0.277583    1.338951
    127          1           0       18.373166   -0.411466   -0.382292
    128          1           0       17.843877    1.171869   -0.964650
    129          1           0       18.329464    2.333142    0.791205
    130          1           0       18.829098    0.892677    1.783213
    131          1           0       20.684844    0.219210    0.272690
    132          1           0       20.192524    3.085212   -0.932192
    133          1           0       21.587679    2.229865   -1.176819
    134          1           0       20.039569    1.748936   -1.810033
    135          1           0       21.248534    1.498369    2.487160
    136          1           0       22.383791    2.164392    1.135540
    137          1           0       20.837977    3.067028    1.424847
 ---------------------------------------------------------------------

 SCF Done:  E(RCAM-B3LYP) =  -2932.70904445     A.U. after   17 cycles

 Excitation energies and oscillator strengths:

 Excited State   1:      Singlet-A      2.1929 eV  565.38 nm  f=0.2824  <S**2>=0.000
     240 -> 242       -0.17356
     240 -> 243        0.20290
     241 -> 242        0.63237
     241 -> 243        0.12961
 This state for optimization and/or second-order correction.
 Total Energy, E(TD-HF/TD-KS) =  -2932.62845624
 Copying the excited state density for this state as the 1-particle RhoCI density.

 The electronic state is 1-A.
 Alpha  occ. eigenvalues --  -46.83864 -19.26411 -19.26069 -19.20834 -19.19000
 Alpha  occ. eigenvalues --  -19.18779 -14.40935 -14.39872 -14.39821 -14.39180
 Alpha  occ. eigenvalues --  -10.38318 -10.38100 -10.33839 -10.33089 -10.32469
 Alpha  occ. eigenvalues --  -10.30290 -10.30207 -10.30020 -10.29791 -10.29375
 Alpha  occ. eigenvalues --  -10.28952 -10.28730 -10.28701 -10.28670 -10.28566
 Alpha  occ. eigenvalues --  -10.28468 -10.28347 -10.28322 -10.28285 -10.27831
 Alpha  occ. eigenvalues --  -10.27733 -10.27640 -10.27603 -10.27586 -10.27541
 Alpha  occ. eigenvalues --  -10.27523 -10.27292 -10.27187 -10.27015 -10.26989
 Alpha  occ. eigenvalues --  -10.26914 -10.26744 -10.26742 -10.26717 -10.26432
 Alpha  occ. eigenvalues --  -10.26393 -10.26359 -10.26258 -10.26228 -10.26087
 Alpha  occ. eigenvalues --  -10.26071 -10.25978 -10.25853 -10.25810 -10.25756
 Alpha  occ. eigenvalues --  -10.25680 -10.25667 -10.25518 -10.25314 -10.25021
 Alpha  occ. eigenvalues --  -10.24930 -10.24796 -10.24544 -10.23848 -10.22972
 Alpha  occ. eigenvalues --   -3.13032  -1.87728  -1.87255  -1.87243  -1.20736
 Alpha  occ. eigenvalues --   -1.19654  -1.11840  -1.09314  -1.06794  -1.05350
 Alpha  occ. eigenvalues --   -1.04318  -1.03028  -1.00450  -0.92953  -0.91611
 Alpha  occ. eigenvalues --   -0.91108  -0.90129  -0.89942  -0.89618  -0.89215
 Alpha  occ. eigenvalues --   -0.89043  -0.88591  -0.87599  -0.86295  -0.85964
 Alpha  occ. eigenvalues --   -0.85012  -0.84315  -0.83653  -0.83219  -0.82727
 Alpha  occ. eigenvalues --   -0.82333  -0.81559  -0.80533  -0.80232  -0.78240
 Alpha  occ. eigenvalues --   -0.77607  -0.76917  -0.76879  -0.76282  -0.75802
 Alpha  occ. eigenvalues --   -0.75524  -0.74893  -0.74389  -0.73340  -0.72521
 Alpha  occ. eigenvalues --   -0.71764  -0.70369  -0.69476  -0.68990  -0.67817
 Alpha  occ. eigenvalues --   -0.67629  -0.66459  -0.65277  -0.64881  -0.63851
 Alpha  occ. eigenvalues --   -0.63361  -0.63086  -0.62839  -0.62272  -0.61656
 Alpha  occ. eigenvalues --   -0.61353  -0.60495  -0.59947  -0.59343  -0.58849
 Alpha  occ. eigenvalues --   -0.58374  -0.58131  -0.57934  -0.57651  -0.57358
 Alpha  occ. eigenvalues --   -0.56147  -0.55526  -0.55462  -0.55328  -0.54895
 Alpha  occ. eigenvalues --   -0.54716  -0.54685  -0.54378  -0.54147  -0.53362
 Alpha  occ. eigenvalues --   -0.52869  -0.52789  -0.52381  -0.52271  -0.52206
 Alpha  occ. eigenvalues --   -0.51741  -0.51509  -0.51169  -0.50907  -0.50558
 Alpha  occ. eigenvalues --   -0.50483  -0.50330  -0.49994  -0.49770  -0.49636
 Alpha  occ. eigenvalues --   -0.49463  -0.48885  -0.48676  -0.48542  -0.48220
 Alpha  occ. eigenvalues --   -0.48057  -0.47814  -0.47588  -0.47526  -0.47407
 Alpha  occ. eigenvalues --   -0.46889  -0.46768  -0.46306  -0.46079  -0.45961
 Alpha  occ. eigenvalues --   -0.45905  -0.45440  -0.45383  -0.45313  -0.44914
 Alpha  occ. eigenvalues --   -0.44586  -0.44294  -0.44237  -0.44055  -0.43955
 Alpha  occ. eigenvalues --   -0.43746  -0.43679  -0.43330  -0.43163  -0.42937
 Alpha  occ. eigenvalues --   -0.42774  -0.42492  -0.42409  -0.42286  -0.42056
 Alpha  occ. eigenvalues --   -0.41987  -0.41966  -0.41671  -0.41501  -0.41237
 Alpha  occ. eigenvalues --   -0.40847  -0.40760  -0.40740  -0.40313  -0.39930
 Alpha  occ. eigenvalues --   -0.39893  -0.39600  -0.39387  -0.39162  -0.39025
 Alpha  occ. eigenvalues --   -0.38997  -0.38611  -0.38399  -0.37847  -0.37724
 Alpha  occ. eigenvalues --   -0.37609  -0.37370  -0.37088  -0.37009  -0.36700
 Alpha  occ. eigenvalues --   -0.36556  -0.36334  -0.35545  -0.35306  -0.35184
 Alpha  occ. eigenvalues --   -0.35081  -0.34976  -0.34885  -0.33838  -0.33388
 Alpha  occ. eigenvalues --   -0.32960  -0.32685  -0.31959  -0.30702  -0.29648
 Alpha  occ. eigenvalues --   -0.29476  -0.29240  -0.29153  -0.27202  -0.23436
 Alpha  occ. eigenvalues --   -0.21198
 Alpha virt. eigenvalues --   -0.06169  -0.02908   0.00958   0.02997   0.06020
 Alpha virt. eigenvalues --    0.06459   0.06506   0.06802   0.07376   0.07946
 Alpha virt. eigenvalues --    0.09171   0.10005   0.11127   0.11644   0.11748

 Mulliken charges:
               1
     1  Mg   0.813555
     2  C    0.095628
     3  C   -0.216614
     4  C   -0.217143
     5  C   -0.161513
     6  N   -0.644402
     7  C    0.267706
     8  C   -0.181172
     9  C   -0.157299
    10  C    0.374297
    11  C   -0.293083
    12  C   -0.143623
    13  C   -0.280767
    14  C    0.610623
    15  O   -0.448066
    16  O   -0.447401
    17  N   -0.732891
    18  C    0.394989
    19  C   -0.024718
    20  C    0.097380
    21  C    0.282083
    22  C   -0.357406
    23  C   -0.140053
    24  C   -0.248685
    25  N   -0.655928
    26  C    0.270345
    27  C    0.063754
    28  C    0.025909
    29  C    0.297064
    30  C   -0.374812
    31  C   -0.233118
    32  C   -0.286510
    33  N   -0.684586
    34  C    0.252681
    35  C    0.040106
    36  C    0.041011
    37  C    0.224079
    38  C   -0.378189
    39  C    0.331131
    40  O   -0.481295
    41  C   -0.300274
    42  C    0.581574
    43  O   -0.512252
    44  O   -0.407667
    45  C   -0.071927
    46  C    0.002445
    47  C   -0.160744
    48  C    0.129252
    49  C   -0.358739
    50  C   -0.236681
    51  C   -0.171387
    52  C   -0.158959
    53  C   -0.043122
    54  C   -0.300907
    55  C   -0.189195
    56  C   -0.193810
    57  C   -0.155614
    58  C   -0.019383
    59  C   -0.306547
    60  C   -0.169610
    61  C   -0.184304
    62  C   -0.149403
    63  C   -0.049394
    64  C   -0.315232
    65  C   -0.294818
    66  H    0.068498
    67  H    0.077986
    68  H    0.088665
    69  H    0.127128
    70  H    0.097160
    71  H    0.116349
    72  H    0.103721
    73  H    0.125715
    74  H    0.116260
    75  H    0.114745
    76  H    0.120842
    77  H    0.115919
    78  H    0.125875
    79  H    0.137036
    80  H    0.111568
    81  H    0.118245
    82  H    0.099726
    83  H    0.105003
    84  H    0.092867
    85  H    0.108413
    86  H    0.128447
    87  H    0.104452
    88  H    0.117326
    89  H    0.082105
    90  H    0.085923
    91  H    0.103828
    92  H    0.122343
    93  H    0.149465
    94  H    0.111040
    95  H    0.154408
    96  H    0.121688
    97  H    0.133280
    98  H    0.137167
    99  H    0.125935
   100  H    0.121352
   101  H    0.095680
   102  H    0.114417
   103  H    0.115830
   104  H    0.132331
   105  H    0.096533
   106  H    0.101938
   107  H    0.068929
   108  H    0.095962
   109  H    0.083243
   110  H    0.079600
   111  H    0.058637
   112  H    0.120526
   113  H    0.097767
   114  H    0.076883
   115  H    0.107712
   116  H    0.107785
   117  H    0.095064
   118  H    0.078734
   119  H    0.075848
   120  H    0.063295
   121  H    0.051003
   122  H    0.099167
   123  H    0.114178
   124  H    0.080912
   125  H    0.093035
   126  H    0.075354
   127  H    0.089604
   128  H    0.103837
   129  H    0.054123
   130  H    0.095230
   131  H    0.081997
   132  H    0.121243
   133  H    0.071794
   134  H    0.105932
   135  H    0.087863
   136  H    0.077714
   137  H    0.103449
 Sum of Mulliken charges =   0.00000

 Dipole moment (field-independent basis, Debye):
    X=              2.4821    Y=              4.7301    Z=             -0.4665  Tot=              5.3621
 Quadrupole moment (field-independent basis, Debye-Ang):
   XX=           -358.2450   YY=           -388.9856   ZZ=           -400.5798
   XY=            -25.1579   XZ=             14.8125   YZ=             -3.0027

 Normal termination of Gaussian 09 at Sat Jul  6 21:10:33 2019.
