 Gaussian 09, Revision D.01,
 Gaussian 09:  ES64L-G09RevD.01 24-Apr-2013

 -------------------------------------
 # td=(NStates=1) CAM-B3LYP/6-31G(d,p)
 -------------------------------------

 --
 TD
 --
 Symbolic Z-matrix:
 Charge =  0 Multiplicity = 1

                         Standard orientation:
 ---------------------------------------------------------------------
 Center     Atomic      Atomic             Coordinates (Angstroms)
 Number     Number       Type             X           Y           Z
 ---------------------------------------------------------------------
      1         12           0       -7.089331    0.616356    0.138561
      2          6           0       -4.907126   -1.949025    0.543151
      3          6           0       -4.714190    2.818386    1.269922
      4          6           0       -9.336838    3.140814   -0.486640
      5          6           0       -9.646434   -1.811399   -0.777638
      6          7           0       -5.071951    0.518739    0.807363
      7          6           0       -4.352568   -0.712495    0.873288
      8          6           0       -2.846476   -0.472715    1.249004
      9          6           0       -2.995896    1.052169    1.708859
     10          6           0       -4.366652    1.503737    1.160720
     11          6           0       -2.918149    1.200466    3.133847
     12          6           0       -1.951515   -0.605561    0.052297
     13          6           0       -0.440680   -0.534217    0.502334
     14          6           0        0.550050   -0.739888   -0.681378
     15          8           0        0.340816   -1.144319   -1.774654
     16          8           0        1.848975   -0.558856   -0.209702
     17          7           0       -7.009021    2.604320    0.227354
     18          6           0       -5.967115    3.353567    0.822102
     19          6           0       -6.395855    4.740683    0.866595
     20          6           0       -7.640198    4.791588    0.336863
     21          6           0       -8.087116    3.464495   -0.026193
     22          6           0       -5.485767    5.867221    1.372070
     23          6           0       -8.560315    6.007461    0.109096
     24          6           0       -8.410139    7.148449    0.799337
     25          7           0       -9.048102    0.719361   -0.595950
     26          6           0       -9.765814    1.765033   -0.795346
     27          6           0      -11.194155    1.498606   -1.134550
     28          6           0      -11.267026    0.095087   -1.218894
     29          6           0       -9.857522   -0.386802   -0.897539
     30          6           0      -12.294512    2.455716   -1.353068
     31          6           0      -12.374129   -0.689104   -1.798478
     32          6           0      -12.065440   -1.256369   -3.203792
     33          7           0       -7.202668   -1.328537   -0.208666
     34          6           0       -8.287404   -2.205118   -0.515696
     35          6           0       -7.929601   -3.531729   -0.503583
     36          6           0       -6.599502   -3.545609   -0.058246
     37          6           0       -6.298956   -2.266351    0.153952
     38          6           0       -8.694083   -4.836348   -0.885814
     39          6           0       -5.379804   -4.327817    0.245451
     40          8           0       -5.228141   -5.537767    0.282081
     41          6           0       -4.215056   -3.380013    0.611154
     42          6           0       -3.638238   -3.655511    1.874590
     43          8           0       -3.757924   -3.136963    2.984205
     44          8           0       -2.826877   -4.751857    1.789738
     45          6           0       -2.230203   -5.175725    2.978485
     46          6           0        2.907623   -0.703164   -1.246507
     47          6           0        4.163146   -0.363776   -0.634940
     48          6           0        5.058803    0.509075   -1.040698
     49          6           0        4.889172    1.372507   -2.254839
     50          6           0        6.364503    0.651255   -0.284498
     51          6           0        7.561228    0.000251   -1.075681
     52          6           0        8.823961    0.077577   -0.219563
     53          6           0       10.093565   -0.444189   -1.071842
     54          6           0       10.133393   -1.975611   -1.284083
     55          6           0       11.336079   -0.198939   -0.183370
     56          6           0       12.674699   -0.379558   -0.837984
     57          6           0       13.966501   -0.064118    0.098504
     58          6           0       15.306809   -0.171618   -0.555182
     59          6           0       15.715481   -1.756219   -0.866165
     60          6           0       16.432585    0.394690    0.451863
     61          6           0       17.732591    0.433085   -0.169370
     62          6           0       18.767482    1.246266    0.777352
     63          6           0       20.233665    1.092966    0.357388
     64          6           0       20.477588    1.967194   -0.966378
     65          6           0       21.124659    1.672935    1.470464
     66          1           0       -4.053971    3.575060    1.606714
     67          1           0      -10.130986    3.920054   -0.562606
     68          1           0      -10.412397   -2.471456   -0.884162
     69          1           0       -2.558272   -1.207426    2.026766
     70          1           0       -2.242785    1.516377    1.379845
     71          1           0       -1.791241    1.121075    3.368501
     72          1           0       -3.065715    2.183309    3.556256
     73          1           0       -3.527965    0.357187    3.505878
     74          1           0       -2.199567   -1.603849   -0.426250
     75          1           0       -2.131444    0.381140   -0.630944
     76          1           0       -0.162826    0.323698    1.022931
     77          1           0       -0.313256   -1.111919    1.385714
     78          1           0       -5.668134    6.818591    0.811234
     79          1           0       -5.558006    5.974930    2.396814
     80          1           0       -4.420196    5.666349    1.068652
     81          1           0       -9.346482    5.937897   -0.619398
     82          1           0       -8.910219    7.932099    0.532522
     83          1           0       -7.580233    7.331599    1.582055
     84          1           0      -12.070543    3.002470   -2.363899
     85          1           0      -13.278772    2.004057   -1.480776
     86          1           0      -12.226771    3.224282   -0.619102
     87          1           0      -12.339101   -1.661572   -1.159789
     88          1           0      -13.429824   -0.093015   -1.902030
     89          1           0      -12.730529   -1.940218   -3.617479
     90          1           0      -12.247865   -0.523000   -3.854037
     91          1           0      -10.957249   -1.488498   -3.461540
     92          1           0       -8.670986   -4.795929   -2.089506
     93          1           0       -7.926940   -5.751621   -0.653192
     94          1           0       -9.953399   -4.875524   -0.572495
     95          1           0       -3.315078   -3.323826   -0.007606
     96          1           0       -1.355671   -4.446439    3.413992
     97          1           0       -3.040470   -5.389260    3.710453
     98          1           0       -1.692542   -6.284235    2.723114
     99          1           0        2.803792   -1.565219   -1.450702
    100          1           0        2.558479    0.051116   -1.886125
    101          1           0        4.510279   -0.891868    0.337482
    102          1           0        3.906613    1.248927   -2.842756
    103          1           0        5.018518    2.469855   -1.776954
    104          1           0        5.717029    1.241974   -2.959523
    105          1           0        6.344617    1.621446   -0.157488
    106          1           0        6.355135   -0.004609    0.685282
    107          1           0        7.214667   -1.152377   -1.171697
    108          1           0        7.609360    0.574010   -1.940962
    109          1           0        9.199575    1.046982    0.165023
    110          1           0        8.684077   -0.547543    0.737522
    111          1           0       10.141164    0.199884   -1.771505
    112          1           0        9.293769   -2.198107   -1.879437
    113          1           0       11.039810   -2.231415   -1.810955
    114          1           0       10.005203   -2.542700   -0.202521
    115          1           0       11.186812    0.877141    0.391999
    116          1           0       11.175341   -0.782585    0.888927
    117          1           0       12.803175   -1.334487   -1.055032
    118          1           0       12.728492    0.252885   -1.773418
    119          1           0       13.919601    0.981432    0.421263
    120          1           0       13.790006   -0.748834    0.972472
    121          1           0       15.465763    0.665925   -1.382781
    122          1           0       15.821924   -2.127679    0.187289
    123          1           0       15.035246   -1.926999   -1.679209
    124          1           0       16.676677   -1.680886   -1.353423
    125          1           0       16.189519    1.330081    0.828770
    126          1           0       16.523360   -0.098004    1.317059
    127          1           0       18.091428   -0.664667   -0.347905
    128          1           0       17.668897    0.961421   -1.200299
    129          1           0       18.403415    2.211309    0.912322
    130          1           0       18.650066    0.855004    1.704919
    131          1           0       20.446319    0.177224   -0.013245
    132          1           0       20.038205    3.019657   -0.804732
    133          1           0       21.611703    2.105456   -1.175260
    134          1           0       19.947004    1.470145   -1.863988
    135          1           0       20.947200    1.143690    2.363025
    136          1           0       22.133077    1.882794    1.184100
    137          1           0       20.838822    2.758095    1.624663
 ---------------------------------------------------------------------

 SCF Done:  E(RCAM-B3LYP) =  -2932.59469406     A.U. after   17 cycles

 Excitation energies and oscillator strengths:

 Excited State   1:      Singlet-A      2.2550 eV  549.82 nm  f=0.2081  <S**2>=0.000
     240 -> 242        0.19902
     240 -> 243       -0.22294
     241 -> 242        0.61708
     241 -> 243        0.13745
 This state for optimization and/or second-order correction.
 Total Energy, E(TD-HF/TD-KS) =  -2932.51182409
 Copying the excited state density for this state as the 1-particle RhoCI density.

 The electronic state is 1-A.
 Alpha  occ. eigenvalues --  -46.83919 -19.25150 -19.23520 -19.21157 -19.20256
 Alpha  occ. eigenvalues --  -19.19866 -14.41400 -14.40711 -14.39298 -14.39238
 Alpha  occ. eigenvalues --  -10.38920 -10.38592 -10.35373 -10.32546 -10.31274
 Alpha  occ. eigenvalues --  -10.30632 -10.30521 -10.30459 -10.30018 -10.29956
 Alpha  occ. eigenvalues --  -10.29844 -10.28833 -10.28626 -10.28487 -10.28436
 Alpha  occ. eigenvalues --  -10.28223 -10.28219 -10.28109 -10.28087 -10.27810
 Alpha  occ. eigenvalues --  -10.27678 -10.27649 -10.27619 -10.27572 -10.27393
 Alpha  occ. eigenvalues --  -10.27292 -10.27090 -10.27057 -10.27012 -10.26846
 Alpha  occ. eigenvalues --  -10.26758 -10.26693 -10.26588 -10.26561 -10.26425
 Alpha  occ. eigenvalues --  -10.26053 -10.25980 -10.25742 -10.25535 -10.25412
 Alpha  occ. eigenvalues --  -10.25408 -10.25340 -10.25291 -10.25201 -10.25197
 Alpha  occ. eigenvalues --  -10.25196 -10.25141 -10.24894 -10.24828 -10.24571
 Alpha  occ. eigenvalues --  -10.24260 -10.24114 -10.23990 -10.23663 -10.22428
 Alpha  occ. eigenvalues --   -3.13104  -1.87798  -1.87359  -1.87283  -1.17918
 Alpha  occ. eigenvalues --   -1.16827  -1.10573  -1.08338  -1.07661  -1.05093
 Alpha  occ. eigenvalues --   -1.04578  -1.03558  -1.02078  -0.92304  -0.91763
 Alpha  occ. eigenvalues --   -0.90695  -0.90211  -0.89465  -0.89345  -0.88766
 Alpha  occ. eigenvalues --   -0.88373  -0.87580  -0.87466  -0.86763  -0.86378
 Alpha  occ. eigenvalues --   -0.85478  -0.84582  -0.84240  -0.83496  -0.83103
 Alpha  occ. eigenvalues --   -0.81679  -0.81122  -0.80526  -0.79333  -0.78328
 Alpha  occ. eigenvalues --   -0.77628  -0.77231  -0.76007  -0.75286  -0.74976
 Alpha  occ. eigenvalues --   -0.74602  -0.74498  -0.74153  -0.73343  -0.72291
 Alpha  occ. eigenvalues --   -0.71345  -0.70561  -0.70287  -0.69474  -0.67889
 Alpha  occ. eigenvalues --   -0.66910  -0.66086  -0.65703  -0.64880  -0.64551
 Alpha  occ. eigenvalues --   -0.64323  -0.64022  -0.63619  -0.62510  -0.61953
 Alpha  occ. eigenvalues --   -0.61265  -0.60644  -0.60108  -0.59755  -0.59382
 Alpha  occ. eigenvalues --   -0.59053  -0.58651  -0.57796  -0.57521  -0.57275
 Alpha  occ. eigenvalues --   -0.56385  -0.55756  -0.55525  -0.55079  -0.54713
 Alpha  occ. eigenvalues --   -0.54201  -0.53782  -0.53316  -0.53134  -0.52919
 Alpha  occ. eigenvalues --   -0.52727  -0.52563  -0.52391  -0.52372  -0.51869
 Alpha  occ. eigenvalues --   -0.51487  -0.51347  -0.51008  -0.50926  -0.50783
 Alpha  occ. eigenvalues --   -0.50488  -0.50406  -0.50227  -0.49898  -0.49646
 Alpha  occ. eigenvalues --   -0.49450  -0.49368  -0.49197  -0.48984  -0.48688
 Alpha  occ. eigenvalues --   -0.48331  -0.48129  -0.47791  -0.47400  -0.47239
 Alpha  occ. eigenvalues --   -0.47097  -0.46915  -0.46820  -0.46549  -0.46195
 Alpha  occ. eigenvalues --   -0.46130  -0.45812  -0.45605  -0.45241  -0.45058
 Alpha  occ. eigenvalues --   -0.44937  -0.44680  -0.44190  -0.44149  -0.43861
 Alpha  occ. eigenvalues --   -0.43570  -0.43525  -0.43274  -0.43043  -0.42936
 Alpha  occ. eigenvalues --   -0.42715  -0.42491  -0.42373  -0.42208  -0.42028
 Alpha  occ. eigenvalues --   -0.41883  -0.41830  -0.41563  -0.41371  -0.41233
 Alpha  occ. eigenvalues --   -0.41174  -0.41029  -0.40482  -0.40396  -0.40361
 Alpha  occ. eigenvalues --   -0.40187  -0.39822  -0.39693  -0.39343  -0.39207
 Alpha  occ. eigenvalues --   -0.38834  -0.38778  -0.38574  -0.38349  -0.37960
 Alpha  occ. eigenvalues --   -0.37798  -0.37415  -0.37150  -0.36842  -0.36633
 Alpha  occ. eigenvalues --   -0.35980  -0.35867  -0.35761  -0.35327  -0.35104
 Alpha  occ. eigenvalues --   -0.34926  -0.34757  -0.34674  -0.33767  -0.33101
 Alpha  occ. eigenvalues --   -0.33044  -0.32483  -0.32235  -0.30946  -0.30169
 Alpha  occ. eigenvalues --   -0.29772  -0.29210  -0.28553  -0.27962  -0.23339
 Alpha  occ. eigenvalues --   -0.22077
 Alpha virt. eigenvalues --   -0.06377  -0.02736   0.01931   0.04423   0.05700
 Alpha virt. eigenvalues --    0.05939   0.06591   0.06940   0.07280   0.07584
 Alpha virt. eigenvalues --    0.08494   0.10251   0.10485   0.11228   0.11669

 Mulliken charges:
               1
     1  Mg   0.823570
     2  C    0.011061
     3  C   -0.203469
     4  C   -0.195063
     5  C   -0.105717
     6  N   -0.627661
     7  C    0.250661
     8  C   -0.172246
     9  C   -0.122083
    10  C    0.398546
    11  C   -0.296885
    12  C   -0.150256
    13  C   -0.277915
    14  C    0.604005
    15  O   -0.448994
    16  O   -0.541475
    17  N   -0.755338
    18  C    0.308885
    19  C    0.006857
    20  C   -0.000791
    21  C    0.347329
    22  C   -0.377901
    23  C   -0.072562
    24  C   -0.223055
    25  N   -0.641386
    26  C    0.318470
    27  C    0.016027
    28  C    0.026079
    29  C    0.229042
    30  C   -0.371794
    31  C   -0.244116
    32  C   -0.320081
    33  N   -0.699501
    34  C    0.219594
    35  C    0.011440
    36  C    0.037021
    37  C    0.273534
    38  C   -0.363504
    39  C    0.369271
    40  O   -0.462527
    41  C   -0.296917
    42  C    0.624865
    43  O   -0.492483
    44  O   -0.434838
    45  C   -0.058827
    46  C    0.093814
    47  C   -0.145721
    48  C    0.111315
    49  C   -0.361570
    50  C   -0.207629
    51  C   -0.171947
    52  C   -0.181666
    53  C   -0.041539
    54  C   -0.295951
    55  C   -0.168260
    56  C   -0.182782
    57  C   -0.162908
    58  C   -0.089726
    59  C   -0.324715
    60  C   -0.177106
    61  C   -0.180026
    62  C   -0.175624
    63  C   -0.050406
    64  C   -0.311871
    65  C   -0.312206
    66  H    0.076327
    67  H    0.092966
    68  H    0.099489
    69  H    0.127469
    70  H    0.088977
    71  H    0.083347
    72  H    0.111330
    73  H    0.131800
    74  H    0.115003
    75  H    0.096632
    76  H    0.134080
    77  H    0.140323
    78  H    0.125160
    79  H    0.140909
    80  H    0.113147
    81  H    0.101200
    82  H    0.099591
    83  H    0.100869
    84  H    0.107914
    85  H    0.118156
    86  H    0.125784
    87  H    0.096554
    88  H    0.095342
    89  H    0.111231
    90  H    0.120985
    91  H    0.109322
    92  H    0.114811
    93  H    0.148729
    94  H    0.093519
    95  H    0.174734
    96  H    0.097722
    97  H    0.133529
    98  H    0.092402
    99  H    0.112302
   100  H    0.118212
   101  H    0.076972
   102  H    0.114253
   103  H    0.096402
   104  H    0.125040
   105  H    0.103266
   106  H    0.088208
   107  H    0.096646
   108  H    0.102250
   109  H    0.094803
   110  H    0.080813
   111  H    0.094450
   112  H    0.104017
   113  H    0.111771
   114  H    0.086658
   115  H    0.044025
   116  H    0.056916
   117  H    0.115092
   118  H    0.082457
   119  H    0.090275
   120  H    0.085708
   121  H    0.071880
   122  H    0.119597
   123  H    0.120286
   124  H    0.111988
   125  H    0.087457
   126  H    0.093901
   127  H    0.077431
   128  H    0.076209
   129  H    0.098329
   130  H    0.092370
   131  H    0.100358
   132  H    0.088915
   133  H    0.085461
   134  H    0.093315
   135  H    0.107087
   136  H    0.102717
   137  H    0.090461
 Sum of Mulliken charges =   0.00000

 Dipole moment (field-independent basis, Debye):
    X=              0.4297    Y=              6.9431    Z=             -0.4961  Tot=              6.9741
 Quadrupole moment (field-independent basis, Debye-Ang):
   XX=           -328.7475   YY=           -394.8466   ZZ=           -398.1323
   XY=            -32.0040   XZ=             18.9422   YZ=              2.5555

 Normal termination of Gaussian 09 at Sun Jul  7 04:52:15 2019.
