 Gaussian 09, Revision D.01,
 Gaussian 09:  ES64L-G09RevD.01 24-Apr-2013

 -------------------------------------
 # td=(NStates=1) CAM-B3LYP/6-31G(d,p)
 -------------------------------------

 --
 TD
 --
 Symbolic Z-matrix:
 Charge =  0 Multiplicity = 1

                         Standard orientation:
 ---------------------------------------------------------------------
 Center     Atomic      Atomic             Coordinates (Angstroms)
 Number     Number       Type             X           Y           Z
 ---------------------------------------------------------------------
      1         12           0       -7.168395    0.588460    0.073765
      2          6           0       -4.791204   -1.919861    0.447636
      3          6           0       -4.844834    2.793358    1.274692
      4          6           0       -9.417177    3.098597   -0.379395
      5          6           0       -9.554398   -1.663541   -0.846101
      6          7           0       -5.136686    0.374392    0.705486
      7          6           0       -4.283382   -0.729078    0.597325
      8          6           0       -2.817112   -0.305151    1.105869
      9          6           0       -2.988906    1.166462    1.570112
     10          6           0       -4.408572    1.484964    1.196304
     11          6           0       -2.966873    1.169856    3.155579
     12          6           0       -1.788294   -0.584171   -0.066091
     13          6           0       -0.392389   -0.401905    0.344657
     14          6           0        0.607935   -0.678000   -0.731851
     15          8           0        0.340775   -1.156647   -1.843534
     16          8           0        1.838352   -0.417164   -0.338270
     17          7           0       -7.131473    2.648701    0.295243
     18          6           0       -6.030886    3.336148    0.738269
     19          6           0       -6.439997    4.775697    0.851579
     20          6           0       -7.716983    4.829231    0.343834
     21          6           0       -8.134666    3.474998    0.105509
     22          6           0       -5.457416    5.924408    1.238126
     23          6           0       -8.535082    5.979951    0.121123
     24          6           0       -8.377318    7.101155    0.700186
     25          7           0       -9.183695    0.647903   -0.522925
     26          6           0       -9.853705    1.785556   -0.717712
     27          6           0      -11.185409    1.525493   -1.083690
     28          6           0      -11.303985    0.074464   -1.139399
     29          6           0       -9.948519   -0.289432   -0.880092
     30          6           0      -12.276610    2.411472   -1.354341
     31          6           0      -12.385665   -0.794682   -1.654665
     32          6           0      -12.326181   -1.214317   -3.208590
     33          7           0       -7.266443   -1.365775   -0.230821
     34          6           0       -8.277543   -2.199791   -0.493435
     35          6           0       -7.868201   -3.576081   -0.528502
     36          6           0       -6.544797   -3.524728   -0.081267
     37          6           0       -6.136327   -2.120806   -0.056396
     38          6           0       -8.585913   -4.814742   -0.809798
     39          6           0       -5.312459   -4.282829    0.223360
     40          8           0       -5.190146   -5.497488    0.236243
     41          6           0       -4.195571   -3.395647    0.486365
     42          6           0       -3.642566   -3.662421    1.980204
     43          8           0       -4.016036   -3.053769    2.947302
     44          8           0       -2.813627   -4.689691    1.987776
     45          6           0       -2.240688   -5.077061    3.216965
     46          6           0        2.879535   -0.622152   -1.272024
     47          6           0        4.207687   -0.365755   -0.603581
     48          6           0        5.143785    0.374574   -0.997726
     49          6           0        5.173242    1.200335   -2.142220
     50          6           0        6.519360    0.453391   -0.211949
     51          6           0        7.682958   -0.048292   -1.070083
     52          6           0        8.985740   -0.151514   -0.198061
     53          6           0       10.236465   -0.610558   -0.908491
     54          6           0       10.131659   -2.123046   -1.276040
     55          6           0       11.433183   -0.375691   -0.015072
     56          6           0       12.794419   -0.599289   -0.526184
     57          6           0       13.971593   -0.158219    0.309028
     58          6           0       15.298455   -0.247400   -0.494984
     59          6           0       15.625532   -1.574956   -0.913214
     60          6           0       16.333000    0.440931    0.545050
     61          6           0       17.736924    0.604519   -0.167399
     62          6           0       18.797512    1.179405    0.782027
     63          6           0       20.222801    1.336009    0.255381
     64          6           0       20.305940    2.114024   -0.978449
     65          6           0       21.064578    2.002668    1.332175
     66          1           0       -4.294436    3.504757    1.696773
     67          1           0      -10.170833    3.885794   -0.424582
     68          1           0      -10.277029   -2.316261   -1.122142
     69          1           0       -2.777172   -1.095209    1.820195
     70          1           0       -2.210674    1.696633    1.101706
     71          1           0       -1.964918    0.803948    3.379707
     72          1           0       -3.416274    2.225722    3.483653
     73          1           0       -3.645561    0.516599    3.358110
     74          1           0       -1.708445   -1.713639   -0.327360
     75          1           0       -1.863891    0.111824   -0.983646
     76          1           0       -0.419297    0.752179    0.782911
     77          1           0       -0.098433   -0.873817    1.209580
     78          1           0       -5.680411    6.752765    0.658620
     79          1           0       -5.515230    5.999600    2.377929
     80          1           0       -4.345333    5.716850    1.094469
     81          1           0       -9.269276    5.801289   -0.530327
     82          1           0       -9.048141    7.914790    0.255513
     83          1           0       -7.599421    7.390700    1.493480
     84          1           0      -12.275486    2.932272   -2.245386
     85          1           0      -13.275819    2.022438   -1.372213
     86          1           0      -12.420049    3.172939   -0.403469
     87          1           0      -12.385154   -1.701910   -1.052337
     88          1           0      -13.314527   -0.314196   -1.447291
     89          1           0      -12.832598   -2.188426   -3.409555
     90          1           0      -12.416400   -0.421778   -3.941709
     91          1           0      -11.297073   -1.619185   -3.461552
     92          1           0       -9.266636   -4.691232   -1.611756
     93          1           0       -7.909456   -5.586279   -0.911535
     94          1           0       -9.268626   -5.147497    0.156621
     95          1           0       -3.246456   -3.825258   -0.136969
     96          1           0       -1.598881   -4.395661    3.714662
     97          1           0       -2.980990   -5.293087    3.885729
     98          1           0       -1.781857   -6.095848    2.796604
     99          1           0        2.585093   -1.640691   -1.646865
    100          1           0        2.630763    0.201723   -2.075996
    101          1           0        4.280191   -1.121825    0.117281
    102          1           0        4.075275    1.482689   -2.718325
    103          1           0        5.746509    2.190733   -2.084473
    104          1           0        5.631913    0.627461   -2.957569
    105          1           0        6.775209    1.347614    0.343168
    106          1           0        6.437007   -0.021427    0.663599
    107          1           0        7.556396   -1.186744   -1.506718
    108          1           0        7.756812    0.553594   -1.972534
    109          1           0        9.132697    0.895836    0.189973
    110          1           0        8.845947   -0.839755    0.789279
    111          1           0       10.594454    0.206229   -1.970543
    112          1           0        9.362205   -2.231694   -2.180605
    113          1           0       11.031155   -2.669593   -1.586889
    114          1           0        9.660094   -2.639724   -0.431651
    115          1           0       11.362545    0.551997    0.529104
    116          1           0       11.427100   -1.007445    0.979940
    117          1           0       13.028966   -1.828931   -0.614399
    118          1           0       12.780269   -0.106310   -1.535513
    119          1           0       13.895796    1.147125    0.346508
    120          1           0       13.929545   -0.544191    1.262321
    121          1           0       15.307120    0.198018   -1.390147
    122          1           0       15.990094   -2.167289    0.052026
    123          1           0       14.793255   -2.217158   -1.378572
    124          1           0       16.675583   -1.886863   -1.697266
    125          1           0       16.023018    1.319326    0.641585
    126          1           0       16.421603   -0.088906    1.456496
    127          1           0       18.001977   -0.407191   -0.819717
    128          1           0       17.437291    1.088303   -0.990115
    129          1           0       18.304808    2.078897    1.099244
    130          1           0       18.768704    0.666505    1.529342
    131          1           0       20.532396    0.313779    0.166282
    132          1           0       19.937418    3.111797   -0.881393
    133          1           0       21.297088    2.411666   -1.388263
    134          1           0       19.803023    1.865387   -1.914269
    135          1           0       21.104033    1.444513    2.213150
    136          1           0       22.015614    2.129940    0.894947
    137          1           0       20.674038    3.011502    1.365620
 ---------------------------------------------------------------------

 SCF Done:  E(RCAM-B3LYP) =  -2932.54964212     A.U. after   18 cycles

 Excitation energies and oscillator strengths:

 Excited State   1:      Singlet-A      2.0577 eV  602.53 nm  f=0.2110  <S**2>=0.000
     240 -> 243        0.24673
     241 -> 242        0.65162
 This state for optimization and/or second-order correction.
 Total Energy, E(TD-HF/TD-KS) =  -2932.47402221
 Copying the excited state density for this state as the 1-particle RhoCI density.

 The electronic state is 1-A.
 Alpha  occ. eigenvalues --  -46.84363 -19.27194 -19.26165 -19.21384 -19.20516
 Alpha  occ. eigenvalues --  -19.18977 -14.41225 -14.39244 -14.39091 -14.38178
 Alpha  occ. eigenvalues --  -10.39709 -10.39119 -10.33835 -10.32205 -10.31551
 Alpha  occ. eigenvalues --  -10.30947 -10.29956 -10.29837 -10.29681 -10.29244
 Alpha  occ. eigenvalues --  -10.29231 -10.28735 -10.28522 -10.27935 -10.27802
 Alpha  occ. eigenvalues --  -10.27667 -10.27528 -10.27493 -10.27476 -10.27421
 Alpha  occ. eigenvalues --  -10.27389 -10.27388 -10.27298 -10.27279 -10.27171
 Alpha  occ. eigenvalues --  -10.26967 -10.26959 -10.26941 -10.26907 -10.26837
 Alpha  occ. eigenvalues --  -10.26828 -10.26484 -10.26249 -10.26122 -10.25988
 Alpha  occ. eigenvalues --  -10.25889 -10.25687 -10.25673 -10.25651 -10.25606
 Alpha  occ. eigenvalues --  -10.25487 -10.25419 -10.25369 -10.25191 -10.25080
 Alpha  occ. eigenvalues --  -10.24969 -10.24947 -10.24781 -10.24753 -10.24571
 Alpha  occ. eigenvalues --  -10.24240 -10.23500 -10.23342 -10.22963 -10.22442
 Alpha  occ. eigenvalues --   -3.13352  -1.88069  -1.87578  -1.87534  -1.20051
 Alpha  occ. eigenvalues --   -1.19420  -1.10573  -1.10131  -1.08341  -1.06225
 Alpha  occ. eigenvalues --   -1.04083  -1.03883  -1.01302  -0.92693  -0.92041
 Alpha  occ. eigenvalues --   -0.91518  -0.90460  -0.90235  -0.89985  -0.89385
 Alpha  occ. eigenvalues --   -0.88586  -0.88219  -0.87786  -0.87061  -0.86434
 Alpha  occ. eigenvalues --   -0.85679  -0.84336  -0.83808  -0.83465  -0.82489
 Alpha  occ. eigenvalues --   -0.82242  -0.81743  -0.80949  -0.80524  -0.78242
 Alpha  occ. eigenvalues --   -0.77902  -0.77260  -0.76695  -0.76492  -0.76212
 Alpha  occ. eigenvalues --   -0.76063  -0.75523  -0.75170  -0.74528  -0.72670
 Alpha  occ. eigenvalues --   -0.72049  -0.70710  -0.69946  -0.68798  -0.67850
 Alpha  occ. eigenvalues --   -0.67433  -0.66971  -0.65805  -0.65108  -0.64927
 Alpha  occ. eigenvalues --   -0.64471  -0.64410  -0.63504  -0.63445  -0.62404
 Alpha  occ. eigenvalues --   -0.61822  -0.61360  -0.61285  -0.60289  -0.59542
 Alpha  occ. eigenvalues --   -0.59197  -0.58675  -0.57788  -0.57601  -0.56843
 Alpha  occ. eigenvalues --   -0.56417  -0.55869  -0.55331  -0.55202  -0.54983
 Alpha  occ. eigenvalues --   -0.54715  -0.54539  -0.54073  -0.53718  -0.53517
 Alpha  occ. eigenvalues --   -0.52996  -0.52302  -0.52152  -0.51909  -0.51792
 Alpha  occ. eigenvalues --   -0.51641  -0.51548  -0.51321  -0.50967  -0.50771
 Alpha  occ. eigenvalues --   -0.50626  -0.50422  -0.50183  -0.50096  -0.49665
 Alpha  occ. eigenvalues --   -0.49360  -0.49207  -0.48889  -0.48823  -0.48632
 Alpha  occ. eigenvalues --   -0.48242  -0.48164  -0.47915  -0.47857  -0.47643
 Alpha  occ. eigenvalues --   -0.47593  -0.47105  -0.46906  -0.46765  -0.46478
 Alpha  occ. eigenvalues --   -0.45951  -0.45563  -0.45422  -0.45196  -0.45022
 Alpha  occ. eigenvalues --   -0.44737  -0.44635  -0.44516  -0.44335  -0.44129
 Alpha  occ. eigenvalues --   -0.43876  -0.43746  -0.43666  -0.43316  -0.43263
 Alpha  occ. eigenvalues --   -0.43065  -0.43040  -0.42870  -0.42573  -0.42419
 Alpha  occ. eigenvalues --   -0.42275  -0.42182  -0.41893  -0.41732  -0.41454
 Alpha  occ. eigenvalues --   -0.41346  -0.41075  -0.40846  -0.40751  -0.40078
 Alpha  occ. eigenvalues --   -0.39883  -0.39706  -0.39315  -0.39190  -0.39178
 Alpha  occ. eigenvalues --   -0.39042  -0.38766  -0.38391  -0.37675  -0.37446
 Alpha  occ. eigenvalues --   -0.37294  -0.37185  -0.36974  -0.36860  -0.36827
 Alpha  occ. eigenvalues --   -0.36383  -0.36014  -0.35495  -0.35441  -0.35227
 Alpha  occ. eigenvalues --   -0.35006  -0.34837  -0.34406  -0.34008  -0.33350
 Alpha  occ. eigenvalues --   -0.32923  -0.32534  -0.31492  -0.31372  -0.31060
 Alpha  occ. eigenvalues --   -0.29716  -0.28745  -0.27657  -0.27049  -0.22864
 Alpha  occ. eigenvalues --   -0.21024
 Alpha virt. eigenvalues --   -0.06130  -0.02998   0.01965   0.04254   0.05556
 Alpha virt. eigenvalues --    0.06181   0.06629   0.06697   0.07002   0.07790
 Alpha virt. eigenvalues --    0.08691   0.09880   0.10523   0.10606   0.11747

 Mulliken charges:
               1
     1  Mg   0.825485
     2  C    0.092864
     3  C   -0.152380
     4  C   -0.184213
     5  C   -0.152290
     6  N   -0.629708
     7  C    0.242043
     8  C   -0.162081
     9  C   -0.148016
    10  C    0.319021
    11  C   -0.289895
    12  C   -0.162886
    13  C   -0.262925
    14  C    0.612584
    15  O   -0.499916
    16  O   -0.454102
    17  N   -0.707504
    18  C    0.278806
    19  C   -0.027748
    20  C    0.003411
    21  C    0.329124
    22  C   -0.371741
    23  C   -0.010746
    24  C   -0.262829
    25  N   -0.657335
    26  C    0.308886
    27  C    0.009282
    28  C    0.015787
    29  C    0.302916
    30  C   -0.395089
    31  C   -0.233153
    32  C   -0.320724
    33  N   -0.711421
    34  C    0.293496
    35  C    0.022881
    36  C   -0.016437
    37  C    0.234667
    38  C   -0.363182
    39  C    0.397136
    40  O   -0.483945
    41  C   -0.304061
    42  C    0.602194
    43  O   -0.461333
    44  O   -0.422279
    45  C   -0.092475
    46  C    0.003042
    47  C   -0.132324
    48  C    0.175179
    49  C   -0.386446
    50  C   -0.226492
    51  C   -0.171838
    52  C   -0.172792
    53  C   -0.017648
    54  C   -0.309420
    55  C   -0.160511
    56  C   -0.155349
    57  C   -0.151348
    58  C   -0.052638
    59  C   -0.286836
    60  C   -0.171898
    61  C   -0.198207
    62  C   -0.134242
    63  C   -0.062957
    64  C   -0.324582
    65  C   -0.304469
    66  H    0.061793
    67  H    0.094778
    68  H    0.071397
    69  H    0.122704
    70  H    0.110161
    71  H    0.109110
    72  H    0.096068
    73  H    0.148726
    74  H    0.110663
    75  H    0.116897
    76  H    0.091234
    77  H    0.138235
    78  H    0.134866
    79  H    0.119876
    80  H    0.109608
    81  H    0.084265
    82  H    0.085384
    83  H    0.108312
    84  H    0.131115
    85  H    0.119661
    86  H    0.084300
    87  H    0.107795
    88  H    0.109152
    89  H    0.106616
    90  H    0.119621
    91  H    0.098821
    92  H    0.120538
    93  H    0.156249
    94  H    0.103161
    95  H    0.158983
    96  H    0.130926
    97  H    0.143960
    98  H    0.122635
    99  H    0.133898
   100  H    0.099271
   101  H    0.094298
   102  H    0.083717
   103  H    0.117043
   104  H    0.140275
   105  H    0.103131
   106  H    0.105134
   107  H    0.075311
   108  H    0.109638
   109  H    0.091210
   110  H    0.083116
   111  H    0.021585
   112  H    0.087060
   113  H    0.115022
   114  H    0.109079
   115  H    0.093606
   116  H    0.058219
   117  H    0.061970
   118  H    0.083549
   119  H    0.040303
   120  H    0.106970
   121  H    0.103145
   122  H    0.075677
   123  H    0.103808
   124  H    0.053250
   125  H    0.106845
   126  H    0.091577
   127  H    0.050030
   128  H    0.100506
   129  H    0.080349
   130  H    0.092159
   131  H    0.091562
   132  H    0.100672
   133  H    0.090132
   134  H    0.104048
   135  H    0.103464
   136  H    0.102453
   137  H    0.100916
 Sum of Mulliken charges =   0.00000

 Dipole moment (field-independent basis, Debye):
    X=              2.8045    Y=              3.9077    Z=              1.2196  Tot=              4.9622
 Quadrupole moment (field-independent basis, Debye-Ang):
   XX=           -365.1317   YY=           -394.5468   ZZ=           -394.5982
   XY=            -13.3217   XZ=             18.1853   YZ=             -6.7739

 Normal termination of Gaussian 09 at Wed Jul  3 23:35:32 2019.
