 Gaussian 16, Revision A.03,
 Gaussian 16:  ES64L-G16RevA.03 25-Dec-2016

 ----------------------------------------------------------------------
 # td=(NStates=1) iop(3/107=0140000000,3/108=0140000000) CAM-B3LYP/6-31
 G(d,p)
 ----------------------------------------------------------------------

 --
 TD
 --
 Symbolic Z-matrix:
 Charge =  0 Multiplicity = 1

                         Standard orientation:
 ---------------------------------------------------------------------
 Center     Atomic      Atomic             Coordinates (Angstroms)
 Number     Number       Type             X           Y           Z
 ---------------------------------------------------------------------
      1         12           0       -7.143480    0.562626    0.036967
      2          6           0       -4.880010   -1.995620    0.485465
      3          6           0       -4.688993    2.909972    1.015071
      4          6           0       -9.388629    3.122647   -0.313976
      5          6           0       -9.613692   -1.686511   -0.791909
      6          7           0       -5.098551    0.416624    0.659967
      7          6           0       -4.419339   -0.681731    0.758431
      8          6           0       -2.916742   -0.431970    1.127761
      9          6           0       -2.932784    1.016623    1.429349
     10          6           0       -4.271531    1.529092    1.012848
     11          6           0       -2.782266    1.345135    2.968406
     12          6           0       -1.953605   -0.803824   -0.040180
     13          6           0       -0.531022   -0.544123    0.361450
     14          6           0        0.511730   -0.854118   -0.650997
     15          8           0        0.223408   -1.161587   -1.777439
     16          8           0        1.774461   -0.609790   -0.252699
     17          7           0       -7.094656    2.581075    0.288548
     18          6           0       -5.958945    3.392836    0.705103
     19          6           0       -6.352910    4.773640    0.711405
     20          6           0       -7.654462    4.797867    0.378881
     21          6           0       -8.115586    3.486975    0.050642
     22          6           0       -5.480158    5.949601    1.071425
     23          6           0       -8.580351    5.987692    0.244295
     24          6           0       -8.533885    7.113146    0.998309
     25          7           0       -9.147503    0.716313   -0.479737
     26          6           0       -9.859069    1.909003   -0.631874
     27          6           0      -11.272319    1.553071   -1.094573
     28          6           0      -11.283728    0.166514   -1.172997
     29          6           0       -9.999795   -0.350691   -0.840615
     30          6           0      -12.377002    2.577823   -1.504633
     31          6           0      -12.451596   -0.689875   -1.699874
     32          6           0      -12.258576   -1.188139   -3.168596
     33          7           0       -7.300447   -1.286215   -0.179958
     34          6           0       -8.312524   -2.179780   -0.472461
     35          6           0       -7.903086   -3.607411   -0.326827
     36          6           0       -6.574122   -3.559163    0.088488
     37          6           0       -6.242247   -2.156537    0.086196
     38          6           0       -8.743651   -4.840052   -0.531830
     39          6           0       -5.325155   -4.275119    0.231056
     40          8           0       -5.228617   -5.470673    0.277300
     41          6           0       -4.223200   -3.319681    0.476176
     42          6           0       -3.483609   -3.670816    1.827069
     43          8           0       -3.748926   -3.131658    2.899220
     44          8           0       -2.677848   -4.689479    1.659049
     45          6           0       -2.031902   -5.146067    2.890806
     46          6           0        2.854711   -0.816976   -1.234351
     47          6           0        4.170831   -0.624440   -0.483494
     48          6           0        5.143381    0.151611   -0.943096
     49          6           0        4.969165    1.052308   -2.206421
     50          6           0        6.424404    0.369419   -0.157412
     51          6           0        7.674777   -0.275902   -0.844027
     52          6           0        9.002673   -0.075255   -0.031715
     53          6           0       10.180324   -0.480771   -0.819353
     54          6           0       10.227286   -2.001733   -1.151416
     55          6           0       11.475795   -0.025182   -0.029528
     56          6           0       12.798034   -0.325044   -0.702900
     57          6           0       13.960902    0.093326    0.161724
     58          6           0       15.347102   -0.176259   -0.506411
     59          6           0       15.644662   -1.662173   -0.983498
     60          6           0       16.397299    0.353702    0.496960
     61          6           0       17.842094    0.535770   -0.163130
     62          6           0       18.834754    1.142539    0.739479
     63          6           0       20.247127    1.365671    0.189837
     64          6           0       20.252490    2.281889   -0.997758
     65          6           0       21.213202    1.900626    1.254264
     66          1           0       -3.877705    3.546177    1.356595
     67          1           0      -10.128808    4.017202   -0.516039
     68          1           0      -10.366430   -2.356028   -0.877400
     69          1           0       -2.555933   -0.869117    2.161446
     70          1           0       -2.179515    1.580859    0.980272
     71          1           0       -1.897165    0.695711    3.396002
     72          1           0       -2.875438    2.351923    3.214592
     73          1           0       -3.610296    0.820330    3.279874
     74          1           0       -2.340495   -1.891706   -0.159836
     75          1           0       -2.066238   -0.170375   -0.899494
     76          1           0       -0.252215    0.467065    0.726074
     77          1           0       -0.332362   -1.404601    1.075886
     78          1           0       -5.697638    6.781418    0.554768
     79          1           0       -5.635074    6.198842    2.244122
     80          1           0       -4.279551    5.776514    0.919242
     81          1           0       -9.322300    6.010214   -0.572059
     82          1           0       -9.155971    7.963720    0.854663
     83          1           0       -7.664967    7.189307    1.781636
     84          1           0      -11.943614    3.253007   -2.257620
     85          1           0      -13.272501    1.963379   -1.741319
     86          1           0      -12.484794    3.311774   -0.639845
     87          1           0      -12.475837   -1.741498   -1.118934
     88          1           0      -13.434455   -0.175949   -1.292218
     89          1           0      -13.247583   -1.866149   -3.298337
     90          1           0      -12.127857   -0.331865   -3.725931
     91          1           0      -11.394676   -1.865339   -3.448651
     92          1           0       -9.297302   -4.720377   -1.451232
     93          1           0       -8.057334   -5.676545   -0.606271
     94          1           0       -9.540777   -4.766240    0.207539
     95          1           0       -3.359672   -3.605207   -0.233295
     96          1           0       -1.547845   -4.178151    3.159001
     97          1           0       -2.852937   -5.464483    3.588419
     98          1           0       -1.203947   -5.982750    2.505319
     99          1           0        2.777796   -1.830524   -1.562181
    100          1           0        2.715454   -0.024699   -2.033948
    101          1           0        4.152948   -0.976770    0.554733
    102          1           0        3.995970    0.900908   -2.727051
    103          1           0        5.086807    2.061062   -1.911115
    104          1           0        5.590598    0.856938   -3.025157
    105          1           0        6.519705    1.458027   -0.078898
    106          1           0        6.188644    0.038849    0.841104
    107          1           0        7.618606   -1.242396   -1.114730
    108          1           0        7.777767    0.201688   -1.915294
    109          1           0        8.882341    0.925573    0.163393
    110          1           0        8.961913   -0.586931    1.031550
    111          1           0       10.180855    0.027734   -1.709020
    112          1           0        9.341033   -2.253912   -1.736637
    113          1           0       10.946954   -2.228342   -1.914801
    114          1           0       10.109123   -2.820723   -0.291461
    115          1           0       11.368113    0.994828    0.369719
    116          1           0       11.498847   -0.623135    0.929856
    117          1           0       12.939693   -1.262950   -1.023814
    118          1           0       12.825615    0.209981   -1.533542
    119          1           0       14.035672    1.188551    0.440002
    120          1           0       13.943522   -0.504149    1.119798
    121          1           0       15.434545    0.341863   -1.364385
    122          1           0       15.648516   -2.260915   -0.100274
    123          1           0       15.047683   -1.965917   -1.920131
    124          1           0       16.699510   -1.819249   -1.573047
    125          1           0       16.027620    1.243523    1.035822
    126          1           0       16.495107   -0.514165    1.403845
    127          1           0       18.164291   -0.336037   -0.576297
    128          1           0       17.608214    1.425397   -1.006686
    129          1           0       18.446984    2.035947    1.191717
    130          1           0       18.818744    0.522270    1.704935
    131          1           0       20.575298    0.198352   -0.045174
    132          1           0       19.751849    3.138756   -0.772561
    133          1           0       21.121300    2.691634   -1.343749
    134          1           0       19.715678    1.754350   -1.889700
    135          1           0       20.941071    1.405887    2.167243
    136          1           0       22.311844    1.992336    1.005931
    137          1           0       21.025523    2.933502    1.543949
 ---------------------------------------------------------------------

 SCF Done:  E(RCAM-B3LYP) =  -2933.59510525     A.U. after   16 cycles

 Excitation energies and oscillator strengths:

 Excited State   1:      Singlet-A      1.9864 eV  624.16 nm  f=0.2299  <S**2>=0.000
     240 -> 243        0.25060
     241 -> 242        0.65886
 This state for optimization and/or second-order correction.
 Total Energy, E(TD-HF/TD-DFT) =  -2933.52210592
 Copying the excited state density for this state as the 1-particle RhoCI density.

 The electronic state is 1-A.
 Alpha  occ. eigenvalues --  -46.78323 -19.23135 -19.21219 -19.16591 -19.15436
 Alpha  occ. eigenvalues --  -19.15392 -14.37902 -14.35628 -14.34870 -14.34437
 Alpha  occ. eigenvalues --  -10.34794 -10.33350 -10.29657 -10.29485 -10.27532
 Alpha  occ. eigenvalues --  -10.26518 -10.26212 -10.25532 -10.25145 -10.24865
 Alpha  occ. eigenvalues --  -10.24624 -10.24334 -10.24166 -10.24148 -10.24115
 Alpha  occ. eigenvalues --  -10.23928 -10.23359 -10.23139 -10.23081 -10.23006
 Alpha  occ. eigenvalues --  -10.22874 -10.22862 -10.22767 -10.22698 -10.22696
 Alpha  occ. eigenvalues --  -10.22691 -10.22588 -10.22326 -10.22203 -10.22072
 Alpha  occ. eigenvalues --  -10.21962 -10.21913 -10.21904 -10.21859 -10.21741
 Alpha  occ. eigenvalues --  -10.21736 -10.21662 -10.21500 -10.21477 -10.21430
 Alpha  occ. eigenvalues --  -10.21381 -10.21270 -10.21209 -10.21191 -10.21129
 Alpha  occ. eigenvalues --  -10.20980 -10.20854 -10.20782 -10.20773 -10.20660
 Alpha  occ. eigenvalues --  -10.20462 -10.20167 -10.19826 -10.18856 -10.18063
 Alpha  occ. eigenvalues --   -3.07280  -1.82182  -1.81782  -1.81704  -1.14462
 Alpha  occ. eigenvalues --   -1.12322  -1.06935  -1.04015  -1.03659  -0.99475
 Alpha  occ. eigenvalues --   -0.97788  -0.96425  -0.95055  -0.88260  -0.86106
 Alpha  occ. eigenvalues --   -0.85730  -0.85186  -0.84578  -0.83887  -0.83296
 Alpha  occ. eigenvalues --   -0.83057  -0.82480  -0.82069  -0.81552  -0.80890
 Alpha  occ. eigenvalues --   -0.80047  -0.79020  -0.78278  -0.77823  -0.76937
 Alpha  occ. eigenvalues --   -0.76629  -0.76516  -0.75693  -0.75096  -0.73509
 Alpha  occ. eigenvalues --   -0.72834  -0.72534  -0.72158  -0.71699  -0.71693
 Alpha  occ. eigenvalues --   -0.70360  -0.70182  -0.69755  -0.68689  -0.67857
 Alpha  occ. eigenvalues --   -0.67110  -0.66036  -0.64961  -0.64235  -0.63775
 Alpha  occ. eigenvalues --   -0.62759  -0.61583  -0.60904  -0.60747  -0.60399
 Alpha  occ. eigenvalues --   -0.59985  -0.59477  -0.58981  -0.58291  -0.58183
 Alpha  occ. eigenvalues --   -0.57977  -0.56183  -0.55848  -0.55408  -0.55201
 Alpha  occ. eigenvalues --   -0.54449  -0.53723  -0.53567  -0.53087  -0.53040
 Alpha  occ. eigenvalues --   -0.52189  -0.51546  -0.51489  -0.51061  -0.50833
 Alpha  occ. eigenvalues --   -0.50668  -0.50495  -0.50165  -0.49557  -0.49233
 Alpha  occ. eigenvalues --   -0.48935  -0.48586  -0.48012  -0.47951  -0.47848
 Alpha  occ. eigenvalues --   -0.47728  -0.47334  -0.47077  -0.46936  -0.46805
 Alpha  occ. eigenvalues --   -0.46439  -0.46132  -0.46062  -0.45910  -0.45840
 Alpha  occ. eigenvalues --   -0.45577  -0.45363  -0.45095  -0.44717  -0.44637
 Alpha  occ. eigenvalues --   -0.44468  -0.44343  -0.44248  -0.43982  -0.43517
 Alpha  occ. eigenvalues --   -0.43254  -0.43168  -0.42811  -0.42483  -0.42438
 Alpha  occ. eigenvalues --   -0.42254  -0.42099  -0.41975  -0.41796  -0.41625
 Alpha  occ. eigenvalues --   -0.41463  -0.41229  -0.41161  -0.41132  -0.40982
 Alpha  occ. eigenvalues --   -0.40685  -0.40610  -0.40324  -0.40086  -0.39941
 Alpha  occ. eigenvalues --   -0.39897  -0.39529  -0.39419  -0.39189  -0.38792
 Alpha  occ. eigenvalues --   -0.38714  -0.38633  -0.38400  -0.38162  -0.38114
 Alpha  occ. eigenvalues --   -0.37951  -0.37623  -0.37374  -0.37181  -0.36899
 Alpha  occ. eigenvalues --   -0.36695  -0.36452  -0.36153  -0.36094  -0.35951
 Alpha  occ. eigenvalues --   -0.35714  -0.35701  -0.35344  -0.35014  -0.34979
 Alpha  occ. eigenvalues --   -0.34608  -0.34378  -0.34066  -0.34011  -0.33784
 Alpha  occ. eigenvalues --   -0.33470  -0.33282  -0.33164  -0.32598  -0.32524
 Alpha  occ. eigenvalues --   -0.32186  -0.31668  -0.31605  -0.30340  -0.30193
 Alpha  occ. eigenvalues --   -0.30153  -0.29328  -0.29109  -0.27998  -0.27429
 Alpha  occ. eigenvalues --   -0.27322  -0.26852  -0.25208  -0.24897  -0.21476
 Alpha  occ. eigenvalues --   -0.19354
 Alpha virt. eigenvalues --   -0.06645  -0.03721   0.00063   0.02439   0.04143
 Alpha virt. eigenvalues --    0.04634   0.04950   0.05315   0.05721   0.06151
 Alpha virt. eigenvalues --    0.06541   0.08837   0.09073   0.09861   0.10103

 Mulliken charges:
               1
     1  Mg   0.815841
     2  C    0.095663
     3  C   -0.191214
     4  C   -0.172120
     5  C   -0.179538
     6  N   -0.631883
     7  C    0.340965
     8  C   -0.159442
     9  C   -0.152522
    10  C    0.299645
    11  C   -0.315278
    12  C   -0.151391
    13  C   -0.253521
    14  C    0.584741
    15  O   -0.470877
    16  O   -0.492195
    17  N   -0.708608
    18  C    0.283656
    19  C    0.052549
    20  C    0.008538
    21  C    0.327879
    22  C   -0.367469
    23  C   -0.081582
    24  C   -0.243238
    25  N   -0.694413
    26  C    0.303941
    27  C    0.012465
    28  C    0.021587
    29  C    0.318235
    30  C   -0.368135
    31  C   -0.248472
    32  C   -0.294780
    33  N   -0.745805
    34  C    0.285910
    35  C   -0.007869
    36  C    0.036853
    37  C    0.254161
    38  C   -0.372900
    39  C    0.370102
    40  O   -0.461427
    41  C   -0.338933
    42  C    0.614903
    43  O   -0.486710
    44  O   -0.425445
    45  C   -0.083294
    46  C    0.025804
    47  C   -0.140418
    48  C    0.115081
    49  C   -0.369715
    50  C   -0.229159
    51  C   -0.183943
    52  C   -0.156571
    53  C   -0.046255
    54  C   -0.325608
    55  C   -0.178886
    56  C   -0.165250
    57  C   -0.181953
    58  C   -0.044791
    59  C   -0.318432
    60  C   -0.168979
    61  C   -0.150112
    62  C   -0.169043
    63  C   -0.028869
    64  C   -0.304712
    65  C   -0.319059
    66  H    0.081636
    67  H    0.070845
    68  H    0.063442
    69  H    0.108651
    70  H    0.100768
    71  H    0.091668
    72  H    0.114911
    73  H    0.137673
    74  H    0.102774
    75  H    0.124686
    76  H    0.138032
    77  H    0.122909
    78  H    0.140230
    79  H    0.105476
    80  H    0.087492
    81  H    0.092336
    82  H    0.104953
    83  H    0.085217
    84  H    0.132204
    85  H    0.116614
    86  H    0.119484
    87  H    0.080302
    88  H    0.100035
    89  H    0.089577
    90  H    0.126009
    91  H    0.115856
    92  H    0.124178
    93  H    0.150477
    94  H    0.136637
    95  H    0.161224
    96  H    0.136010
    97  H    0.154524
    98  H    0.119939
    99  H    0.134406
   100  H    0.119061
   101  H    0.095428
   102  H    0.098942
   103  H    0.125793
   104  H    0.126033
   105  H    0.097640
   106  H    0.101109
   107  H    0.113399
   108  H    0.071048
   109  H    0.099973
   110  H    0.075062
   111  H    0.091073
   112  H    0.098580
   113  H    0.108836
   114  H    0.094125
   115  H    0.083617
   116  H    0.076266
   117  H    0.105981
   118  H    0.095900
   119  H    0.084190
   120  H    0.082595
   121  H    0.093854
   122  H    0.114826
   123  H    0.097317
   124  H    0.076415
   125  H    0.090873
   126  H    0.043645
   127  H    0.104686
   128  H    0.059034
   129  H    0.087790
   130  H    0.072985
   131  H    0.053473
   132  H    0.110421
   133  H    0.106026
   134  H    0.087849
   135  H    0.101603
   136  H    0.100304
   137  H    0.095371
 Sum of Mulliken charges =  -0.00000

 Dipole moment (field-independent basis, Debye):
    X=              2.7193    Y=              3.4345    Z=             -0.4128  Tot=              4.4001
 Quadrupole moment (field-independent basis, Debye-Ang):
   XX=           -368.7748   YY=           -386.9225   ZZ=           -398.4055
   XY=             -7.0629   XZ=              7.0500   YZ=             -3.5815

 Normal termination of Gaussian 16 at Fri Sep 13 21:03:35 2019.
