 Gaussian 09, Revision D.01,
 Gaussian 09:  ES64L-G09RevD.01 24-Apr-2013

 -------------------------------------
 # td=(NStates=1) CAM-B3LYP/6-31G(d,p)
 -------------------------------------

 --
 TD
 --
 Symbolic Z-matrix:
 Charge =  0 Multiplicity = 1

                         Standard orientation:
 ---------------------------------------------------------------------
 Center     Atomic      Atomic             Coordinates (Angstroms)
 Number     Number       Type             X           Y           Z
 ---------------------------------------------------------------------
      1         12           0       -7.168472    0.513303   -0.031751
      2          6           0       -4.894291   -1.897125    0.567734
      3          6           0       -4.762241    2.840780    1.088428
      4          6           0       -9.399406    3.143602   -0.440942
      5          6           0       -9.522255   -1.698171   -0.886085
      6          7           0       -5.109227    0.390340    0.770291
      7          6           0       -4.340877   -0.681555    0.816655
      8          6           0       -2.832783   -0.326632    1.162439
      9          6           0       -2.970327    1.131579    1.608999
     10          6           0       -4.396368    1.511185    1.189080
     11          6           0       -2.946186    1.244717    3.099326
     12          6           0       -1.837483   -0.461929    0.002963
     13          6           0       -0.433054   -0.469981    0.504047
     14          6           0        0.498949   -0.665115   -0.712413
     15          8           0        0.212270   -1.032836   -1.794459
     16          8           0        1.733121   -0.368975   -0.242500
     17          7           0       -7.138957    2.609614    0.407467
     18          6           0       -6.094801    3.361351    0.852828
     19          6           0       -6.479394    4.710272    0.867643
     20          6           0       -7.782953    4.825248    0.356328
     21          6           0       -8.145399    3.427779    0.042978
     22          6           0       -5.593986    5.879990    1.242519
     23          6           0       -8.520940    5.959487    0.109834
     24          6           0       -8.439493    7.192423    0.802396
     25          7           0       -9.055984    0.725676   -0.532652
     26          6           0       -9.879675    1.882956   -0.683190
     27          6           0      -11.207462    1.376253   -1.113540
     28          6           0      -11.241615    0.009045   -1.340066
     29          6           0       -9.945068   -0.364449   -0.876604
     30          6           0      -12.371952    2.384899   -1.221775
     31          6           0      -12.405717   -0.877728   -1.632112
     32          6           0      -12.422710   -1.147126   -3.137325
     33          7           0       -7.324509   -1.399888   -0.186607
     34          6           0       -8.300125   -2.266224   -0.556774
     35          6           0       -7.818539   -3.648524   -0.607654
     36          6           0       -6.454029   -3.515229   -0.273687
     37          6           0       -6.140345   -2.201378    0.014958
     38          6           0       -8.611662   -4.866352   -0.780107
     39          6           0       -5.366904   -4.316531    0.224080
     40          8           0       -5.278971   -5.518208    0.307382
     41          6           0       -4.177292   -3.384171    0.662129
     42          6           0       -3.557972   -3.781393    1.811442
     43          8           0       -3.773671   -3.182849    2.928176
     44          8           0       -2.718544   -4.798546    1.796653
     45          6           0       -2.058237   -5.381805    2.939575
     46          6           0        2.853330   -0.513632   -1.276715
     47          6           0        4.171194   -0.317560   -0.464034
     48          6           0        5.122674    0.484919   -0.898586
     49          6           0        4.971325    1.428003   -2.125567
     50          6           0        6.525212    0.520988   -0.217857
     51          6           0        7.630421   -0.070756   -1.024683
     52          6           0        9.025813    0.040461   -0.170516
     53          6           0       10.201972   -0.505486   -0.967408
     54          6           0       10.237480   -1.946013   -1.456110
     55          6           0       11.420515   -0.155861   -0.092671
     56          6           0       12.794411   -0.398993   -0.686332
     57          6           0       14.009664   -0.163311    0.293014
     58          6           0       15.411213   -0.249526   -0.418129
     59          6           0       15.790193   -1.667736   -0.906936
     60          6           0       16.464219    0.302578    0.597284
     61          6           0       17.867912    0.388453   -0.141090
     62          6           0       18.792404    1.095606    0.729371
     63          6           0       20.249527    1.264938    0.205644
     64          6           0       20.328224    2.143912   -0.965276
     65          6           0       21.174184    1.740961    1.302221
     66          1           0       -4.050884    3.602284    1.457890
     67          1           0       -9.923887    3.917752   -0.557390
     68          1           0      -10.278161   -2.375715   -1.328911
     69          1           0       -2.556675   -1.059515    2.074094
     70          1           0       -2.125334    1.651928    1.169082
     71          1           0       -1.801518    0.816754    3.296745
     72          1           0       -3.073942    2.209831    3.397924
     73          1           0       -3.780541    0.522933    3.453434
     74          1           0       -2.223399   -1.417201   -0.486542
     75          1           0       -2.002321    0.326069   -0.789773
     76          1           0       -0.168143    0.574485    1.064540
     77          1           0       -0.363032   -1.320676    1.147817
     78          1           0       -6.053139    6.912980    0.951777
     79          1           0       -5.472103    5.988697    2.353184
     80          1           0       -4.608333    5.906028    0.894131
     81          1           0       -9.097465    5.865389   -0.762897
     82          1           0       -9.228459    7.812966    0.492066
     83          1           0       -7.763657    7.234863    1.653128
     84          1           0      -12.150009    3.192123   -1.946520
     85          1           0      -13.115445    1.710529   -1.484545
     86          1           0      -12.623930    2.755100   -0.142891
     87          1           0      -12.364907   -1.690457   -0.963589
     88          1           0      -13.393609   -0.215511   -1.427778
     89          1           0      -13.495767   -1.777327   -3.147607
     90          1           0      -12.477968   -0.072045   -3.532736
     91          1           0      -11.338395   -1.550523   -3.403251
     92          1           0       -9.403314   -4.755107   -1.767563
     93          1           0       -8.134043   -5.880902   -0.806421
     94          1           0       -9.432072   -4.769659   -0.142247
     95          1           0       -3.394686   -3.495102    0.006731
     96          1           0       -1.482470   -4.687770    3.451116
     97          1           0       -2.901712   -5.356637    3.618118
     98          1           0       -1.859700   -6.473259    2.636608
     99          1           0        2.535202   -1.504233   -1.872333
    100          1           0        2.757861    0.268248   -1.951858
    101          1           0        4.173992   -0.719138    0.400781
    102          1           0        3.823963    1.384654   -2.384241
    103          1           0        5.165936    2.556692   -1.862663
    104          1           0        5.565027    1.119182   -3.082767
    105          1           0        6.541320    1.571090    0.142078
    106          1           0        6.328827    0.164456    0.649428
    107          1           0        7.503412   -1.115854   -1.060750
    108          1           0        7.786293    0.242654   -2.252591
    109          1           0        9.329838    1.150954    0.078264
    110          1           0        8.834173   -0.537294    0.556003
    111          1           0       10.191784    0.048795   -2.083831
    112          1           0        9.316079   -2.290475   -2.254329
    113          1           0       11.172934   -2.131911   -2.093621
    114          1           0       10.210941   -2.710038   -0.623859
    115          1           0       11.376154    0.959373    0.371212
    116          1           0       11.191979   -0.833154    0.908097
    117          1           0       12.802612   -1.421435   -0.966770
    118          1           0       12.840687    0.326604   -1.602542
    119          1           0       13.902106    0.873856    0.478274
    120          1           0       14.105043   -0.891647    1.259235
    121          1           0       15.404262    0.550561   -1.226776
    122          1           0       15.922096   -2.288784   -0.073971
    123          1           0       15.004431   -2.055339   -1.656868
    124          1           0       16.693805   -1.668210   -1.436494
    125          1           0       16.468092    1.413370    0.704096
    126          1           0       16.570478   -0.271435    1.420917
    127          1           0       18.357528   -0.667813   -0.444713
    128          1           0       17.531177    1.044324   -0.823633
    129          1           0       18.449274    1.964782    1.078888
    130          1           0       18.788520    0.399736    1.675594
    131          1           0       20.632506    0.254086    0.009642
    132          1           0       19.775980    3.257830   -1.059146
    133          1           0       21.394689    2.409560   -1.448173
    134          1           0       19.635732    1.767307   -1.647153
    135          1           0       20.880346    1.294354    2.187724
    136          1           0       22.169472    1.821307    1.026488
    137          1           0       20.897465    2.818596    1.625760
 ---------------------------------------------------------------------

 SCF Done:  E(RCAM-B3LYP) =  -2932.54850072     A.U. after   16 cycles

 Excitation energies and oscillator strengths:

 Excited State   1:      Singlet-A      1.9355 eV  640.58 nm  f=0.3059  <S**2>=0.000
     240 -> 243        0.23489
     241 -> 242        0.65886
 This state for optimization and/or second-order correction.
 Total Energy, E(TD-HF/TD-KS) =  -2932.47737220
 Copying the excited state density for this state as the 1-particle RhoCI density.

 The electronic state is 1-A.
 Alpha  occ. eigenvalues --  -46.83528 -19.25539 -19.25307 -19.21468 -19.20205
 Alpha  occ. eigenvalues --  -19.17823 -14.41679 -14.39338 -14.38983 -14.38959
 Alpha  occ. eigenvalues --  -10.38647 -10.37900 -10.35051 -10.32341 -10.31420
 Alpha  occ. eigenvalues --  -10.30619 -10.30387 -10.29399 -10.29334 -10.29318
 Alpha  occ. eigenvalues --  -10.29257 -10.29249 -10.29062 -10.28754 -10.28542
 Alpha  occ. eigenvalues --  -10.28126 -10.27972 -10.27838 -10.27728 -10.27640
 Alpha  occ. eigenvalues --  -10.27640 -10.27620 -10.27532 -10.27458 -10.27453
 Alpha  occ. eigenvalues --  -10.27408 -10.27375 -10.27127 -10.27097 -10.26652
 Alpha  occ. eigenvalues --  -10.26637 -10.26554 -10.26444 -10.26389 -10.26304
 Alpha  occ. eigenvalues --  -10.26258 -10.26226 -10.26122 -10.26103 -10.25952
 Alpha  occ. eigenvalues --  -10.25847 -10.25820 -10.25688 -10.25603 -10.25530
 Alpha  occ. eigenvalues --  -10.25407 -10.25377 -10.25367 -10.25268 -10.25048
 Alpha  occ. eigenvalues --  -10.24535 -10.24508 -10.24305 -10.24111 -10.22903
 Alpha  occ. eigenvalues --   -3.12735  -1.87408  -1.86989  -1.86924  -1.17674
 Alpha  occ. eigenvalues --   -1.17339  -1.11571  -1.09529  -1.04548  -1.04202
 Alpha  occ. eigenvalues --   -1.03500  -1.02701  -1.00170  -0.92580  -0.91442
 Alpha  occ. eigenvalues --   -0.91301  -0.90406  -0.90084  -0.89872  -0.89345
 Alpha  occ. eigenvalues --   -0.88340  -0.88166  -0.87856  -0.86807  -0.86428
 Alpha  occ. eigenvalues --   -0.85538  -0.84849  -0.83958  -0.83420  -0.82627
 Alpha  occ. eigenvalues --   -0.82021  -0.81285  -0.80467  -0.79369  -0.78539
 Alpha  occ. eigenvalues --   -0.77759  -0.77130  -0.76693  -0.76348  -0.76093
 Alpha  occ. eigenvalues --   -0.75507  -0.74916  -0.74280  -0.73422  -0.72697
 Alpha  occ. eigenvalues --   -0.71247  -0.70007  -0.69225  -0.68814  -0.68421
 Alpha  occ. eigenvalues --   -0.68006  -0.66725  -0.65503  -0.64626  -0.64330
 Alpha  occ. eigenvalues --   -0.63979  -0.63416  -0.62775  -0.62605  -0.61989
 Alpha  occ. eigenvalues --   -0.61348  -0.60689  -0.60577  -0.59932  -0.59474
 Alpha  occ. eigenvalues --   -0.58813  -0.58046  -0.57785  -0.57365  -0.57073
 Alpha  occ. eigenvalues --   -0.56732  -0.55965  -0.55421  -0.55255  -0.54941
 Alpha  occ. eigenvalues --   -0.54691  -0.54010  -0.53820  -0.53748  -0.53078
 Alpha  occ. eigenvalues --   -0.52884  -0.52545  -0.52486  -0.52149  -0.51563
 Alpha  occ. eigenvalues --   -0.51501  -0.51086  -0.50788  -0.50720  -0.50384
 Alpha  occ. eigenvalues --   -0.50085  -0.50057  -0.49855  -0.49545  -0.49442
 Alpha  occ. eigenvalues --   -0.49236  -0.49133  -0.48901  -0.48617  -0.48407
 Alpha  occ. eigenvalues --   -0.48089  -0.47807  -0.47762  -0.47510  -0.47419
 Alpha  occ. eigenvalues --   -0.47330  -0.46802  -0.46608  -0.46482  -0.46284
 Alpha  occ. eigenvalues --   -0.46048  -0.45672  -0.45401  -0.45163  -0.45063
 Alpha  occ. eigenvalues --   -0.44811  -0.44779  -0.44411  -0.44331  -0.44288
 Alpha  occ. eigenvalues --   -0.43708  -0.43552  -0.43282  -0.43175  -0.43001
 Alpha  occ. eigenvalues --   -0.42727  -0.42627  -0.42382  -0.42225  -0.42193
 Alpha  occ. eigenvalues --   -0.41923  -0.41676  -0.41582  -0.41547  -0.41295
 Alpha  occ. eigenvalues --   -0.40844  -0.40576  -0.40272  -0.40161  -0.39935
 Alpha  occ. eigenvalues --   -0.39847  -0.39356  -0.39209  -0.39074  -0.39023
 Alpha  occ. eigenvalues --   -0.38937  -0.38735  -0.38570  -0.38408  -0.37862
 Alpha  occ. eigenvalues --   -0.37711  -0.37564  -0.37059  -0.36865  -0.36508
 Alpha  occ. eigenvalues --   -0.36122  -0.35936  -0.35669  -0.35494  -0.35275
 Alpha  occ. eigenvalues --   -0.35175  -0.34320  -0.34224  -0.33960  -0.33078
 Alpha  occ. eigenvalues --   -0.32736  -0.32621  -0.31245  -0.30986  -0.30402
 Alpha  occ. eigenvalues --   -0.29776  -0.29018  -0.28021  -0.26287  -0.23057
 Alpha  occ. eigenvalues --   -0.21055
 Alpha virt. eigenvalues --   -0.07079  -0.03180   0.01586   0.03469   0.05351
 Alpha virt. eigenvalues --    0.05734   0.05905   0.06851   0.07248   0.08230
 Alpha virt. eigenvalues --    0.08326   0.09719   0.10733   0.11064   0.11537

 Mulliken charges:
               1
     1  Mg   0.844582
     2  C    0.060892
     3  C   -0.183786
     4  C   -0.117136
     5  C   -0.218780
     6  N   -0.607204
     7  C    0.284033
     8  C   -0.146882
     9  C   -0.147622
    10  C    0.313322
    11  C   -0.269364
    12  C   -0.174420
    13  C   -0.255585
    14  C    0.617237
    15  O   -0.452669
    16  O   -0.505883
    17  N   -0.706957
    18  C    0.302238
    19  C    0.008983
    20  C    0.040813
    21  C    0.307635
    22  C   -0.396899
    23  C   -0.120558
    24  C   -0.245187
    25  N   -0.713201
    26  C    0.333028
    27  C   -0.065826
    28  C    0.075761
    29  C    0.285226
    30  C   -0.349571
    31  C   -0.235995
    32  C   -0.280395
    33  N   -0.751398
    34  C    0.304272
    35  C    0.080638
    36  C   -0.013834
    37  C    0.252317
    38  C   -0.386753
    39  C    0.365177
    40  O   -0.460814
    41  C   -0.283537
    42  C    0.613426
    43  O   -0.543132
    44  O   -0.460580
    45  C   -0.086759
    46  C   -0.005744
    47  C   -0.082982
    48  C    0.062647
    49  C   -0.345267
    50  C   -0.190144
    51  C   -0.182204
    52  C   -0.151657
    53  C   -0.035130
    54  C   -0.306084
    55  C   -0.157099
    56  C   -0.181285
    57  C   -0.156309
    58  C   -0.069535
    59  C   -0.311303
    60  C   -0.181638
    61  C   -0.176361
    62  C   -0.178126
    63  C   -0.043277
    64  C   -0.296841
    65  C   -0.302383
    66  H    0.084689
    67  H    0.045685
    68  H    0.075863
    69  H    0.120287
    70  H    0.101214
    71  H    0.071373
    72  H    0.114204
    73  H    0.124958
    74  H    0.110504
    75  H    0.111387
    76  H    0.118526
    77  H    0.145516
    78  H    0.107787
    79  H    0.113309
    80  H    0.122498
    81  H    0.100029
    82  H    0.107767
    83  H    0.117364
    84  H    0.122522
    85  H    0.107778
    86  H    0.115839
    87  H    0.122496
    88  H    0.091397
    89  H    0.094761
    90  H    0.114372
    91  H    0.112292
    92  H    0.082798
    93  H    0.157972
    94  H    0.150370
    95  H    0.160193
    96  H    0.142780
    97  H    0.142898
    98  H    0.143720
    99  H    0.131815
   100  H    0.128904
   101  H    0.084740
   102  H    0.092093
   103  H    0.111060
   104  H    0.117353
   105  H    0.093208
   106  H    0.103874
   107  H    0.117285
   108  H    0.067556
   109  H    0.091668
   110  H    0.108388
   111  H    0.051303
   112  H    0.073131
   113  H    0.111230
   114  H    0.095839
   115  H    0.069401
   116  H    0.059831
   117  H    0.104685
   118  H    0.084588
   119  H    0.099163
   120  H    0.072404
   121  H    0.070875
   122  H    0.107451
   123  H    0.092967
   124  H    0.116278
   125  H    0.089660
   126  H    0.095973
   127  H    0.077628
   128  H    0.102737
   129  H    0.100365
   130  H    0.064194
   131  H    0.091650
   132  H    0.062358
   133  H    0.089114
   134  H    0.112558
   135  H    0.103017
   136  H    0.106699
   137  H    0.073674
 Sum of Mulliken charges =   0.00000

 Dipole moment (field-independent basis, Debye):
    X=              2.1355    Y=              2.7879    Z=             -0.6879  Tot=              3.5785
 Quadrupole moment (field-independent basis, Debye-Ang):
   XX=           -343.0126   YY=           -390.7218   ZZ=           -404.3635
   XY=            -18.8595   XZ=             14.6927   YZ=             -2.8306

 Normal termination of Gaussian 09 at Sat Jul  6 04:28:28 2019.
