 Gaussian 16, Revision A.03,
 Gaussian 16:  ES64L-G16RevA.03 25-Dec-2016

 ----------------------------------------------------------------------
 # td=(NStates=1) iop(3/107=0140000000,3/108=0140000000) CAM-B3LYP/6-31
 G(d,p)
 ----------------------------------------------------------------------

 --
 TD
 --
 Symbolic Z-matrix:
 Charge =  0 Multiplicity = 1

                         Standard orientation:
 ---------------------------------------------------------------------
 Center     Atomic      Atomic             Coordinates (Angstroms)
 Number     Number       Type             X           Y           Z
 ---------------------------------------------------------------------
      1         12           0       -7.166141    0.659356    0.113083
      2          6           0       -4.942668   -1.940307    0.722078
      3          6           0       -4.772563    2.810798    1.245389
      4          6           0       -9.415565    3.063645   -0.366615
      5          6           0       -9.548388   -1.704431   -0.841947
      6          7           0       -5.126608    0.451556    0.791640
      7          6           0       -4.416383   -0.639509    0.827070
      8          6           0       -2.898151   -0.397003    1.303787
      9          6           0       -2.980649    1.128286    1.644461
     10          6           0       -4.351137    1.540591    1.150595
     11          6           0       -2.833239    1.340456    3.181868
     12          6           0       -1.904524   -0.627566    0.061764
     13          6           0       -0.466077   -0.500060    0.473215
     14          6           0        0.495955   -0.612858   -0.699190
     15          8           0        0.273819   -1.244662   -1.795438
     16          8           0        1.763987   -0.401855   -0.301183
     17          7           0       -7.151524    2.718418    0.366970
     18          6           0       -5.997249    3.434350    0.849727
     19          6           0       -6.361956    4.776328    0.755351
     20          6           0       -7.670983    4.828217    0.326467
     21          6           0       -8.146821    3.495202    0.104331
     22          6           0       -5.513119    5.948581    1.206542
     23          6           0       -8.470559    6.041559    0.034698
     24          6           0       -8.342375    7.225994    0.532921
     25          7           0       -9.065285    0.607075   -0.526796
     26          6           0       -9.837272    1.777251   -0.576711
     27          6           0      -11.195285    1.515798   -0.994649
     28          6           0      -11.271884    0.122117   -1.200642
     29          6           0       -9.846342   -0.342621   -0.845096
     30          6           0      -12.244690    2.509550   -1.187717
     31          6           0      -12.340082   -0.815759   -1.685093
     32          6           0      -12.285842   -1.123095   -3.246848
     33          7           0       -7.186098   -1.451458   -0.092708
     34          6           0       -8.262728   -2.254027   -0.494891
     35          6           0       -7.791368   -3.615587   -0.432440
     36          6           0       -6.465827   -3.542217   -0.009710
     37          6           0       -6.114116   -2.186159    0.206423
     38          6           0       -8.563709   -4.886921   -0.810810
     39          6           0       -5.283770   -4.395154    0.160779
     40          8           0       -5.101444   -5.541669    0.025600
     41          6           0       -4.204584   -3.320286    0.659030
     42          6           0       -3.582415   -3.727424    1.879873
     43          8           0       -3.579836   -3.026327    2.946077
     44          8           0       -2.800204   -4.857716    1.781619
     45          6           0       -2.179116   -5.339568    2.930501
     46          6           0        2.722405   -0.703135   -1.290860
     47          6           0        4.182292   -0.464361   -0.598000
     48          6           0        5.056473    0.330656   -1.191130
     49          6           0        5.043738    1.128706   -2.483252
     50          6           0        6.387907    0.429365   -0.491877
     51          6           0        7.640665   -0.149301   -1.166833
     52          6           0        8.905373   -0.041505   -0.325000
     53          6           0       10.239161   -0.596097   -0.954586
     54          6           0       10.065152   -2.110072   -1.220635
     55          6           0       11.388720   -0.267330   -0.073609
     56          6           0       12.755815   -0.605157   -0.733069
     57          6           0       13.894802    0.002470    0.094193
     58          6           0       15.244568   -0.222575   -0.501925
     59          6           0       15.668451   -1.678514   -0.604962
     60          6           0       16.309743    0.509652    0.414327
     61          6           0       17.732999    0.580906   -0.054380
     62          6           0       18.726690    1.387531    0.815617
     63          6           0       20.153417    1.395754    0.312965
     64          6           0       20.324279    2.182267   -0.981937
     65          6           0       21.087285    1.793772    1.510888
     66          1           0       -3.997622    3.514469    1.925615
     67          1           0      -10.184540    3.800183   -0.535352
     68          1           0      -10.199732   -2.411008   -1.357727
     69          1           0       -2.799061   -1.091780    2.037146
     70          1           0       -2.262054    1.656943    1.226256
     71          1           0       -1.916564    0.915012    3.435756
     72          1           0       -2.761934    2.444986    3.361879
     73          1           0       -3.623167    0.709646    3.818501
     74          1           0       -2.204602   -1.601464   -0.360597
     75          1           0       -1.986374    0.174165   -0.694313
     76          1           0       -0.198550    0.499016    0.742755
     77          1           0       -0.082926   -1.368643    1.152744
     78          1           0       -5.702830    6.715711    0.580904
     79          1           0       -5.674234    6.410709    2.231119
     80          1           0       -4.453431    5.899572    1.074765
     81          1           0       -9.256797    5.979719   -0.740950
     82          1           0       -8.943060    8.039052    0.176863
     83          1           0       -7.611354    7.379886    1.233854
     84          1           0      -12.175897    2.933076   -2.260811
     85          1           0      -13.208559    1.933657   -1.160573
     86          1           0      -12.249915    3.463366   -0.419147
     87          1           0      -12.435797   -1.871928   -1.178754
     88          1           0      -13.270785   -0.334733   -1.558824
     89          1           0      -13.364847   -1.508107   -3.369267
     90          1           0      -12.161442   -0.260205   -3.759799
     91          1           0      -11.393028   -1.788536   -3.653992
     92          1           0       -9.108591   -4.734413   -1.783780
     93          1           0       -8.066752   -5.683248   -0.550561
     94          1           0       -9.580700   -5.045889   -0.315913
     95          1           0       -3.414001   -3.327345   -0.165452
     96          1           0       -1.786401   -4.598887    3.332194
     97          1           0       -3.012719   -5.688934    3.835675
     98          1           0       -1.580650   -6.181656    2.569681
     99          1           0        2.541052   -1.632281   -1.812797
    100          1           0        2.511707    0.135057   -2.105046
    101          1           0        4.309325   -1.041616    0.233629
    102          1           0        4.078135    1.289059   -2.887972
    103          1           0        5.415106    2.145931   -2.615885
    104          1           0        5.626763    0.770333   -3.205745
    105          1           0        6.498278    1.378283   -0.209565
    106          1           0        6.365123   -0.200862    0.484157
    107          1           0        7.536091   -1.163005   -1.477127
    108          1           0        7.792203    0.259219   -2.233071
    109          1           0        8.879408    1.023831    0.197767
    110          1           0        8.702604   -0.753833    0.612876
    111          1           0       10.364658    0.083854   -1.929775
    112          1           0        9.048068   -2.036043   -1.797062
    113          1           0       11.007523   -2.561906   -1.747894
    114          1           0       10.011427   -2.746943   -0.306481
    115          1           0       11.247397    0.752566    0.385348
    116          1           0       11.231911   -1.014653    0.754093
    117          1           0       12.861441   -1.671296   -0.673335
    118          1           0       12.921573   -0.117925   -1.685372
    119          1           0       13.866167    1.051844    0.345957
    120          1           0       13.947998   -0.482874    1.121502
    121          1           0       15.511958    0.232443   -1.470154
    122          1           0       15.571189   -2.168413    0.395248
    123          1           0       14.946312   -1.987922   -1.302301
    124          1           0       16.773363   -2.085707   -1.063895
    125          1           0       15.815316    1.547610    0.540091
    126          1           0       16.338462    0.063391    1.357494
    127          1           0       18.123714   -0.420387   -0.191821
    128          1           0       17.906815    0.947620   -1.224870
    129          1           0       18.333106    2.522377    0.890481
    130          1           0       18.614189    1.024555    1.684786
    131          1           0       20.550017    0.415777    0.071876
    132          1           0       20.227938    3.329019   -0.975477
    133          1           0       21.532125    2.091876   -1.276551
    134          1           0       19.629249    1.726744   -1.695158
    135          1           0       20.908035    1.181950    2.279894
    136          1           0       22.133469    1.825015    1.356895
    137          1           0       21.092704    2.754151    1.878532
 ---------------------------------------------------------------------

 SCF Done:  E(RCAM-B3LYP) =  -2933.49235497     A.U. after   16 cycles

 Excitation energies and oscillator strengths:

 Excited State   1:      Singlet-A      1.9875 eV  623.83 nm  f=0.3067  <S**2>=0.000
     240 -> 243        0.20534
     241 -> 242        0.67586
 This state for optimization and/or second-order correction.
 Total Energy, E(TD-HF/TD-DFT) =  -2933.41931651
 Copying the excited state density for this state as the 1-particle RhoCI density.

 The electronic state is 1-A.
 Alpha  occ. eigenvalues --  -46.80449 -19.22533 -19.21946 -19.17376 -19.16463
 Alpha  occ. eigenvalues --  -19.16041 -14.38078 -14.35576 -14.34355 -14.34337
 Alpha  occ. eigenvalues --  -10.34816 -10.34461 -10.30980 -10.27589 -10.26550
 Alpha  occ. eigenvalues --  -10.26309 -10.25638 -10.25227 -10.25036 -10.24697
 Alpha  occ. eigenvalues --  -10.24590 -10.24473 -10.24451 -10.24120 -10.24018
 Alpha  occ. eigenvalues --  -10.23617 -10.23434 -10.23392 -10.23181 -10.23167
 Alpha  occ. eigenvalues --  -10.22930 -10.22909 -10.22863 -10.22799 -10.22733
 Alpha  occ. eigenvalues --  -10.22560 -10.22504 -10.22499 -10.22425 -10.22291
 Alpha  occ. eigenvalues --  -10.22149 -10.22074 -10.21848 -10.21816 -10.21719
 Alpha  occ. eigenvalues --  -10.21543 -10.21520 -10.21461 -10.21286 -10.21170
 Alpha  occ. eigenvalues --  -10.21166 -10.21052 -10.21044 -10.21003 -10.20993
 Alpha  occ. eigenvalues --  -10.20980 -10.20929 -10.20901 -10.20810 -10.20593
 Alpha  occ. eigenvalues --  -10.20139 -10.20097 -10.19814 -10.18885 -10.17621
 Alpha  occ. eigenvalues --   -3.08912  -1.83873  -1.83422  -1.83258  -1.13359
 Alpha  occ. eigenvalues --   -1.12307  -1.09649  -1.02154  -1.01016  -1.00238
 Alpha  occ. eigenvalues --   -0.99809  -0.98465  -0.97993  -0.88172  -0.86319
 Alpha  occ. eigenvalues --   -0.85798  -0.85089  -0.84573  -0.84424  -0.83771
 Alpha  occ. eigenvalues --   -0.83427  -0.83252  -0.82663  -0.81936  -0.81203
 Alpha  occ. eigenvalues --   -0.80055  -0.79796  -0.79180  -0.77994  -0.77781
 Alpha  occ. eigenvalues --   -0.77035  -0.76524  -0.75698  -0.75398  -0.74138
 Alpha  occ. eigenvalues --   -0.73015  -0.72563  -0.72272  -0.71900  -0.71859
 Alpha  occ. eigenvalues --   -0.71350  -0.70450  -0.70034  -0.69242  -0.68603
 Alpha  occ. eigenvalues --   -0.67594  -0.66181  -0.65613  -0.64896  -0.64097
 Alpha  occ. eigenvalues --   -0.62434  -0.62088  -0.61458  -0.61164  -0.60391
 Alpha  occ. eigenvalues --   -0.60042  -0.58890  -0.58828  -0.58767  -0.58397
 Alpha  occ. eigenvalues --   -0.57854  -0.56990  -0.56948  -0.55801  -0.55547
 Alpha  occ. eigenvalues --   -0.54934  -0.54762  -0.54149  -0.53634  -0.53207
 Alpha  occ. eigenvalues --   -0.52376  -0.51889  -0.51206  -0.51080  -0.50909
 Alpha  occ. eigenvalues --   -0.50478  -0.50341  -0.50177  -0.49504  -0.49457
 Alpha  occ. eigenvalues --   -0.49080  -0.48707  -0.48324  -0.48234  -0.48134
 Alpha  occ. eigenvalues --   -0.47960  -0.47677  -0.47527  -0.47418  -0.47205
 Alpha  occ. eigenvalues --   -0.46838  -0.46775  -0.46502  -0.46096  -0.46016
 Alpha  occ. eigenvalues --   -0.45655  -0.45589  -0.45461  -0.45199  -0.44973
 Alpha  occ. eigenvalues --   -0.44761  -0.44587  -0.44395  -0.44281  -0.44222
 Alpha  occ. eigenvalues --   -0.43791  -0.43313  -0.43114  -0.43096  -0.42685
 Alpha  occ. eigenvalues --   -0.42474  -0.42394  -0.42014  -0.41973  -0.41738
 Alpha  occ. eigenvalues --   -0.41718  -0.41522  -0.41234  -0.40976  -0.40904
 Alpha  occ. eigenvalues --   -0.40654  -0.40522  -0.40308  -0.40069  -0.40066
 Alpha  occ. eigenvalues --   -0.39748  -0.39547  -0.39497  -0.39407  -0.38873
 Alpha  occ. eigenvalues --   -0.38703  -0.38518  -0.38287  -0.38172  -0.38138
 Alpha  occ. eigenvalues --   -0.37935  -0.37719  -0.37647  -0.37269  -0.37132
 Alpha  occ. eigenvalues --   -0.37095  -0.36626  -0.36571  -0.36412  -0.36041
 Alpha  occ. eigenvalues --   -0.35685  -0.35565  -0.35062  -0.34848  -0.34756
 Alpha  occ. eigenvalues --   -0.34354  -0.33879  -0.33702  -0.33431  -0.33313
 Alpha  occ. eigenvalues --   -0.33072  -0.32867  -0.32706  -0.32322  -0.32034
 Alpha  occ. eigenvalues --   -0.31699  -0.31661  -0.31471  -0.30245  -0.30210
 Alpha  occ. eigenvalues --   -0.30122  -0.29681  -0.29460  -0.29236  -0.27724
 Alpha  occ. eigenvalues --   -0.27266  -0.26739  -0.26256  -0.24481  -0.21760
 Alpha  occ. eigenvalues --   -0.19847
 Alpha virt. eigenvalues --   -0.07438  -0.03497   0.00244   0.01700   0.01754
 Alpha virt. eigenvalues --    0.03984   0.04576   0.04842   0.05162   0.06276
 Alpha virt. eigenvalues --    0.06714   0.08630   0.09225   0.09559   0.09827

 Mulliken charges:
               1
     1  Mg   0.814165
     2  C    0.092437
     3  C   -0.198672
     4  C   -0.161263
     5  C   -0.178727
     6  N   -0.596345
     7  C    0.269170
     8  C   -0.141433
     9  C   -0.127244
    10  C    0.341968
    11  C   -0.306692
    12  C   -0.171647
    13  C   -0.240439
    14  C    0.558659
    15  O   -0.498571
    16  O   -0.438245
    17  N   -0.743476
    18  C    0.261874
    19  C    0.034211
    20  C   -0.031780
    21  C    0.364571
    22  C   -0.386456
    23  C   -0.068066
    24  C   -0.234868
    25  N   -0.690426
    26  C    0.301376
    27  C    0.066068
    28  C    0.024675
    29  C    0.327359
    30  C   -0.391338
    31  C   -0.262424
    32  C   -0.303950
    33  N   -0.751971
    34  C    0.276932
    35  C    0.014503
    36  C   -0.008623
    37  C    0.335475
    38  C   -0.364643
    39  C    0.364022
    40  O   -0.409755
    41  C   -0.374541
    42  C    0.644467
    43  O   -0.503298
    44  O   -0.444107
    45  C   -0.047023
    46  C   -0.005266
    47  C   -0.140522
    48  C    0.148933
    49  C   -0.383613
    50  C   -0.225460
    51  C   -0.179688
    52  C   -0.167158
    53  C   -0.045217
    54  C   -0.307561
    55  C   -0.164396
    56  C   -0.175636
    57  C   -0.173001
    58  C   -0.072084
    59  C   -0.294922
    60  C   -0.166435
    61  C   -0.186544
    62  C   -0.129756
    63  C   -0.050288
    64  C   -0.292695
    65  C   -0.334102
    66  H    0.076662
    67  H    0.079022
    68  H    0.082322
    69  H    0.131508
    70  H    0.100498
    71  H    0.118921
    72  H    0.098367
    73  H    0.114686
    74  H    0.114904
    75  H    0.110947
    76  H    0.133220
    77  H    0.141803
    78  H    0.131401
    79  H    0.114740
    80  H    0.104866
    81  H    0.073531
    82  H    0.090365
    83  H    0.085351
    84  H    0.124808
    85  H    0.116496
    86  H    0.109910
    87  H    0.104238
    88  H    0.108277
    89  H    0.099560
    90  H    0.126085
    91  H    0.098572
    92  H    0.125338
    93  H    0.143287
    94  H    0.113131
    95  H    0.170929
    96  H    0.133450
    97  H    0.078090
    98  H    0.126975
    99  H    0.145116
   100  H    0.095420
   101  H    0.100619
   102  H    0.114914
   103  H    0.114567
   104  H    0.140634
   105  H    0.113664
   106  H    0.079095
   107  H    0.106205
   108  H    0.071785
   109  H    0.076104
   110  H    0.066291
   111  H    0.066292
   112  H    0.098873
   113  H    0.098865
   114  H    0.107449
   115  H    0.086827
   116  H    0.080639
   117  H    0.110127
   118  H    0.101363
   119  H    0.097858
   120  H    0.080454
   121  H    0.087903
   122  H    0.094031
   123  H    0.107776
   124  H    0.074829
   125  H    0.065687
   126  H    0.091535
   127  H    0.095441
   128  H    0.046055
   129  H    0.067362
   130  H    0.095287
   131  H    0.095500
   132  H    0.096079
   133  H    0.064847
   134  H    0.107766
   135  H    0.108009
   136  H    0.091559
   137  H    0.104416
 Sum of Mulliken charges =  -0.00000

 Dipole moment (field-independent basis, Debye):
    X=              0.2810    Y=              2.4096    Z=             -0.3619  Tot=              2.4528
 Quadrupole moment (field-independent basis, Debye-Ang):
   XX=           -346.3066   YY=           -397.8169   ZZ=           -399.9499
   XY=            -12.5260   XZ=             24.7804   YZ=             -5.9794

 Normal termination of Gaussian 16 at Sun Sep 15 05:35:27 2019.
