 Gaussian 16, Revision A.03,
 Gaussian 16:  ES64L-G16RevA.03 25-Dec-2016

 -------------------------------------
 # td=(NStates=1) CAM-B3LYP/6-31G(d,p)
 -------------------------------------

 --
 TD
 --
 Symbolic Z-matrix:
 Charge =  0 Multiplicity = 1

                         Standard orientation:
 ---------------------------------------------------------------------
 Center     Atomic      Atomic             Coordinates (Angstroms)
 Number     Number       Type             X           Y           Z
 ---------------------------------------------------------------------
      1         12           0       -7.102110    0.629024    0.084823
      2          6           0       -4.870172   -2.038217    0.459833
      3          6           0       -4.724126    2.847402    1.199593
      4          6           0       -9.357250    3.160069   -0.297585
      5          6           0       -9.512815   -1.769048   -0.930310
      6          7           0       -5.132381    0.372892    0.737699
      7          6           0       -4.340428   -0.761615    0.767829
      8          6           0       -2.961286   -0.520927    1.255395
      9          6           0       -2.973123    0.979138    1.684255
     10          6           0       -4.311571    1.483389    1.282987
     11          6           0       -2.899204    1.109426    3.259648
     12          6           0       -1.828505   -0.711679    0.124088
     13          6           0       -0.472130   -0.433987    0.625401
     14          6           0        0.468574   -0.615140   -0.600847
     15          8           0        0.173601   -1.040352   -1.645414
     16          8           0        1.744265   -0.344872   -0.241761
     17          7           0       -7.013955    2.590522    0.386705
     18          6           0       -5.972815    3.389225    0.787827
     19          6           0       -6.263054    4.717291    0.807156
     20          6           0       -7.546373    4.785465    0.364802
     21          6           0       -8.049695    3.523910    0.021122
     22          6           0       -5.276341    5.798683    1.270186
     23          6           0       -8.452797    5.966201    0.090807
     24          6           0       -8.239568    7.125081    0.851468
     25          7           0       -9.068222    0.663151   -0.644127
     26          6           0       -9.808628    1.837709   -0.725177
     27          6           0      -11.091476    1.580230   -1.145233
     28          6           0      -11.264289    0.149767   -1.170925
     29          6           0       -9.941109   -0.339502   -0.964645
     30          6           0      -12.235935    2.495539   -1.336569
     31          6           0      -12.416160   -0.676349   -1.633410
     32          6           0      -12.366543   -0.775256   -3.235723
     33          7           0       -7.203923   -1.375363   -0.164826
     34          6           0       -8.289062   -2.267450   -0.587058
     35          6           0       -7.814432   -3.612687   -0.622647
     36          6           0       -6.461371   -3.679681   -0.244958
     37          6           0       -6.150938   -2.294665    0.103105
     38          6           0       -8.655649   -4.834939   -1.108895
     39          6           0       -5.303235   -4.431343    0.124352
     40          8           0       -5.202745   -5.624288    0.125484
     41          6           0       -4.215045   -3.373170    0.586496
     42          6           0       -3.609176   -3.714032    1.944559
     43          8           0       -3.921173   -3.218690    3.023789
     44          8           0       -2.755394   -4.720267    1.738520
     45          6           0       -2.189045   -5.184351    3.039488
     46          6           0        2.751152   -0.534908   -1.230659
     47          6           0        3.992616   -0.264014   -0.546821
     48          6           0        5.054590    0.408025   -0.965055
     49          6           0        5.120236    1.331525   -2.251227
     50          6           0        6.398116    0.467961   -0.120393
     51          6           0        7.598801   -0.089804   -0.979508
     52          6           0        8.837890   -0.070525   -0.066646
     53          6           0       10.132894   -0.454571   -0.818649
     54          6           0       10.144166   -1.904331   -1.441953
     55          6           0       11.456436   -0.253848   -0.038018
     56          6           0       12.691022   -0.440165   -0.746175
     57          6           0       13.912537   -0.080708    0.153899
     58          6           0       15.304089   -0.362439   -0.557170
     59          6           0       15.597623   -1.647933   -0.930327
     60          6           0       16.393135    0.260338    0.395274
     61          6           0       17.840514    0.505082   -0.233780
     62          6           0       18.730285    1.169135    0.806021
     63          6           0       20.130349    1.311160    0.149777
     64          6           0       20.217872    2.252618   -1.028221
     65          6           0       21.029831    1.735973    1.345735
     66          1           0       -3.942282    3.429269    1.788634
     67          1           0       -9.995077    3.968237   -0.715545
     68          1           0      -10.263146   -2.399143   -1.095524
     69          1           0       -2.695355   -1.162332    2.115833
     70          1           0       -2.060785    1.345556    1.218120
     71          1           0       -2.065568    0.594591    3.736331
     72          1           0       -2.911114    2.276858    3.493508
     73          1           0       -3.705330    0.606187    3.688564
     74          1           0       -1.855549   -1.780374    0.048653
     75          1           0       -2.238362   -0.026562   -0.768968
     76          1           0       -0.176871    0.664508    0.930103
     77          1           0       -0.149470   -1.161519    1.698087
     78          1           0       -5.454629    6.750653    0.716878
     79          1           0       -5.215367    5.901071    2.458087
     80          1           0       -4.131019    5.746490    0.852225
     81          1           0       -9.160825    5.983689   -0.646052
     82          1           0       -8.758677    8.029813    0.781777
     83          1           0       -7.460627    7.189347    1.476195
     84          1           0      -12.178549    3.087053   -2.356733
     85          1           0      -13.370739    2.231303   -1.317057
     86          1           0      -12.122202    3.263962   -0.535024
     87          1           0      -12.485315   -1.603972   -1.351753
     88          1           0      -13.192718   -0.027897   -1.457944
     89          1           0      -13.223191   -1.249360   -3.433438
     90          1           0      -12.480805    0.180877   -3.723065
     91          1           0      -11.544876   -1.253509   -3.638778
     92          1           0       -8.737393   -4.544408   -2.260155
     93          1           0       -8.282220   -5.932259   -1.090775
     94          1           0       -9.700980   -4.904138   -0.673560
     95          1           0       -3.330716   -3.613304   -0.015979
     96          1           0       -1.464461   -4.535201    3.341293
     97          1           0       -3.058949   -5.053017    3.964754
     98          1           0       -1.822551   -6.231234    2.895749
     99          1           0        2.631925   -1.535424   -1.349493
    100          1           0        2.517832    0.033309   -2.254666
    101          1           0        4.104084   -0.808723    0.352700
    102          1           0        4.151935    1.314841   -2.906919
    103          1           0        5.233866    2.519283   -2.046408
    104          1           0        6.094018    0.965577   -2.965462
    105          1           0        6.520416    1.372598    0.312340
    106          1           0        6.220800   -0.158746    0.853064
    107          1           0        7.257372   -1.099538   -1.359070
    108          1           0        7.997744    0.522647   -1.726203
    109          1           0        9.065273    1.000723    0.316928
    110          1           0        8.850889   -0.799008    0.898780
    111          1           0       10.006730    0.403205   -1.660505
    112          1           0        9.170848   -2.073983   -1.943185
    113          1           0       10.851997   -2.194872   -2.101451
    114          1           0       10.260130   -2.831704   -0.805049
    115          1           0       11.388413    0.738506    0.497722
    116          1           0       11.379679   -0.991635    0.939102
    117          1           0       12.721097   -1.512857   -1.188600
    118          1           0       12.855455    0.288481   -1.594182
    119          1           0       13.811211    0.946386    0.738536
    120          1           0       13.694201   -0.855819    0.958330
    121          1           0       15.405082    0.318468   -1.401771
    122          1           0       15.637362   -2.437857   -0.036271
    123          1           0       14.973609   -2.013525   -1.838622
    124          1           0       16.713025   -1.703239   -1.321524
    125          1           0       16.129182    1.125069    1.119418
    126          1           0       16.343280   -0.685200    1.190033
    127          1           0       18.339555   -0.356491   -0.663972
    128          1           0       17.631480    1.309685   -1.300725
    129          1           0       18.247546    2.203485    1.136423
    130          1           0       18.729122    0.421238    1.538386
    131          1           0       20.418169    0.303927   -0.307300
    132          1           0       19.610630    3.190622   -0.637513
    133          1           0       21.081399    2.329710   -1.526173
    134          1           0       19.434944    2.018960   -1.845901
    135          1           0       21.001849    1.168583    2.167733
    136          1           0       22.157435    1.864088    1.028330
    137          1           0       20.806101    2.690712    1.722602
 ---------------------------------------------------------------------

 SCF Done:  E(RCAM-B3LYP) =  -2932.59504941     A.U. after   15 cycles

 Excitation energies and oscillator strengths:

 Excited State   1:      Singlet-A      2.0545 eV  603.46 nm  f=0.1569  <S**2>=0.000
     240 -> 243       -0.30243
     241 -> 242        0.62822
 This state for optimization and/or second-order correction.
 Total Energy, E(TD-HF/TD-DFT) =  -2932.51954626
 Copying the excited state density for this state as the 1-particle RhoCI density.

 The electronic state is 1-A.
 Alpha  occ. eigenvalues --  -46.82724 -19.27598 -19.25348 -19.21647 -19.21045
 Alpha  occ. eigenvalues --  -19.20426 -14.41572 -14.38866 -14.38734 -14.38205
 Alpha  occ. eigenvalues --  -10.39303 -10.39075 -10.35164 -10.32535 -10.31388
 Alpha  occ. eigenvalues --  -10.31353 -10.31340 -10.30768 -10.30377 -10.29427
 Alpha  occ. eigenvalues --  -10.29391 -10.29253 -10.28919 -10.28706 -10.28529
 Alpha  occ. eigenvalues --  -10.28522 -10.28421 -10.28291 -10.28238 -10.28027
 Alpha  occ. eigenvalues --  -10.27962 -10.27959 -10.27635 -10.27475 -10.27425
 Alpha  occ. eigenvalues --  -10.27388 -10.27307 -10.27119 -10.27065 -10.26991
 Alpha  occ. eigenvalues --  -10.26990 -10.26963 -10.26668 -10.26653 -10.26542
 Alpha  occ. eigenvalues --  -10.26496 -10.26358 -10.26198 -10.26140 -10.26073
 Alpha  occ. eigenvalues --  -10.26023 -10.25834 -10.25673 -10.25605 -10.25532
 Alpha  occ. eigenvalues --  -10.25528 -10.25484 -10.25299 -10.25145 -10.25079
 Alpha  occ. eigenvalues --  -10.24680 -10.24401 -10.24284 -10.23528 -10.22955
 Alpha  occ. eigenvalues --   -3.11839  -1.86540  -1.86092  -1.86019  -1.19726
 Alpha  occ. eigenvalues --   -1.18348  -1.12192  -1.11342  -1.08821  -1.03063
 Alpha  occ. eigenvalues --   -1.01782  -1.01500  -1.00007  -0.92460  -0.91031
 Alpha  occ. eigenvalues --   -0.90575  -0.89953  -0.89407  -0.88684  -0.88461
 Alpha  occ. eigenvalues --   -0.88047  -0.87570  -0.86943  -0.86157  -0.86068
 Alpha  occ. eigenvalues --   -0.85170  -0.83645  -0.83605  -0.82545  -0.81894
 Alpha  occ. eigenvalues --   -0.81624  -0.80999  -0.80154  -0.79557  -0.77508
 Alpha  occ. eigenvalues --   -0.77121  -0.76621  -0.76402  -0.75536  -0.75435
 Alpha  occ. eigenvalues --   -0.74502  -0.74446  -0.73833  -0.73158  -0.72407
 Alpha  occ. eigenvalues --   -0.72018  -0.70912  -0.69862  -0.68974  -0.68222
 Alpha  occ. eigenvalues --   -0.67245  -0.66155  -0.65544  -0.64161  -0.63629
 Alpha  occ. eigenvalues --   -0.63438  -0.62920  -0.62653  -0.62198  -0.61538
 Alpha  occ. eigenvalues --   -0.61220  -0.61103  -0.60393  -0.59649  -0.59110
 Alpha  occ. eigenvalues --   -0.58358  -0.57956  -0.57527  -0.57062  -0.56784
 Alpha  occ. eigenvalues --   -0.56137  -0.55774  -0.55286  -0.55079  -0.54886
 Alpha  occ. eigenvalues --   -0.54725  -0.54196  -0.54020  -0.53972  -0.53712
 Alpha  occ. eigenvalues --   -0.52464  -0.52430  -0.52336  -0.51751  -0.51463
 Alpha  occ. eigenvalues --   -0.51187  -0.51088  -0.50760  -0.50458  -0.50314
 Alpha  occ. eigenvalues --   -0.50109  -0.49922  -0.49709  -0.49606  -0.49177
 Alpha  occ. eigenvalues --   -0.48705  -0.48644  -0.48430  -0.48237  -0.47959
 Alpha  occ. eigenvalues --   -0.47836  -0.47576  -0.47048  -0.46859  -0.46675
 Alpha  occ. eigenvalues --   -0.46458  -0.46224  -0.45956  -0.45826  -0.45645
 Alpha  occ. eigenvalues --   -0.45404  -0.45286  -0.45163  -0.44816  -0.44571
 Alpha  occ. eigenvalues --   -0.44373  -0.44307  -0.44297  -0.43901  -0.43852
 Alpha  occ. eigenvalues --   -0.43586  -0.43266  -0.43224  -0.43018  -0.42884
 Alpha  occ. eigenvalues --   -0.42616  -0.42525  -0.42378  -0.42182  -0.42122
 Alpha  occ. eigenvalues --   -0.41882  -0.41711  -0.41630  -0.41597  -0.41504
 Alpha  occ. eigenvalues --   -0.41231  -0.41147  -0.40672  -0.40597  -0.40514
 Alpha  occ. eigenvalues --   -0.40162  -0.39774  -0.39672  -0.39609  -0.39483
 Alpha  occ. eigenvalues --   -0.39069  -0.39047  -0.38911  -0.37512  -0.37373
 Alpha  occ. eigenvalues --   -0.37020  -0.36872  -0.36762  -0.36711  -0.36474
 Alpha  occ. eigenvalues --   -0.36370  -0.36137  -0.36011  -0.35995  -0.35182
 Alpha  occ. eigenvalues --   -0.34895  -0.34606  -0.34420  -0.34198  -0.33726
 Alpha  occ. eigenvalues --   -0.33412  -0.32144  -0.32133  -0.30528  -0.30443
 Alpha  occ. eigenvalues --   -0.30108  -0.28724  -0.27428  -0.26149  -0.22993
 Alpha  occ. eigenvalues --   -0.21508
 Alpha virt. eigenvalues --   -0.06256  -0.04198   0.01321   0.04170   0.05340
 Alpha virt. eigenvalues --    0.05814   0.06270   0.06453   0.07112   0.07551
 Alpha virt. eigenvalues --    0.08322   0.11009   0.11292   0.11714   0.11993

 Mulliken charges:
               1
     1  Mg   0.798711
     2  C    0.076751
     3  C   -0.203207
     4  C   -0.149845
     5  C   -0.165388
     6  N   -0.636981
     7  C    0.342659
     8  C   -0.192199
     9  C   -0.143360
    10  C    0.301475
    11  C   -0.309648
    12  C   -0.156262
    13  C   -0.264461
    14  C    0.607977
    15  O   -0.433529
    16  O   -0.494411
    17  N   -0.713910
    18  C    0.325005
    19  C    0.073289
    20  C   -0.014250
    21  C    0.267255
    22  C   -0.374203
    23  C   -0.086160
    24  C   -0.235121
    25  N   -0.674111
    26  C    0.288532
    27  C    0.024139
    28  C   -0.005275
    29  C    0.259994
    30  C   -0.398710
    31  C   -0.209003
    32  C   -0.326433
    33  N   -0.705421
    34  C    0.327192
    35  C   -0.006767
    36  C    0.057506
    37  C    0.243727
    38  C   -0.366489
    39  C    0.366081
    40  O   -0.440189
    41  C   -0.343132
    42  C    0.631291
    43  O   -0.493077
    44  O   -0.447645
    45  C   -0.102760
    46  C    0.030637
    47  C   -0.123559
    48  C    0.105507
    49  C   -0.343330
    50  C   -0.222978
    51  C   -0.163991
    52  C   -0.177455
    53  C   -0.042606
    54  C   -0.330706
    55  C   -0.154881
    56  C   -0.165128
    57  C   -0.178793
    58  C   -0.032679
    59  C   -0.297126
    60  C   -0.175710
    61  C   -0.156570
    62  C   -0.162687
    63  C   -0.057173
    64  C   -0.295159
    65  C   -0.307126
    66  H    0.082652
    67  H    0.100901
    68  H    0.070498
    69  H    0.123748
    70  H    0.106342
    71  H    0.104735
    72  H    0.090889
    73  H    0.140127
    74  H    0.129450
    75  H    0.126292
    76  H    0.129381
    77  H    0.102827
    78  H    0.123920
    79  H    0.117038
    80  H    0.097241
    81  H    0.100806
    82  H    0.101272
    83  H    0.105266
    84  H    0.100926
    85  H    0.116383
    86  H    0.116665
    87  H    0.107581
    88  H    0.107719
    89  H    0.108224
    90  H    0.106782
    91  H    0.117413
    92  H    0.118367
    93  H    0.144331
    94  H    0.121052
    95  H    0.158815
    96  H    0.140540
    97  H    0.133222
    98  H    0.135125
    99  H    0.128443
   100  H    0.111434
   101  H    0.094156
   102  H    0.101041
   103  H    0.104698
   104  H    0.094544
   105  H    0.119347
   106  H    0.087215
   107  H    0.111025
   108  H    0.109570
   109  H    0.087853
   110  H    0.068899
   111  H    0.055028
   112  H    0.092232
   113  H    0.119203
   114  H    0.092804
   115  H    0.078094
   116  H    0.061473
   117  H    0.092180
   118  H    0.089423
   119  H    0.085383
   120  H    0.082197
   121  H    0.092240
   122  H    0.087685
   123  H    0.099354
   124  H    0.091199
   125  H    0.087065
   126  H    0.049085
   127  H    0.105512
   128  H    0.029291
   129  H    0.086545
   130  H    0.116711
   131  H    0.077365
   132  H    0.082260
   133  H    0.116581
   134  H    0.090400
   135  H    0.111080
   136  H    0.069991
   137  H    0.106739
 Sum of Mulliken charges =  -0.00000

 Dipole moment (field-independent basis, Debye):
    X=              2.7727    Y=              3.2104    Z=              0.3051  Tot=              4.2530
 Quadrupole moment (field-independent basis, Debye-Ang):
   XX=           -356.2679   YY=           -388.1425   ZZ=           -397.0179
   XY=            -19.6928   XZ=             13.7910   YZ=             -2.1219

 Normal termination of Gaussian 16 at Thu Jun 27 03:26:31 2019.
