 Gaussian 16, Revision A.03,
 Gaussian 16:  ES64L-G16RevA.03 25-Dec-2016

 ----------------------------------------------------------------------
 # td=(NStates=1) iop(3/107=0140000000,3/108=0140000000) CAM-B3LYP/6-31
 G(d,p)
 ----------------------------------------------------------------------

 --
 TD
 --
 Symbolic Z-matrix:
 Charge =  0 Multiplicity = 1

                         Standard orientation:
 ---------------------------------------------------------------------
 Center     Atomic      Atomic             Coordinates (Angstroms)
 Number     Number       Type             X           Y           Z
 ---------------------------------------------------------------------
      1         12           0       -7.079314    0.605938    0.144021
      2          6           0       -4.837489   -1.927220    0.457460
      3          6           0       -4.634888    2.817390    0.988838
      4          6           0       -9.278996    3.194039   -0.410055
      5          6           0       -9.479211   -1.710399   -0.777134
      6          7           0       -5.025068    0.498173    0.621903
      7          6           0       -4.386757   -0.711208    0.661629
      8          6           0       -2.962221   -0.433959    1.126290
      9          6           0       -2.967266    0.989107    1.707688
     10          6           0       -4.289219    1.464289    1.119463
     11          6           0       -2.906762    1.140611    3.138336
     12          6           0       -1.922146   -0.675534   -0.043877
     13          6           0       -0.513438   -0.532467    0.457457
     14          6           0        0.454109   -0.757785   -0.669024
     15          8           0        0.093896   -1.076253   -1.802001
     16          8           0        1.758683   -0.382733   -0.279150
     17          7           0       -6.967981    2.690187    0.284457
     18          6           0       -5.810276    3.369874    0.617777
     19          6           0       -6.267142    4.790987    0.824336
     20          6           0       -7.566496    4.934129    0.454307
     21          6           0       -7.970567    3.577894    0.077919
     22          6           0       -5.313935    5.954236    1.196719
     23          6           0       -8.368706    6.123955    0.141244
     24          6           0       -8.243001    7.264131    0.848544
     25          7           0       -9.017654    0.692315   -0.517080
     26          6           0       -9.793714    1.896408   -0.637561
     27          6           0      -11.136363    1.553609   -1.029472
     28          6           0      -11.228080    0.171659   -1.178960
     29          6           0       -9.747910   -0.381335   -0.873008
     30          6           0      -12.277432    2.527871   -1.276158
     31          6           0      -12.382857   -0.620259   -1.691742
     32          6           0      -12.144362   -1.185531   -3.160990
     33          7           0       -7.228209   -1.432127   -0.036530
     34          6           0       -8.275811   -2.232538   -0.392966
     35          6           0       -7.840445   -3.611367   -0.478680
     36          6           0       -6.531873   -3.612739   -0.047557
     37          6           0       -6.235424   -2.224992    0.161199
     38          6           0       -8.787950   -4.733531   -0.714592
     39          6           0       -5.268485   -4.424527    0.153762
     40          8           0       -5.080310   -5.610293    0.035818
     41          6           0       -4.160224   -3.373498    0.581380
     42          6           0       -3.557569   -3.666025    1.949040
     43          8           0       -3.754504   -3.164863    3.054700
     44          8           0       -2.688405   -4.706630    1.762384
     45          6           0       -2.250314   -5.341597    3.015249
     46          6           0        2.760499   -0.672191   -1.202330
     47          6           0        4.020979   -0.345771   -0.575416
     48          6           0        5.059380    0.402812   -1.080598
     49          6           0        5.122127    1.116023   -2.422456
     50          6           0        6.352221    0.507235   -0.401668
     51          6           0        7.534291   -0.142505   -1.125389
     52          6           0        8.780790   -0.180061   -0.289717
     53          6           0       10.066707   -0.579763   -0.940578
     54          6           0       10.024876   -2.056545   -1.399451
     55          6           0       11.351459   -0.348073   -0.047416
     56          6           0       12.713710   -0.430222   -0.713866
     57          6           0       13.801880    0.005525    0.108482
     58          6           0       15.222358   -0.188831   -0.530830
     59          6           0       15.596825   -1.647368   -0.782066
     60          6           0       16.260038    0.494993    0.429956
     61          6           0       17.710287    0.499318   -0.045012
     62          6           0       18.687236    1.209843    0.798854
     63          6           0       20.177979    1.288525    0.383656
     64          6           0       20.396257    2.014132   -0.923139
     65          6           0       20.949384    2.023100    1.495860
     66          1           0       -3.825795    3.436739    1.343262
     67          1           0      -10.071651    3.997575   -0.510419
     68          1           0      -10.256505   -2.518015   -0.869884
     69          1           0       -2.600103   -1.054911    2.036617
     70          1           0       -2.041688    1.468365    1.219295
     71          1           0       -1.902772    0.931694    3.394409
     72          1           0       -3.031481    2.141505    3.475554
     73          1           0       -3.559854    0.467332    3.802907
     74          1           0       -1.963585   -1.623997   -0.383801
     75          1           0       -2.060453   -0.000607   -0.865262
     76          1           0       -0.516587    0.582629    0.775259
     77          1           0       -0.322669   -1.381493    1.198882
     78          1           0       -5.613365    6.841126    0.592995
     79          1           0       -5.387494    6.270841    2.126479
     80          1           0       -4.211018    5.584321    0.869783
     81          1           0       -9.222847    6.009903   -0.563844
     82          1           0       -8.754547    8.298333    0.654826
     83          1           0       -7.496715    7.208990    1.590831
     84          1           0      -12.315782    2.955244   -2.325810
     85          1           0      -13.163982    2.025621   -1.454637
     86          1           0      -12.217660    3.201510   -0.490664
     87          1           0      -12.708394   -1.534041   -1.069461
     88          1           0      -13.291087   -0.022999   -1.707650
     89          1           0      -12.831232   -1.841671   -3.431283
     90          1           0      -11.886839   -0.339712   -3.799916
     91          1           0      -11.369640   -2.131097   -3.119238
     92          1           0       -9.157812   -4.870713   -1.814150
     93          1           0       -8.342417   -5.870104   -0.462886
     94          1           0       -9.541870   -4.694688    0.035337
     95          1           0       -3.301812   -3.449115   -0.186872
     96          1           0       -1.492583   -4.613235    3.576943
     97          1           0       -3.157252   -5.369135    3.729720
     98          1           0       -1.707167   -6.280094    2.681628
     99          1           0        2.546319   -1.541814   -1.604902
    100          1           0        2.697638   -0.063874   -2.218823
    101          1           0        3.959213   -0.796361    0.304299
    102          1           0        4.187417    1.320063   -2.883918
    103          1           0        5.547131    2.078384   -2.176972
    104          1           0        5.695254    0.466375   -2.958570
    105          1           0        6.532025    1.565886   -0.183065
    106          1           0        6.290236    0.057394    0.571309
    107          1           0        7.202186   -1.371875   -1.456846
    108          1           0        7.538692    0.473338   -2.038785
    109          1           0        9.087734    0.789554    0.310451
    110          1           0        8.561597   -0.818341    0.569725
    111          1           0        9.973001    0.184735   -1.835859
    112          1           0        9.034878   -2.260217   -1.768548
    113          1           0       10.778804   -2.397664   -2.252428
    114          1           0       10.014838   -2.725149   -0.452995
    115          1           0       11.249902    0.620956    0.438946
    116          1           0       11.559970   -1.040971    0.731728
    117          1           0       13.096263   -1.563702   -0.997617
    118          1           0       12.537305    0.192533   -1.591814
    119          1           0       13.760964    0.937664    0.589548
    120          1           0       13.879158   -0.807468    0.910500
    121          1           0       15.315423    0.315408   -1.558388
    122          1           0       15.507957   -2.256231    0.161188
    123          1           0       14.756174   -2.175139   -1.394649
    124          1           0       16.660698   -1.697514   -1.122450
    125          1           0       15.889839    1.441871    0.695232
    126          1           0       16.258878   -0.154253    1.498545
    127          1           0       18.060530   -0.468626   -0.303442
    128          1           0       17.570071    0.940804   -1.088181
    129          1           0       18.194449    2.290576    0.937114
    130          1           0       18.499519    0.729863    1.829075
    131          1           0       20.482725    0.194004    0.329456
    132          1           0       20.033536    3.208455   -0.851788
    133          1           0       21.379027    2.021632   -1.438543
    134          1           0       19.652628    1.645901   -1.808097
    135          1           0       20.771797    1.329976    2.410392
    136          1           0       21.887717    2.159778    1.267670
    137          1           0       20.426071    2.959895    1.808630
 ---------------------------------------------------------------------

 SCF Done:  E(RCAM-B3LYP) =  -2933.56572031     A.U. after   16 cycles

 Excitation energies and oscillator strengths:

 Excited State   1:      Singlet-A      2.0299 eV  610.80 nm  f=0.2874  <S**2>=0.000
     240 -> 243       -0.19498
     241 -> 242        0.67879
 This state for optimization and/or second-order correction.
 Total Energy, E(TD-HF/TD-DFT) =  -2933.49112364
 Copying the excited state density for this state as the 1-particle RhoCI density.

 The electronic state is 1-A.
 Alpha  occ. eigenvalues --  -46.80390 -19.21903 -19.21884 -19.17965 -19.17169
 Alpha  occ. eigenvalues --  -19.16689 -14.37593 -14.35451 -14.35196 -14.35090
 Alpha  occ. eigenvalues --  -10.35168 -10.34945 -10.31362 -10.28438 -10.26160
 Alpha  occ. eigenvalues --  -10.25549 -10.25506 -10.25460 -10.25442 -10.25408
 Alpha  occ. eigenvalues --  -10.25081 -10.24931 -10.23969 -10.23914 -10.23753
 Alpha  occ. eigenvalues --  -10.23655 -10.23340 -10.23318 -10.23226 -10.23219
 Alpha  occ. eigenvalues --  -10.23115 -10.23030 -10.22978 -10.22915 -10.22852
 Alpha  occ. eigenvalues --  -10.22824 -10.22773 -10.22697 -10.22613 -10.22584
 Alpha  occ. eigenvalues --  -10.22246 -10.22223 -10.22168 -10.22153 -10.22073
 Alpha  occ. eigenvalues --  -10.21831 -10.21796 -10.21710 -10.21586 -10.21313
 Alpha  occ. eigenvalues --  -10.21290 -10.21170 -10.21168 -10.21059 -10.20988
 Alpha  occ. eigenvalues --  -10.20977 -10.20910 -10.20822 -10.20792 -10.20398
 Alpha  occ. eigenvalues --  -10.20387 -10.20270 -10.20246 -10.20108 -10.19741
 Alpha  occ. eigenvalues --   -3.08902  -1.83856  -1.83363  -1.83303  -1.12102
 Alpha  occ. eigenvalues --   -1.11925  -1.06829  -1.05011  -1.03324  -1.00893
 Alpha  occ. eigenvalues --   -0.99991  -0.97873  -0.95837  -0.86903  -0.86684
 Alpha  occ. eigenvalues --   -0.85882  -0.85715  -0.84555  -0.84141  -0.83556
 Alpha  occ. eigenvalues --   -0.83393  -0.83297  -0.82604  -0.82240  -0.81793
 Alpha  occ. eigenvalues --   -0.80744  -0.79571  -0.78868  -0.78591  -0.77409
 Alpha  occ. eigenvalues --   -0.77260  -0.76381  -0.75782  -0.75520  -0.73660
 Alpha  occ. eigenvalues --   -0.73069  -0.72006  -0.71706  -0.71071  -0.70630
 Alpha  occ. eigenvalues --   -0.70433  -0.70312  -0.69535  -0.69225  -0.67999
 Alpha  occ. eigenvalues --   -0.67355  -0.66180  -0.65110  -0.64279  -0.63499
 Alpha  occ. eigenvalues --   -0.62589  -0.62403  -0.61213  -0.60516  -0.60003
 Alpha  occ. eigenvalues --   -0.59602  -0.59380  -0.58704  -0.58286  -0.57546
 Alpha  occ. eigenvalues --   -0.57383  -0.57118  -0.56122  -0.55945  -0.55255
 Alpha  occ. eigenvalues --   -0.54709  -0.54321  -0.53788  -0.53313  -0.52889
 Alpha  occ. eigenvalues --   -0.52073  -0.51925  -0.51461  -0.51380  -0.51145
 Alpha  occ. eigenvalues --   -0.50661  -0.50301  -0.49858  -0.49821  -0.49522
 Alpha  occ. eigenvalues --   -0.49403  -0.49070  -0.48980  -0.48836  -0.48401
 Alpha  occ. eigenvalues --   -0.48075  -0.47710  -0.47623  -0.47498  -0.47214
 Alpha  occ. eigenvalues --   -0.46818  -0.46675  -0.46523  -0.46266  -0.45936
 Alpha  occ. eigenvalues --   -0.45766  -0.45419  -0.45343  -0.45130  -0.45085
 Alpha  occ. eigenvalues --   -0.44838  -0.44743  -0.44421  -0.44062  -0.43859
 Alpha  occ. eigenvalues --   -0.43549  -0.43466  -0.43292  -0.43217  -0.42468
 Alpha  occ. eigenvalues --   -0.42274  -0.42005  -0.41834  -0.41606  -0.41425
 Alpha  occ. eigenvalues --   -0.41174  -0.40680  -0.40479  -0.40416  -0.40216
 Alpha  occ. eigenvalues --   -0.40175  -0.39937  -0.39933  -0.39725  -0.39663
 Alpha  occ. eigenvalues --   -0.39610  -0.39497  -0.39243  -0.39087  -0.39007
 Alpha  occ. eigenvalues --   -0.38859  -0.38831  -0.38584  -0.38274  -0.38201
 Alpha  occ. eigenvalues --   -0.37918  -0.37716  -0.37578  -0.37273  -0.37071
 Alpha  occ. eigenvalues --   -0.36951  -0.36453  -0.36403  -0.36009  -0.35903
 Alpha  occ. eigenvalues --   -0.35697  -0.35376  -0.35022  -0.34977  -0.34875
 Alpha  occ. eigenvalues --   -0.34214  -0.33872  -0.33805  -0.33467  -0.33399
 Alpha  occ. eigenvalues --   -0.33211  -0.33002  -0.32846  -0.32749  -0.32351
 Alpha  occ. eigenvalues --   -0.32026  -0.31940  -0.31853  -0.31016  -0.30889
 Alpha  occ. eigenvalues --   -0.30636  -0.29880  -0.29571  -0.28992  -0.27559
 Alpha  occ. eigenvalues --   -0.27310  -0.26344  -0.25691  -0.25039  -0.22137
 Alpha  occ. eigenvalues --   -0.19404
 Alpha virt. eigenvalues --   -0.06843  -0.03274   0.00128   0.01929   0.02487
 Alpha virt. eigenvalues --    0.03559   0.04064   0.04324   0.05299   0.05684
 Alpha virt. eigenvalues --    0.06475   0.08732   0.09195   0.09382   0.09746

 Mulliken charges:
               1
     1  Mg   0.813790
     2  C    0.095336
     3  C   -0.197859
     4  C   -0.192061
     5  C   -0.154628
     6  N   -0.643183
     7  C    0.294892
     8  C   -0.183328
     9  C   -0.133238
    10  C    0.330192
    11  C   -0.311667
    12  C   -0.163306
    13  C   -0.270064
    14  C    0.606016
    15  O   -0.457553
    16  O   -0.476357
    17  N   -0.697233
    18  C    0.340733
    19  C   -0.025863
    20  C    0.035900
    21  C    0.296106
    22  C   -0.373093
    23  C   -0.056282
    24  C   -0.248705
    25  N   -0.702526
    26  C    0.298068
    27  C    0.016997
    28  C    0.026994
    29  C    0.308003
    30  C   -0.358453
    31  C   -0.268609
    32  C   -0.292821
    33  N   -0.707800
    34  C    0.266526
    35  C    0.003765
    36  C    0.027775
    37  C    0.288315
    38  C   -0.395653
    39  C    0.378700
    40  O   -0.436543
    41  C   -0.306171
    42  C    0.622481
    43  O   -0.482879
    44  O   -0.445035
    45  C   -0.084381
    46  C    0.033435
    47  C   -0.113291
    48  C    0.090966
    49  C   -0.362036
    50  C   -0.227117
    51  C   -0.158702
    52  C   -0.171507
    53  C   -0.037845
    54  C   -0.307667
    55  C   -0.172945
    56  C   -0.158619
    57  C   -0.161758
    58  C   -0.054039
    59  C   -0.313106
    60  C   -0.155592
    61  C   -0.174038
    62  C   -0.154515
    63  C   -0.048195
    64  C   -0.293979
    65  C   -0.285630
    66  H    0.074348
    67  H    0.079718
    68  H    0.092088
    69  H    0.103566
    70  H    0.089313
    71  H    0.114030
    72  H    0.116004
    73  H    0.125260
    74  H    0.121840
    75  H    0.120208
    76  H    0.126231
    77  H    0.133266
    78  H    0.121225
    79  H    0.139163
    80  H    0.093145
    81  H    0.095008
    82  H    0.102796
    83  H    0.099240
    84  H    0.111430
    85  H    0.117173
    86  H    0.126613
    87  H    0.095032
    88  H    0.105138
    89  H    0.118548
    90  H    0.119873
    91  H    0.073406
    92  H    0.118324
    93  H    0.110111
    94  H    0.138796
    95  H    0.160827
    96  H    0.108062
    97  H    0.140481
    98  H    0.132764
    99  H    0.124024
   100  H    0.071648
   101  H    0.079294
   102  H    0.117875
   103  H    0.114564
   104  H    0.144597
   105  H    0.102392
   106  H    0.099196
   107  H    0.062945
   108  H    0.101165
   109  H    0.075040
   110  H    0.094181
   111  H    0.067394
   112  H    0.101184
   113  H    0.096564
   114  H    0.092243
   115  H    0.082481
   116  H    0.094393
   117  H    0.065287
   118  H    0.087061
   119  H    0.090048
   120  H    0.080573
   121  H    0.076094
   122  H    0.094935
   123  H    0.093714
   124  H    0.107333
   125  H    0.095997
   126  H    0.043897
   127  H    0.093669
   128  H    0.079415
   129  H    0.064880
   130  H    0.081130
   131  H    0.086094
   132  H    0.071702
   133  H    0.109613
   134  H    0.079309
   135  H    0.084382
   136  H    0.108768
   137  H    0.102778
 Sum of Mulliken charges =  -0.00000

 Dipole moment (field-independent basis, Debye):
    X=              0.9492    Y=              3.6985    Z=              1.0332  Tot=              3.9557
 Quadrupole moment (field-independent basis, Debye-Ang):
   XX=           -337.3160   YY=           -393.3369   ZZ=           -399.6500
   XY=            -15.7434   XZ=              8.6421   YZ=             -2.8730

 Normal termination of Gaussian 16 at Mon Sep 23 22:55:56 2019.
