 Gaussian 09, Revision D.01,
 Gaussian 09:  ES64L-G09RevD.01 24-Apr-2013

 -------------------------------------
 # td=(NStates=1) CAM-B3LYP/6-31G(d,p)
 -------------------------------------

 --
 TD
 --
 Symbolic Z-matrix:
 Charge =  0 Multiplicity = 1

                         Standard orientation:
 ---------------------------------------------------------------------
 Center     Atomic      Atomic             Coordinates (Angstroms)
 Number     Number       Type             X           Y           Z
 ---------------------------------------------------------------------
      1         12           0       -7.097466    0.688861    0.109259
      2          6           0       -4.810592   -1.935103    0.462220
      3          6           0       -4.744845    2.808416    1.121652
      4          6           0       -9.507411    3.056772   -0.312887
      5          6           0       -9.500601   -1.729784   -0.817393
      6          7           0       -5.053220    0.452421    0.631779
      7          6           0       -4.273884   -0.724952    0.738836
      8          6           0       -2.911033   -0.480759    1.153109
      9          6           0       -2.939338    1.002771    1.604862
     10          6           0       -4.309997    1.470921    1.090046
     11          6           0       -2.807825    1.142869    3.192079
     12          6           0       -1.913158   -0.768079    0.078802
     13          6           0       -0.370607   -0.567164    0.531516
     14          6           0        0.519908   -0.670760   -0.593690
     15          8           0        0.285209   -0.969161   -1.752621
     16          8           0        1.753250   -0.276689   -0.247278
     17          7           0       -6.961704    2.570733    0.372411
     18          6           0       -5.911177    3.326175    0.716362
     19          6           0       -6.306956    4.759430    0.899274
     20          6           0       -7.620634    4.866448    0.455495
     21          6           0       -8.054697    3.421250    0.127085
     22          6           0       -5.321485    5.839105    1.234357
     23          6           0       -8.388601    6.001901    0.043460
     24          6           0       -8.281323    7.266702    0.627230
     25          7           0       -9.107583    0.675186   -0.505374
     26          6           0       -9.819104    1.873932   -0.600335
     27          6           0      -11.227849    1.429201   -1.020257
     28          6           0      -11.247447    0.070697   -1.276431
     29          6           0       -9.900142   -0.400497   -0.807620
     30          6           0      -12.315306    2.371107   -1.274972
     31          6           0      -12.288171   -0.708300   -1.673766
     32          6           0      -12.378542   -1.080266   -3.168766
     33          7           0       -7.212457   -1.384659   -0.010743
     34          6           0       -8.204554   -2.223380   -0.550527
     35          6           0       -7.853437   -3.664732   -0.571799
     36          6           0       -6.462518   -3.572225   -0.213455
     37          6           0       -6.183383   -2.202227    0.057219
     38          6           0       -8.737850   -4.753116   -0.925083
     39          6           0       -5.322617   -4.331680    0.142855
     40          8           0       -5.282537   -5.502741    0.198550
     41          6           0       -4.270192   -3.288355    0.591704
     42          6           0       -3.524067   -3.686853    1.952214
     43          8           0       -3.687898   -3.087834    2.976569
     44          8           0       -2.643159   -4.722527    1.768616
     45          6           0       -2.121193   -5.108976    3.019458
     46          6           0        2.855795   -0.571814   -1.208518
     47          6           0        4.136693   -0.410872   -0.607607
     48          6           0        5.081737    0.466391   -1.061715
     49          6           0        5.016076    1.166594   -2.345933
     50          6           0        6.292942    0.575721   -0.249457
     51          6           0        7.534853   -0.153057   -1.036881
     52          6           0        8.874617   -0.082410   -0.121326
     53          6           0       10.143617   -0.448333   -0.883595
     54          6           0       10.049946   -1.926762   -1.442556
     55          6           0       11.313091   -0.327669   -0.012192
     56          6           0       12.653699   -0.520023   -0.771561
     57          6           0       13.869750   -0.078720    0.165029
     58          6           0       15.221064   -0.257792   -0.460403
     59          6           0       15.531687   -1.563188   -0.803146
     60          6           0       16.405647    0.306046    0.459153
     61          6           0       17.741610    0.391688   -0.084345
     62          6           0       18.734851    1.173544    0.775168
     63          6           0       20.161870    1.304262    0.230645
     64          6           0       20.230675    2.192220   -1.048446
     65          6           0       21.115514    1.786512    1.418828
     66          1           0       -3.996600    3.560678    1.634847
     67          1           0      -10.228321    3.892700   -0.119250
     68          1           0      -10.448660   -2.387593   -1.003753
     69          1           0       -2.690923   -0.890352    2.087648
     70          1           0       -2.338451    1.669972    1.127211
     71          1           0       -1.907685    0.679381    3.378229
     72          1           0       -2.925895    2.026895    3.682674
     73          1           0       -3.504066    0.452267    3.860116
     74          1           0       -2.056306   -1.839095   -0.529687
     75          1           0       -1.945311    0.140728   -0.699806
     76          1           0       -0.408974    0.537710    0.691983
     77          1           0       -0.168216   -1.252675    1.432419
     78          1           0       -5.592510    6.766117    0.643449
     79          1           0       -5.144806    6.243864    2.104034
     80          1           0       -4.266607    5.602213    1.089462
     81          1           0       -9.015948    5.992463   -0.670344
     82          1           0       -8.895850    8.164616    0.070558
     83          1           0       -7.485239    7.549628    1.361838
     84          1           0      -12.282339    3.071780   -2.126671
     85          1           0      -13.156034    1.754425   -1.500840
     86          1           0      -12.533919    3.079956   -0.362927
     87          1           0      -12.460238   -1.649661   -1.048097
     88          1           0      -13.265575   -0.456049   -1.563799
     89          1           0      -13.158906   -1.757004   -3.290629
     90          1           0      -12.503047   -0.225008   -3.798934
     91          1           0      -11.492493   -1.686777   -3.622833
     92          1           0       -8.997463   -4.598839   -1.905405
     93          1           0       -8.113966   -5.657468   -0.876060
     94          1           0       -9.715518   -4.920666   -0.330006
     95          1           0       -3.502960   -3.322529   -0.140749
     96          1           0       -1.564055   -4.340439    3.531912
     97          1           0       -2.946930   -5.424701    3.719839
     98          1           0       -1.388215   -5.919855    2.798104
     99          1           0        2.522129   -1.621343   -1.671374
    100          1           0        2.677816    0.056935   -2.138351
    101          1           0        4.257122   -0.945912    0.399167
    102          1           0        3.959282    1.211520   -2.764489
    103          1           0        5.260102    2.378051   -2.019934
    104          1           0        5.836719    0.847255   -3.110772
    105          1           0        6.625040    1.646278    0.019148
    106          1           0        6.262307    0.073405    0.726206
    107          1           0        7.499938   -1.304474   -1.171328
    108          1           0        7.546913    0.194748   -2.020598
    109          1           0        8.916056    0.768164    0.439024
    110          1           0        8.760407   -0.787620    0.755290
    111          1           0       10.111481    0.133837   -1.655275
    112          1           0        9.084111   -2.081167   -2.043198
    113          1           0       10.807895   -2.370468   -2.146737
    114          1           0        9.792699   -2.448030   -0.698289
    115          1           0       11.294325    0.758200    0.448817
    116          1           0       11.157660   -1.148663    0.764736
    117          1           0       12.717536   -1.500195   -1.062639
    118          1           0       12.496308    0.010036   -1.752432
    119          1           0       13.689272    0.866634    0.584042
    120          1           0       13.528493   -0.746363    1.079155
    121          1           0       15.435045    0.538530   -1.375223
    122          1           0       15.661451   -2.309996   -0.060655
    123          1           0       14.926379   -1.891865   -1.537007
    124          1           0       16.639884   -1.726705   -1.337915
    125          1           0       16.167292    1.338343    0.657827
    126          1           0       16.645438   -0.168999    1.400755
    127          1           0       18.135064   -0.698125   -0.412483
    128          1           0       17.824434    0.934693   -1.128572
    129          1           0       18.094381    2.173789    0.873947
    130          1           0       18.817291    0.575911    1.732264
    131          1           0       20.359387    0.212515   -0.273428
    132          1           0       20.178958    3.303023   -0.884658
    133          1           0       21.260769    2.344357   -1.427445
    134          1           0       19.623680    1.867232   -1.900644
    135          1           0       21.111193    1.100808    2.209298
    136          1           0       22.134608    1.919345    1.116494
    137          1           0       20.467939    2.652184    1.820455
 ---------------------------------------------------------------------

 SCF Done:  E(RCAM-B3LYP) =  -2932.59727923     A.U. after   18 cycles

 Excitation energies and oscillator strengths:

 Excited State   1:      Singlet-A      1.7390 eV  712.95 nm  f=0.3475  <S**2>=0.000
     240 -> 243        0.15742
     241 -> 242        0.68909
 This state for optimization and/or second-order correction.
 Total Energy, E(TD-HF/TD-KS) =  -2932.53337146
 Copying the excited state density for this state as the 1-particle RhoCI density.

 The electronic state is 1-A.
 Alpha  occ. eigenvalues --  -46.83864 -19.26836 -19.25002 -19.21799 -19.20092
 Alpha  occ. eigenvalues --  -19.19201 -14.42085 -14.40434 -14.39165 -14.38929
 Alpha  occ. eigenvalues --  -10.39819 -10.38380 -10.33268 -10.32030 -10.31942
 Alpha  occ. eigenvalues --  -10.30975 -10.30934 -10.29727 -10.29633 -10.29239
 Alpha  occ. eigenvalues --  -10.28953 -10.28725 -10.28685 -10.28626 -10.28316
 Alpha  occ. eigenvalues --  -10.28212 -10.28129 -10.28076 -10.27953 -10.27946
 Alpha  occ. eigenvalues --  -10.27855 -10.27822 -10.27813 -10.27395 -10.27112
 Alpha  occ. eigenvalues --  -10.27060 -10.26862 -10.26850 -10.26759 -10.26673
 Alpha  occ. eigenvalues --  -10.26569 -10.26565 -10.26330 -10.26315 -10.26246
 Alpha  occ. eigenvalues --  -10.26023 -10.25933 -10.25817 -10.25817 -10.25698
 Alpha  occ. eigenvalues --  -10.25662 -10.25512 -10.25405 -10.25337 -10.25249
 Alpha  occ. eigenvalues --  -10.25238 -10.25071 -10.24966 -10.24845 -10.24661
 Alpha  occ. eigenvalues --  -10.24449 -10.24028 -10.23967 -10.23832 -10.23406
 Alpha  occ. eigenvalues --   -3.13087  -1.87773  -1.87355  -1.87262  -1.18794
 Alpha  occ. eigenvalues --   -1.17337  -1.12639  -1.10502  -1.07557  -1.04514
 Alpha  occ. eigenvalues --   -1.03286  -1.02867  -1.01142  -0.92841  -0.92037
 Alpha  occ. eigenvalues --   -0.91528  -0.90749  -0.90536  -0.90372  -0.89348
 Alpha  occ. eigenvalues --   -0.88491  -0.88136  -0.87543  -0.86999  -0.86504
 Alpha  occ. eigenvalues --   -0.84726  -0.84423  -0.83376  -0.83318  -0.82725
 Alpha  occ. eigenvalues --   -0.82102  -0.81510  -0.80472  -0.79883  -0.78918
 Alpha  occ. eigenvalues --   -0.78140  -0.77174  -0.76549  -0.76454  -0.76038
 Alpha  occ. eigenvalues --   -0.75782  -0.74722  -0.74668  -0.73463  -0.72571
 Alpha  occ. eigenvalues --   -0.71792  -0.70829  -0.70156  -0.68565  -0.67869
 Alpha  occ. eigenvalues --   -0.67015  -0.66875  -0.65874  -0.65178  -0.64807
 Alpha  occ. eigenvalues --   -0.64745  -0.63884  -0.62248  -0.62040  -0.61804
 Alpha  occ. eigenvalues --   -0.61405  -0.61203  -0.61046  -0.60148  -0.59415
 Alpha  occ. eigenvalues --   -0.58635  -0.58251  -0.57782  -0.57174  -0.56920
 Alpha  occ. eigenvalues --   -0.56372  -0.55952  -0.55733  -0.55225  -0.55152
 Alpha  occ. eigenvalues --   -0.54703  -0.54605  -0.53994  -0.53649  -0.53226
 Alpha  occ. eigenvalues --   -0.52930  -0.52685  -0.52418  -0.52038  -0.51910
 Alpha  occ. eigenvalues --   -0.51661  -0.51521  -0.51097  -0.50758  -0.50710
 Alpha  occ. eigenvalues --   -0.50419  -0.50152  -0.50048  -0.49883  -0.49684
 Alpha  occ. eigenvalues --   -0.49360  -0.49252  -0.48907  -0.48628  -0.48534
 Alpha  occ. eigenvalues --   -0.48272  -0.48170  -0.47963  -0.47498  -0.47346
 Alpha  occ. eigenvalues --   -0.47000  -0.46818  -0.45975  -0.45932  -0.45749
 Alpha  occ. eigenvalues --   -0.45575  -0.45411  -0.45253  -0.44938  -0.44877
 Alpha  occ. eigenvalues --   -0.44602  -0.44535  -0.44468  -0.44297  -0.44105
 Alpha  occ. eigenvalues --   -0.43922  -0.43651  -0.43492  -0.43326  -0.43253
 Alpha  occ. eigenvalues --   -0.43097  -0.42985  -0.42785  -0.42697  -0.42557
 Alpha  occ. eigenvalues --   -0.42404  -0.42293  -0.41753  -0.41638  -0.41539
 Alpha  occ. eigenvalues --   -0.41373  -0.41223  -0.40984  -0.40906  -0.40386
 Alpha  occ. eigenvalues --   -0.40217  -0.40146  -0.39964  -0.39947  -0.39414
 Alpha  occ. eigenvalues --   -0.38735  -0.38424  -0.38192  -0.38153  -0.38112
 Alpha  occ. eigenvalues --   -0.37824  -0.37308  -0.37212  -0.36941  -0.36677
 Alpha  occ. eigenvalues --   -0.36648  -0.36296  -0.35614  -0.35497  -0.35402
 Alpha  occ. eigenvalues --   -0.35103  -0.34806  -0.34674  -0.34309  -0.33447
 Alpha  occ. eigenvalues --   -0.33207  -0.32711  -0.31392  -0.30729  -0.29344
 Alpha  occ. eigenvalues --   -0.28874  -0.28593  -0.27733  -0.27499  -0.23758
 Alpha  occ. eigenvalues --   -0.19528
 Alpha virt. eigenvalues --   -0.07012  -0.01624   0.02111   0.03551   0.04130
 Alpha virt. eigenvalues --    0.06038   0.06301   0.06498   0.06758   0.06992
 Alpha virt. eigenvalues --    0.08312   0.10753   0.10905   0.11626   0.12000

 Mulliken charges:
               1
     1  Mg   0.832651
     2  C    0.091568
     3  C   -0.222166
     4  C   -0.221741
     5  C   -0.188396
     6  N   -0.625787
     7  C    0.287330
     8  C   -0.133896
     9  C   -0.152818
    10  C    0.349046
    11  C   -0.333046
    12  C   -0.174178
    13  C   -0.278437
    14  C    0.622618
    15  O   -0.488518
    16  O   -0.490328
    17  N   -0.727284
    18  C    0.339993
    19  C    0.047030
    20  C   -0.008351
    21  C    0.239356
    22  C   -0.390236
    23  C   -0.060470
    24  C   -0.251719
    25  N   -0.723006
    26  C    0.401973
    27  C   -0.014184
    28  C    0.124292
    29  C    0.296170
    30  C   -0.380564
    31  C   -0.317440
    32  C   -0.314095
    33  N   -0.667730
    34  C    0.216891
    35  C    0.072883
    36  C   -0.020437
    37  C    0.282524
    38  C   -0.388351
    39  C    0.347163
    40  O   -0.436524
    41  C   -0.345801
    42  C    0.614915
    43  O   -0.453743
    44  O   -0.440609
    45  C   -0.089400
    46  C    0.003712
    47  C   -0.111589
    48  C    0.152320
    49  C   -0.352611
    50  C   -0.235340
    51  C   -0.191648
    52  C   -0.196668
    53  C   -0.047636
    54  C   -0.330036
    55  C   -0.163989
    56  C   -0.191816
    57  C   -0.168075
    58  C   -0.034521
    59  C   -0.295687
    60  C   -0.168663
    61  C   -0.179948
    62  C   -0.150792
    63  C   -0.045094
    64  C   -0.320159
    65  C   -0.318144
    66  H    0.078858
    67  H    0.114631
    68  H    0.090505
    69  H    0.137303
    70  H    0.111489
    71  H    0.123443
    72  H    0.123365
    73  H    0.113235
    74  H    0.111614
    75  H    0.098287
    76  H    0.148374
    77  H    0.139851
    78  H    0.114081
    79  H    0.135919
    80  H    0.110459
    81  H    0.091513
    82  H    0.086654
    83  H    0.106161
    84  H    0.122214
    85  H    0.112017
    86  H    0.099639
    87  H    0.099836
    88  H    0.125593
    89  H    0.109488
    90  H    0.116507
    91  H    0.093331
    92  H    0.141603
    93  H    0.144497
    94  H    0.119386
    95  H    0.156140
    96  H    0.123135
    97  H    0.128156
    98  H    0.117802
    99  H    0.113819
   100  H    0.113973
   101  H    0.093625
   102  H    0.121982
   103  H    0.080778
   104  H    0.127875
   105  H    0.095451
   106  H    0.108633
   107  H    0.096858
   108  H    0.101667
   109  H    0.098369
   110  H    0.076847
   111  H    0.097384
   112  H    0.079908
   113  H    0.105725
   114  H    0.118686
   115  H    0.073096
   116  H    0.081304
   117  H    0.113233
   118  H    0.081307
   119  H    0.099765
   120  H    0.081220
   121  H    0.071402
   122  H    0.113899
   123  H    0.108956
   124  H    0.066908
   125  H    0.081735
   126  H    0.090185
   127  H    0.062149
   128  H    0.063165
   129  H    0.076683
   130  H    0.083402
   131  H    0.068044
   132  H    0.090476
   133  H    0.093538
   134  H    0.112537
   135  H    0.115257
   136  H    0.109707
   137  H    0.104602
 Sum of Mulliken charges =   0.00000

 Dipole moment (field-independent basis, Debye):
    X=              2.1229    Y=              4.6717    Z=              0.8897  Tot=              5.2080
 Quadrupole moment (field-independent basis, Debye-Ang):
   XX=           -349.0790   YY=           -395.5160   ZZ=           -394.7212
   XY=            -21.1735   XZ=             14.4190   YZ=             -1.3713

 Normal termination of Gaussian 09 at Fri Jul  5 23:47:33 2019.
