 Gaussian 16, Revision A.03,
 Gaussian 16:  ES64L-G16RevA.03 25-Dec-2016

 ----------------------------------------------------------------------
 # td=(NStates=1) iop(3/107=0140000000,3/108=0140000000) CAM-B3LYP/6-31
 G(d,p)
 ----------------------------------------------------------------------

 --
 TD
 --
 Symbolic Z-matrix:
 Charge =  0 Multiplicity = 1

                         Standard orientation:
 ---------------------------------------------------------------------
 Center     Atomic      Atomic             Coordinates (Angstroms)
 Number     Number       Type             X           Y           Z
 ---------------------------------------------------------------------
      1         12           0       -7.115363    0.695486    0.022376
      2          6           0       -4.919206   -2.006277    0.509912
      3          6           0       -4.646190    2.953980    1.009688
      4          6           0       -9.350683    3.150628   -0.413621
      5          6           0       -9.614190   -1.713202   -0.968071
      6          7           0       -5.123848    0.467998    0.750691
      7          6           0       -4.374925   -0.784824    0.929019
      8          6           0       -2.911944   -0.476948    1.265155
      9          6           0       -2.945448    1.042902    1.724814
     10          6           0       -4.212093    1.627464    1.165510
     11          6           0       -2.826791    1.273059    3.209431
     12          6           0       -2.014989   -0.749089    0.060672
     13          6           0       -0.469625   -0.481544    0.540937
     14          6           0        0.515465   -0.763915   -0.489826
     15          8           0        0.335834   -1.093076   -1.597386
     16          8           0        1.737375   -0.621535    0.000176
     17          7           0       -6.948538    2.638066    0.294368
     18          6           0       -5.970122    3.394817    0.664212
     19          6           0       -6.386260    4.785533    0.708403
     20          6           0       -7.668352    4.827805    0.361624
     21          6           0       -8.028152    3.469373    0.094992
     22          6           0       -5.344485    5.955437    1.070930
     23          6           0       -8.450757    6.089656    0.017207
     24          6           0       -8.481660    7.266998    0.676188
     25          7           0       -9.120822    0.699474   -0.649652
     26          6           0       -9.882786    1.876060   -0.662211
     27          6           0      -11.202656    1.502771   -1.122597
     28          6           0      -11.244939    0.139263   -1.173643
     29          6           0       -9.894035   -0.365651   -0.910362
     30          6           0      -12.308768    2.591770   -1.251537
     31          6           0      -12.480697   -0.684725   -1.558294
     32          6           0      -12.473841   -1.216857   -3.018539
     33          7           0       -7.380215   -1.401717   -0.113747
     34          6           0       -8.378387   -2.258765   -0.590557
     35          6           0       -7.863742   -3.547061   -0.563983
     36          6           0       -6.563095   -3.523358   -0.107473
     37          6           0       -6.244639   -2.105286    0.165293
     38          6           0       -8.629572   -4.831424   -0.837531
     39          6           0       -5.358536   -4.318611    0.147799
     40          8           0       -5.154162   -5.513829    0.074472
     41          6           0       -4.227916   -3.281270    0.556474
     42          6           0       -3.588174   -3.781499    1.774082
     43          8           0       -3.861174   -3.225156    2.842008
     44          8           0       -2.861355   -4.836632    1.690737
     45          6           0       -2.182237   -5.390364    2.819352
     46          6           0        2.888614   -0.842127   -0.995048
     47          6           0        4.149825   -0.496552   -0.264160
     48          6           0        5.110995    0.313625   -0.721824
     49          6           0        5.009608    1.282108   -1.916480
     50          6           0        6.471030    0.261777   -0.005235
     51          6           0        7.656630   -0.154270   -0.822120
     52          6           0        8.914920   -0.141662   -0.079021
     53          6           0       10.293328   -0.427345   -0.955992
     54          6           0       10.071290   -1.889508   -1.522814
     55          6           0       11.533628   -0.304489   -0.033610
     56          6           0       12.814005   -0.324085   -0.878853
     57          6           0       14.003111   -0.186961    0.127005
     58          6           0       15.345772   -0.097120   -0.515077
     59          6           0       15.709271   -1.452125   -1.156115
     60          6           0       16.394908    0.460659    0.409309
     61          6           0       17.748491    0.538379   -0.223900
     62          6           0       18.784848    1.175308    0.694057
     63          6           0       20.191363    1.238789    0.322609
     64          6           0       20.224834    2.122958   -1.032656
     65          6           0       21.156688    1.884443    1.396986
     66          1           0       -3.809407    3.788862    1.383193
     67          1           0      -10.174466    3.680250   -0.533996
     68          1           0      -10.299132   -2.517585   -1.440675
     69          1           0       -2.688615   -1.177705    2.205724
     70          1           0       -2.232331    1.682131    1.074333
     71          1           0       -1.786560    1.119736    3.311597
     72          1           0       -3.079458    2.203827    3.345538
     73          1           0       -3.335530    0.682560    3.588666
     74          1           0       -2.127871   -1.768892   -0.429670
     75          1           0       -2.128531    0.062509   -0.861063
     76          1           0       -0.561578    0.560803    0.816124
     77          1           0       -0.225669   -1.317721    1.217830
     78          1           0       -5.632435    6.925437    0.670175
     79          1           0       -5.517993    6.040634    2.041772
     80          1           0       -4.274809    5.606257    0.972832
     81          1           0       -9.262576    6.042837   -0.811600
     82          1           0       -9.015166    8.047243    0.030586
     83          1           0       -7.828361    7.541489    1.435220
     84          1           0      -12.333623    3.256864   -2.231394
     85          1           0      -13.344014    2.113933   -1.176425
     86          1           0      -12.242946    3.105932   -0.534375
     87          1           0      -12.672303   -1.592509   -0.935621
     88          1           0      -13.384082   -0.111327   -1.461270
     89          1           0      -13.309934   -1.959224   -3.154414
     90          1           0      -12.766090   -0.374776   -3.665710
     91          1           0      -11.445522   -1.546598   -3.319941
     92          1           0       -8.968358   -4.717315   -1.749573
     93          1           0       -8.060429   -5.704031   -0.913907
     94          1           0       -9.507718   -4.861365   -0.236117
     95          1           0       -3.497425   -3.340729   -0.221433
     96          1           0       -1.784103   -4.451607    3.216790
     97          1           0       -2.972204   -6.090049    3.392383
     98          1           0       -1.203908   -5.970471    2.506735
     99          1           0        2.822933   -1.912924   -1.274391
    100          1           0        2.536312   -0.177782   -1.827609
    101          1           0        4.156307   -1.216024    0.324063
    102          1           0        4.016080    1.253607   -2.446223
    103          1           0        5.298109    2.337454   -1.658471
    104          1           0        5.705491    0.820996   -2.793937
    105          1           0        6.731116    1.337648    0.271896
    106          1           0        6.305040   -0.341573    0.795017
    107          1           0        7.266621   -1.141815   -1.344617
    108          1           0        7.493086    0.432724   -1.845635
    109          1           0        9.117679    0.820271    0.215490
    110          1           0        8.828162   -0.807318    0.813796
    111          1           0       10.221775    0.259317   -1.827404
    112          1           0        9.365758   -1.785073   -2.129081
    113          1           0       10.795521   -2.273156   -2.417126
    114          1           0       10.102669   -2.885527   -0.733104
    115          1           0       11.389727    0.702226    0.528347
    116          1           0       11.563610   -1.115590    0.690186
    117          1           0       12.906951   -1.346364   -1.369513
    118          1           0       12.870225    0.152054   -1.910824
    119          1           0       13.796760    0.816308    0.645536
    120          1           0       14.087819   -0.898607    0.979633
    121          1           0       15.229260    0.692428   -1.468862
    122          1           0       16.232988   -2.148687   -0.255228
    123          1           0       14.967142   -1.877557   -1.600988
    124          1           0       16.461448   -1.341755   -1.936418
    125          1           0       16.050725    1.370445    0.700530
    126          1           0       16.601050    0.054280    1.364107
    127          1           0       18.280866   -0.501494   -0.506534
    128          1           0       17.717555    1.222249   -1.083814
    129          1           0       18.517441    2.258725    0.870873
    130          1           0       18.782986    0.560408    1.819440
    131          1           0       20.631304    0.176729   -0.141355
    132          1           0       20.193080    3.297708   -0.624032
    133          1           0       21.190881    1.858796   -1.558400
    134          1           0       19.472473    1.644631   -1.807784
    135          1           0       21.372355    1.420581    2.382985
    136          1           0       22.322788    1.952248    0.887937
    137          1           0       20.804836    2.747379    1.635950
 ---------------------------------------------------------------------

 SCF Done:  E(RCAM-B3LYP) =  -2933.30009739     A.U. after   16 cycles

 Excitation energies and oscillator strengths:

 Excited State   1:      Singlet-A      1.9873 eV  623.89 nm  f=0.2525  <S**2>=0.000
     240 -> 243       -0.22262
     241 -> 242        0.66994
 This state for optimization and/or second-order correction.
 Total Energy, E(TD-HF/TD-DFT) =  -2933.22706620
 Copying the excited state density for this state as the 1-particle RhoCI density.

 The electronic state is 1-A.
 Alpha  occ. eigenvalues --  -46.79879 -19.22378 -19.19850 -19.15791 -19.15087
 Alpha  occ. eigenvalues --  -19.14474 -14.37518 -14.35925 -14.34649 -14.34585
 Alpha  occ. eigenvalues --  -10.33688 -10.32308 -10.30191 -10.29441 -10.27487
 Alpha  occ. eigenvalues --  -10.26986 -10.26640 -10.25620 -10.25321 -10.24518
 Alpha  occ. eigenvalues --  -10.24408 -10.24375 -10.24364 -10.24284 -10.24273
 Alpha  occ. eigenvalues --  -10.24151 -10.24095 -10.23945 -10.23884 -10.23813
 Alpha  occ. eigenvalues --  -10.23514 -10.23296 -10.23287 -10.22959 -10.22815
 Alpha  occ. eigenvalues --  -10.22734 -10.22719 -10.22545 -10.22451 -10.22313
 Alpha  occ. eigenvalues --  -10.22219 -10.22131 -10.21984 -10.21899 -10.21889
 Alpha  occ. eigenvalues --  -10.21850 -10.21805 -10.21698 -10.21593 -10.21483
 Alpha  occ. eigenvalues --  -10.21340 -10.21334 -10.21289 -10.21257 -10.21209
 Alpha  occ. eigenvalues --  -10.21206 -10.21144 -10.21131 -10.21026 -10.20540
 Alpha  occ. eigenvalues --  -10.20493 -10.19857 -10.19180 -10.19069 -10.17837
 Alpha  occ. eigenvalues --   -3.08350  -1.83304  -1.82870  -1.82700  -1.14919
 Alpha  occ. eigenvalues --   -1.13022  -1.05810  -1.03543  -1.02820  -1.00886
 Alpha  occ. eigenvalues --   -0.98005  -0.96951  -0.93172  -0.88027  -0.86671
 Alpha  occ. eigenvalues --   -0.85946  -0.84314  -0.84116  -0.83767  -0.83306
 Alpha  occ. eigenvalues --   -0.83252  -0.82615  -0.82260  -0.81855  -0.81225
 Alpha  occ. eigenvalues --   -0.80541  -0.79610  -0.78696  -0.78231  -0.77741
 Alpha  occ. eigenvalues --   -0.77478  -0.76812  -0.75664  -0.75018  -0.74340
 Alpha  occ. eigenvalues --   -0.73655  -0.72906  -0.72345  -0.71705  -0.71614
 Alpha  occ. eigenvalues --   -0.71557  -0.70554  -0.69316  -0.69014  -0.68426
 Alpha  occ. eigenvalues --   -0.67816  -0.65769  -0.64866  -0.64276  -0.63692
 Alpha  occ. eigenvalues --   -0.62387  -0.62161  -0.61118  -0.60756  -0.60436
 Alpha  occ. eigenvalues --   -0.59300  -0.59235  -0.58509  -0.57953  -0.57830
 Alpha  occ. eigenvalues --   -0.56741  -0.56264  -0.55756  -0.55692  -0.55097
 Alpha  occ. eigenvalues --   -0.54993  -0.54448  -0.53750  -0.53204  -0.52963
 Alpha  occ. eigenvalues --   -0.52319  -0.51758  -0.51631  -0.50964  -0.50878
 Alpha  occ. eigenvalues --   -0.50854  -0.50294  -0.50161  -0.49708  -0.49323
 Alpha  occ. eigenvalues --   -0.49159  -0.48861  -0.48344  -0.48156  -0.47648
 Alpha  occ. eigenvalues --   -0.47295  -0.47267  -0.47098  -0.46984  -0.46792
 Alpha  occ. eigenvalues --   -0.46753  -0.46694  -0.46275  -0.46042  -0.45907
 Alpha  occ. eigenvalues --   -0.45722  -0.45608  -0.45513  -0.45046  -0.44911
 Alpha  occ. eigenvalues --   -0.44909  -0.44542  -0.44112  -0.43888  -0.43575
 Alpha  occ. eigenvalues --   -0.43481  -0.43129  -0.42971  -0.42895  -0.42536
 Alpha  occ. eigenvalues --   -0.42420  -0.42232  -0.42071  -0.42017  -0.41702
 Alpha  occ. eigenvalues --   -0.41364  -0.41258  -0.41236  -0.41208  -0.40896
 Alpha  occ. eigenvalues --   -0.40527  -0.40287  -0.40165  -0.40058  -0.39948
 Alpha  occ. eigenvalues --   -0.39468  -0.39353  -0.39271  -0.39210  -0.38875
 Alpha  occ. eigenvalues --   -0.38677  -0.38424  -0.38273  -0.38065  -0.37865
 Alpha  occ. eigenvalues --   -0.37738  -0.37466  -0.36962  -0.36759  -0.36714
 Alpha  occ. eigenvalues --   -0.36593  -0.36316  -0.35970  -0.35792  -0.35536
 Alpha  occ. eigenvalues --   -0.35418  -0.35290  -0.35197  -0.34620  -0.34434
 Alpha  occ. eigenvalues --   -0.34400  -0.34054  -0.33937  -0.33265  -0.33158
 Alpha  occ. eigenvalues --   -0.32569  -0.32516  -0.32383  -0.32233  -0.32036
 Alpha  occ. eigenvalues --   -0.31835  -0.31575  -0.30953  -0.30569  -0.29562
 Alpha  occ. eigenvalues --   -0.29331  -0.29320  -0.28734  -0.28442  -0.27717
 Alpha  occ. eigenvalues --   -0.26503  -0.26220  -0.26166  -0.25502  -0.21678
 Alpha  occ. eigenvalues --   -0.19884
 Alpha virt. eigenvalues --   -0.07180  -0.03460   0.00321   0.02653   0.03018
 Alpha virt. eigenvalues --    0.04338   0.04642   0.05135   0.05848   0.06537
 Alpha virt. eigenvalues --    0.07019   0.08827   0.09606   0.09735   0.09784

 Mulliken charges:
               1
     1  Mg   0.811925
     2  C    0.101794
     3  C   -0.206060
     4  C   -0.080876
     5  C   -0.171914
     6  N   -0.609323
     7  C    0.287203
     8  C   -0.144208
     9  C   -0.182719
    10  C    0.286539
    11  C   -0.239326
    12  C   -0.188234
    13  C   -0.248017
    14  C    0.581102
    15  O   -0.465672
    16  O   -0.495150
    17  N   -0.707119
    18  C    0.337760
    19  C   -0.007810
    20  C    0.017013
    21  C    0.257996
    22  C   -0.367978
    23  C   -0.080982
    24  C   -0.229349
    25  N   -0.697979
    26  C    0.222970
    27  C    0.023326
    28  C   -0.000595
    29  C    0.346254
    30  C   -0.356483
    31  C   -0.244873
    32  C   -0.312873
    33  N   -0.767522
    34  C    0.312688
    35  C   -0.044618
    36  C    0.026371
    37  C    0.337881
    38  C   -0.361868
    39  C    0.345801
    40  O   -0.462096
    41  C   -0.320669
    42  C    0.608068
    43  O   -0.510712
    44  O   -0.411194
    45  C   -0.075575
    46  C   -0.024046
    47  C   -0.068956
    48  C    0.112345
    49  C   -0.360465
    50  C   -0.201693
    51  C   -0.175527
    52  C   -0.166329
    53  C   -0.085643
    54  C   -0.271434
    55  C   -0.151229
    56  C   -0.190050
    57  C   -0.162437
    58  C   -0.049599
    59  C   -0.284775
    60  C   -0.159733
    61  C   -0.168595
    62  C   -0.125764
    63  C   -0.048529
    64  C   -0.304868
    65  C   -0.292949
    66  H    0.070588
    67  H    0.055891
    68  H    0.100343
    69  H    0.120324
    70  H    0.095313
    71  H    0.111326
    72  H    0.110613
    73  H    0.123386
    74  H    0.116475
    75  H    0.100190
    76  H    0.138634
    77  H    0.135302
    78  H    0.120168
    79  H    0.146155
    80  H    0.108497
    81  H    0.090082
    82  H    0.094386
    83  H    0.098350
    84  H    0.104011
    85  H    0.101079
    86  H    0.137289
    87  H    0.100643
    88  H    0.102189
    89  H    0.098361
    90  H    0.108603
    91  H    0.109138
    92  H    0.128968
    93  H    0.141313
    94  H    0.127859
    95  H    0.153968
    96  H    0.134439
    97  H    0.138643
    98  H    0.119942
    99  H    0.131903
   100  H    0.122108
   101  H    0.077953
   102  H    0.115627
   103  H    0.125980
   104  H    0.106320
   105  H    0.085647
   106  H    0.105132
   107  H    0.077370
   108  H    0.070686
   109  H    0.103740
   110  H    0.095833
   111  H    0.090412
   112  H    0.119833
   113  H    0.053236
   114  H    0.077007
   115  H    0.076832
   116  H    0.106218
   117  H    0.094698
   118  H    0.094151
   119  H    0.075052
   120  H    0.093403
   121  H    0.045692
   122  H    0.065393
   123  H    0.106685
   124  H    0.102655
   125  H    0.100443
   126  H    0.092483
   127  H    0.079888
   128  H    0.096000
   129  H    0.077151
   130  H    0.035338
   131  H    0.051768
   132  H    0.082993
   133  H    0.098279
   134  H    0.101842
   135  H    0.104279
   136  H    0.067357
   137  H    0.117528
 Sum of Mulliken charges =  -0.00000

 Dipole moment (field-independent basis, Debye):
    X=              2.7585    Y=              3.5492    Z=              0.1009  Tot=              4.4962
 Quadrupole moment (field-independent basis, Debye-Ang):
   XX=           -367.4938   YY=           -389.8764   ZZ=           -398.0556
   XY=            -16.1358   XZ=             11.8315   YZ=             -1.9506

 Normal termination of Gaussian 16 at Thu Sep  5 03:16:37 2019.
