 Gaussian 16, Revision A.03,
 Gaussian 16:  ES64L-G16RevA.03 25-Dec-2016

 ----------------------------------------------------------------------
 # td=(NStates=1) iop(3/107=0140000000,3/108=0140000000) CAM-B3LYP/6-31
 G(d,p)
 ----------------------------------------------------------------------

 --
 TD
 --
 Symbolic Z-matrix:
 Charge =  0 Multiplicity = 1

                         Standard orientation:
 ---------------------------------------------------------------------
 Center     Atomic      Atomic             Coordinates (Angstroms)
 Number     Number       Type             X           Y           Z
 ---------------------------------------------------------------------
      1         12           0       -7.104858    0.676913    0.069404
      2          6           0       -4.917931   -2.037209    0.692706
      3          6           0       -4.825886    2.834321    1.195106
      4          6           0       -9.445068    3.187528   -0.342811
      5          6           0       -9.535427   -1.645035   -0.849112
      6          7           0       -5.135821    0.468901    0.703102
      7          6           0       -4.352901   -0.714017    0.832959
      8          6           0       -2.885106   -0.334125    1.089255
      9          6           0       -2.962346    1.148163    1.586760
     10          6           0       -4.390542    1.501525    1.117864
     11          6           0       -2.726128    1.313744    3.151947
     12          6           0       -1.945117   -0.611406   -0.027437
     13          6           0       -0.519367   -0.624642    0.534867
     14          6           0        0.431735   -0.614375   -0.619546
     15          8           0        0.166405   -0.896211   -1.740873
     16          8           0        1.729589   -0.499362   -0.220815
     17          7           0       -7.079388    2.640956    0.308116
     18          6           0       -6.000574    3.378032    0.780628
     19          6           0       -6.409202    4.739863    0.868659
     20          6           0       -7.716804    4.891852    0.365159
     21          6           0       -8.142839    3.440842    0.026959
     22          6           0       -5.507151    5.901799    1.263564
     23          6           0       -8.414073    6.071331    0.106473
     24          6           0       -8.288210    7.302208    0.636321
     25          7           0       -9.071704    0.766792   -0.476175
     26          6           0       -9.806085    1.863617   -0.632105
     27          6           0      -11.201381    1.505053   -1.163206
     28          6           0      -11.187319    0.168927   -1.310582
     29          6           0       -9.845307   -0.268024   -0.937771
     30          6           0      -12.373507    2.436840   -1.344713
     31          6           0      -12.326734   -0.706701   -1.759805
     32          6           0      -12.219876   -1.219636   -3.173078
     33          7           0       -7.207078   -1.376854   -0.095663
     34          6           0       -8.264451   -2.164683   -0.508862
     35          6           0       -7.824321   -3.604742   -0.463801
     36          6           0       -6.517562   -3.561886   -0.058713
     37          6           0       -6.156426   -2.236085    0.176053
     38          6           0       -8.748023   -4.667133   -0.875212
     39          6           0       -5.434849   -4.387000    0.310756
     40          8           0       -5.330226   -5.540613    0.318129
     41          6           0       -4.244818   -3.293217    0.659293
     42          6           0       -3.494756   -3.694242    1.915933
     43          8           0       -3.749888   -3.267744    3.040103
     44          8           0       -2.665310   -4.803319    1.670969
     45          6           0       -2.077455   -5.280927    2.894916
     46          6           0        2.687017   -0.617596   -1.216444
     47          6           0        4.102059   -0.634459   -0.584361
     48          6           0        5.153006    0.083960   -1.010254
     49          6           0        4.981930    1.052731   -2.162188
     50          6           0        6.380893    0.069073   -0.188529
     51          6           0        7.665374   -0.420204   -1.076686
     52          6           0        8.903150   -0.353592   -0.228157
     53          6           0       10.208752   -0.649716   -0.958298
     54          6           0       10.114244   -2.255751   -1.319044
     55          6           0       11.403859   -0.204616   -0.057773
     56          6           0       12.781692   -0.311230   -0.783534
     57          6           0       14.007233   -0.128422    0.141347
     58          6           0       15.315255   -0.036798   -0.537203
     59          6           0       15.749852   -1.575838   -1.004100
     60          6           0       16.430935    0.491904    0.433490
     61          6           0       17.807786    0.614194   -0.097793
     62          6           0       18.766682    1.408455    0.783417
     63          6           0       20.158881    1.400726    0.289192
     64          6           0       20.331928    2.213581   -0.987084
     65          6           0       21.149363    2.017365    1.393818
     66          1           0       -4.208098    3.592839    1.690945
     67          1           0      -10.041615    4.089443   -0.399773
     68          1           0      -10.395454   -2.379331   -1.063325
     69          1           0       -2.648084   -1.001578    1.933418
     70          1           0       -2.328659    1.667373    0.946843
     71          1           0       -1.694599    1.154486    3.311618
     72          1           0       -2.933401    2.262952    3.664278
     73          1           0       -3.165499    0.428927    3.671579
     74          1           0       -2.103208   -1.654527   -0.401765
     75          1           0       -2.170354    0.181066   -0.920731
     76          1           0       -0.194082    0.185224    1.180619
     77          1           0       -0.474952   -1.416535    1.139949
     78          1           0       -5.658656    6.605981    0.653602
     79          1           0       -5.660132    6.192461    2.146530
     80          1           0       -4.492094    5.673340    1.199621
     81          1           0       -9.192292    5.997506   -0.578277
     82          1           0       -8.708070    8.281989   -0.050276
     83          1           0       -7.494190    7.441922    1.526333
     84          1           0      -12.108253    3.280214   -2.100617
     85          1           0      -13.367009    1.956464   -1.685148
     86          1           0      -12.885052    2.915342   -0.354475
     87          1           0      -12.484406   -1.519554   -0.876919
     88          1           0      -13.229007   -0.072548   -1.717804
     89          1           0      -13.124891   -1.588264   -3.752928
     90          1           0      -12.103223   -0.342632   -3.872066
     91          1           0      -11.294335   -2.041916   -3.214256
     92          1           0       -9.283368   -4.548323   -1.719222
     93          1           0       -8.171635   -5.453518   -0.836088
     94          1           0       -9.552165   -4.673175   -0.129731
     95          1           0       -3.474072   -3.443841   -0.107716
     96          1           0       -1.397196   -4.741612    3.417633
     97          1           0       -2.778638   -5.637064    3.518925
     98          1           0       -1.757352   -6.197934    2.307314
     99          1           0        2.497998   -1.506773   -1.813939
    100          1           0        2.303090   -0.089783   -2.038945
    101          1           0        4.303391   -1.104561    0.306804
    102          1           0        3.934663    1.108297   -2.594461
    103          1           0        5.365957    2.004645   -1.846986
    104          1           0        5.649502    0.829543   -3.040827
    105          1           0        6.743924    1.205945    0.120328
    106          1           0        6.278653   -0.491737    0.759459
    107          1           0        7.399226   -1.406766   -1.539075
    108          1           0        7.736333    0.464776   -1.774495
    109          1           0        9.039110    0.670624    0.199735
    110          1           0        8.725747   -0.912019    0.648065
    111          1           0       10.181769   -0.208777   -2.057658
    112          1           0        9.084432   -2.531275   -1.785998
    113          1           0       10.940417   -2.456209   -1.714966
    114          1           0       10.059442   -2.868181   -0.500424
    115          1           0       11.194386    0.994164    0.118117
    116          1           0       11.457627   -0.802018    0.992026
    117          1           0       12.854465   -1.371661   -0.925545
    118          1           0       12.692046   -0.063445   -1.882547
    119          1           0       13.803995    0.900152    0.501591
    120          1           0       13.871670   -0.889268    0.934042
    121          1           0       15.394919    0.562546   -1.502302
    122          1           0       15.773955   -2.071935   -0.072926
    123          1           0       15.130152   -1.915065   -1.903668
    124          1           0       16.918075   -1.722412   -1.409734
    125          1           0       16.130311    1.397920    0.857492
    126          1           0       16.426497   -0.153600    1.366754
    127          1           0       18.259104   -0.318571   -0.298901
    128          1           0       17.674151    1.137421   -0.960233
    129          1           0       18.367661    2.566064    1.025172
    130          1           0       18.810037    0.759651    1.788296
    131          1           0       20.613536    0.383886    0.112877
    132          1           0       20.031130    3.252898   -0.729582
    133          1           0       21.342423    2.307308   -1.046978
    134          1           0       19.830099    1.863897   -1.958438
    135          1           0       21.226268    1.359476    2.237032
    136          1           0       22.198002    2.144627    0.979288
    137          1           0       20.897043    3.105550    1.659409
 ---------------------------------------------------------------------

 SCF Done:  E(RCAM-B3LYP) =  -2933.49899991     A.U. after   16 cycles

 Excitation energies and oscillator strengths:

 Excited State   1:      Singlet-A      1.9810 eV  625.88 nm  f=0.2600  <S**2>=0.000
     240 -> 243       -0.23818
     241 -> 242        0.66464
 This state for optimization and/or second-order correction.
 Total Energy, E(TD-HF/TD-DFT) =  -2933.42620077
 Copying the excited state density for this state as the 1-particle RhoCI density.

 The electronic state is 1-A.
 Alpha  occ. eigenvalues --  -46.79151 -19.21638 -19.21435 -19.17197 -19.16790
 Alpha  occ. eigenvalues --  -19.16740 -14.38268 -14.35783 -14.35055 -14.34950
 Alpha  occ. eigenvalues --  -10.34272 -10.34008 -10.30126 -10.26809 -10.26564
 Alpha  occ. eigenvalues --  -10.26324 -10.25335 -10.25229 -10.24822 -10.24698
 Alpha  occ. eigenvalues --  -10.24692 -10.24595 -10.23999 -10.23916 -10.23852
 Alpha  occ. eigenvalues --  -10.23802 -10.23716 -10.23539 -10.23473 -10.23405
 Alpha  occ. eigenvalues --  -10.23350 -10.23205 -10.23141 -10.23076 -10.23041
 Alpha  occ. eigenvalues --  -10.22975 -10.22695 -10.22639 -10.22429 -10.22400
 Alpha  occ. eigenvalues --  -10.22342 -10.22282 -10.22240 -10.22150 -10.22133
 Alpha  occ. eigenvalues --  -10.22089 -10.21954 -10.21848 -10.21796 -10.21776
 Alpha  occ. eigenvalues --  -10.21515 -10.21465 -10.21458 -10.21356 -10.21002
 Alpha  occ. eigenvalues --  -10.20876 -10.20746 -10.20178 -10.20013 -10.19815
 Alpha  occ. eigenvalues --  -10.19470 -10.19381 -10.18800 -10.18584 -10.18075
 Alpha  occ. eigenvalues --   -3.07949  -1.82882  -1.82440  -1.82348  -1.14542
 Alpha  occ. eigenvalues --   -1.11144  -1.09749  -1.05855  -1.03413  -0.99227
 Alpha  occ. eigenvalues --   -0.98535  -0.97677  -0.96910  -0.88651  -0.86350
 Alpha  occ. eigenvalues --   -0.85615  -0.85373  -0.84517  -0.84370  -0.84102
 Alpha  occ. eigenvalues --   -0.83513  -0.83001  -0.82955  -0.81672  -0.81310
 Alpha  occ. eigenvalues --   -0.80021  -0.79654  -0.78703  -0.78026  -0.77734
 Alpha  occ. eigenvalues --   -0.76928  -0.76431  -0.76154  -0.74737  -0.73971
 Alpha  occ. eigenvalues --   -0.73465  -0.72363  -0.71940  -0.71744  -0.70648
 Alpha  occ. eigenvalues --   -0.70548  -0.70304  -0.69437  -0.68970  -0.67942
 Alpha  occ. eigenvalues --   -0.67659  -0.66336  -0.65008  -0.64909  -0.64292
 Alpha  occ. eigenvalues --   -0.62418  -0.62282  -0.61531  -0.61183  -0.60667
 Alpha  occ. eigenvalues --   -0.60094  -0.60031  -0.58703  -0.58325  -0.58075
 Alpha  occ. eigenvalues --   -0.57031  -0.56767  -0.55755  -0.55627  -0.55311
 Alpha  occ. eigenvalues --   -0.54790  -0.54429  -0.53631  -0.53511  -0.52970
 Alpha  occ. eigenvalues --   -0.52542  -0.51716  -0.51164  -0.50951  -0.50712
 Alpha  occ. eigenvalues --   -0.50524  -0.50125  -0.49896  -0.49700  -0.49561
 Alpha  occ. eigenvalues --   -0.49160  -0.48887  -0.48558  -0.48514  -0.48316
 Alpha  occ. eigenvalues --   -0.48160  -0.47617  -0.47568  -0.47173  -0.47041
 Alpha  occ. eigenvalues --   -0.46839  -0.46757  -0.46358  -0.46136  -0.46003
 Alpha  occ. eigenvalues --   -0.45749  -0.45325  -0.45271  -0.45185  -0.44783
 Alpha  occ. eigenvalues --   -0.44692  -0.44516  -0.44102  -0.43842  -0.43786
 Alpha  occ. eigenvalues --   -0.43621  -0.43539  -0.43395  -0.43140  -0.42756
 Alpha  occ. eigenvalues --   -0.42578  -0.42362  -0.42292  -0.42048  -0.41886
 Alpha  occ. eigenvalues --   -0.41654  -0.41541  -0.41483  -0.41353  -0.40991
 Alpha  occ. eigenvalues --   -0.40587  -0.40361  -0.40291  -0.40109  -0.39921
 Alpha  occ. eigenvalues --   -0.39851  -0.39613  -0.39407  -0.39245  -0.39024
 Alpha  occ. eigenvalues --   -0.38717  -0.38495  -0.38366  -0.38194  -0.38008
 Alpha  occ. eigenvalues --   -0.37890  -0.37742  -0.37641  -0.37398  -0.37325
 Alpha  occ. eigenvalues --   -0.36965  -0.36890  -0.36754  -0.36260  -0.35865
 Alpha  occ. eigenvalues --   -0.35839  -0.35723  -0.35559  -0.35251  -0.34930
 Alpha  occ. eigenvalues --   -0.34802  -0.34781  -0.34139  -0.33856  -0.33384
 Alpha  occ. eigenvalues --   -0.33348  -0.33338  -0.32750  -0.32626  -0.32409
 Alpha  occ. eigenvalues --   -0.32089  -0.31955  -0.31264  -0.30746  -0.30650
 Alpha  occ. eigenvalues --   -0.30563  -0.30178  -0.29602  -0.28358  -0.27192
 Alpha  occ. eigenvalues --   -0.26978  -0.26458  -0.26113  -0.24517  -0.21794
 Alpha  occ. eigenvalues --   -0.19266
 Alpha virt. eigenvalues --   -0.06610  -0.04089  -0.00089   0.02113   0.03089
 Alpha virt. eigenvalues --    0.03809   0.04647   0.04854   0.05495   0.05723
 Alpha virt. eigenvalues --    0.06478   0.08808   0.09028   0.09846   0.10481

 Mulliken charges:
               1
     1  Mg   0.810258
     2  C    0.150688
     3  C   -0.194339
     4  C   -0.146022
     5  C   -0.187261
     6  N   -0.605111
     7  C    0.255190
     8  C   -0.174010
     9  C   -0.114511
    10  C    0.330979
    11  C   -0.329663
    12  C   -0.166619
    13  C   -0.265835
    14  C    0.603041
    15  O   -0.454490
    16  O   -0.466204
    17  N   -0.758829
    18  C    0.348024
    19  C   -0.027376
    20  C    0.013449
    21  C    0.326463
    22  C   -0.353029
    23  C   -0.071478
    24  C   -0.260196
    25  N   -0.670306
    26  C    0.297394
    27  C    0.030924
    28  C    0.065010
    29  C    0.280557
    30  C   -0.386584
    31  C   -0.236003
    32  C   -0.291863
    33  N   -0.720988
    34  C    0.280323
    35  C   -0.021032
    36  C    0.068405
    37  C    0.245610
    38  C   -0.354105
    39  C    0.344387
    40  O   -0.410015
    41  C   -0.382742
    42  C    0.607197
    43  O   -0.476559
    44  O   -0.472113
    45  C   -0.087396
    46  C    0.010394
    47  C   -0.144917
    48  C    0.183344
    49  C   -0.373185
    50  C   -0.254633
    51  C   -0.179176
    52  C   -0.152738
    53  C   -0.058915
    54  C   -0.316246
    55  C   -0.159666
    56  C   -0.205238
    57  C   -0.161150
    58  C   -0.065256
    59  C   -0.315134
    60  C   -0.173270
    61  C   -0.157902
    62  C   -0.136679
    63  C   -0.059268
    64  C   -0.298323
    65  C   -0.323342
    66  H    0.075242
    67  H    0.095548
    68  H    0.088154
    69  H    0.111824
    70  H    0.113452
    71  H    0.117069
    72  H    0.118525
    73  H    0.133344
    74  H    0.122507
    75  H    0.101268
    76  H    0.130936
    77  H    0.153603
    78  H    0.131861
    79  H    0.133561
    80  H    0.102943
    81  H    0.087257
    82  H    0.089253
    83  H    0.087654
    84  H    0.113151
    85  H    0.109077
    86  H    0.104430
    87  H    0.089737
    88  H    0.099044
    89  H    0.103486
    90  H    0.110434
    91  H    0.085814
    92  H    0.133778
    93  H    0.137653
    94  H    0.125535
    95  H    0.148910
    96  H    0.129178
    97  H    0.139498
    98  H    0.119798
    99  H    0.111781
   100  H    0.117158
   101  H    0.082148
   102  H    0.110064
   103  H    0.118346
   104  H    0.110699
   105  H    0.073669
   106  H    0.097791
   107  H    0.102991
   108  H    0.097997
   109  H    0.073972
   110  H    0.095694
   111  H    0.075697
   112  H    0.089142
   113  H    0.105192
   114  H    0.105690
   115  H    0.067143
   116  H    0.078734
   117  H    0.104604
   118  H    0.092045
   119  H    0.093799
   120  H    0.100038
   121  H    0.084029
   122  H    0.114031
   123  H    0.102505
   124  H    0.065729
   125  H    0.093135
   126  H    0.068025
   127  H    0.097747
   128  H    0.099740
   129  H    0.060489
   130  H    0.061808
   131  H    0.084645
   132  H    0.091215
   133  H    0.107929
   134  H    0.096602
   135  H    0.109673
   136  H    0.088893
   137  H    0.093973
 Sum of Mulliken charges =  -0.00000

 Dipole moment (field-independent basis, Debye):
    X=              1.6159    Y=              3.7140    Z=             -0.1630  Tot=              4.0535
 Quadrupole moment (field-independent basis, Debye-Ang):
   XX=           -344.3487   YY=           -398.4023   ZZ=           -397.3750
   XY=            -19.3813   XZ=             18.3502   YZ=             -2.0441

 Normal termination of Gaussian 16 at Sat Sep 14 00:44:27 2019.
