 Gaussian 09, Revision D.01,
 Gaussian 09:  ES64L-G09RevD.01 24-Apr-2013

 -------------------------------------
 # td=(NStates=1) CAM-B3LYP/6-31G(d,p)
 -------------------------------------

 --
 TD
 --
 Symbolic Z-matrix:
 Charge =  0 Multiplicity = 1

                         Standard orientation:
 ---------------------------------------------------------------------
 Center     Atomic      Atomic             Coordinates (Angstroms)
 Number     Number       Type             X           Y           Z
 ---------------------------------------------------------------------
      1         12           0       -7.105123    0.508019    0.003744
      2          6           0       -4.805822   -1.951345    0.438188
      3          6           0       -4.825480    2.821902    1.167928
      4          6           0       -9.423078    3.130244   -0.372258
      5          6           0       -9.465997   -1.789590   -0.973841
      6          7           0       -5.073164    0.449521    0.710891
      7          6           0       -4.351387   -0.746116    0.831912
      8          6           0       -2.842244   -0.473565    1.194439
      9          6           0       -3.088211    1.085681    1.687963
     10          6           0       -4.452071    1.553570    1.179012
     11          6           0       -2.978332    1.269497    3.204123
     12          6           0       -1.921247   -0.686292    0.018363
     13          6           0       -0.448494   -0.543511    0.579033
     14          6           0        0.492045   -0.781963   -0.588876
     15          8           0        0.233868   -1.230907   -1.647572
     16          8           0        1.797231   -0.399180   -0.214940
     17          7           0       -7.058320    2.580254    0.245167
     18          6           0       -5.991776    3.397317    0.760333
     19          6           0       -6.386249    4.820233    0.735911
     20          6           0       -7.748012    4.864113    0.330127
     21          6           0       -8.178994    3.432755    0.072798
     22          6           0       -5.508069    5.894371    1.190864
     23          6           0       -8.678904    6.015247    0.089280
     24          6           0       -8.618230    7.185504    0.784356
     25          7           0       -9.129103    0.667824   -0.599762
     26          6           0       -9.865709    1.834855   -0.700418
     27          6           0      -11.272255    1.438424   -1.034557
     28          6           0      -11.192234    0.147414   -1.285057
     29          6           0       -9.903636   -0.430921   -0.928663
     30          6           0      -12.401761    2.363291   -1.257133
     31          6           0      -12.396190   -0.698576   -1.783533
     32          6           0      -12.329148   -1.178701   -3.246022
     33          7           0       -7.203195   -1.330260   -0.177755
     34          6           0       -8.317203   -2.246851   -0.603347
     35          6           0       -7.745639   -3.645110   -0.587306
     36          6           0       -6.461903   -3.531372   -0.082860
     37          6           0       -6.156035   -2.236139    0.033976
     38          6           0       -8.686425   -4.716422   -0.881942
     39          6           0       -5.272044   -4.396452    0.224669
     40          8           0       -5.087520   -5.571738    0.149836
     41          6           0       -4.108662   -3.310258    0.558090
     42          6           0       -3.559314   -3.633357    1.919146
     43          8           0       -3.827292   -3.051262    3.006947
     44          8           0       -2.630816   -4.664583    1.891935
     45          6           0       -2.013931   -5.005109    3.219141
     46          6           0        2.755771   -0.603276   -1.230573
     47          6           0        4.131121   -0.579619   -0.537798
     48          6           0        5.127496    0.296962   -0.969372
     49          6           0        5.014263    1.159302   -2.188203
     50          6           0        6.443042    0.463121   -0.220287
     51          6           0        7.676271    0.083943   -1.020375
     52          6           0        8.933035   -0.147017   -0.085210
     53          6           0       10.175950   -0.580404   -0.769689
     54          6           0       10.032118   -2.021890   -1.179646
     55          6           0       11.490514   -0.274939    0.043032
     56          6           0       12.793372   -0.623198   -0.563538
     57          6           0       13.977456   -0.148896    0.205403
     58          6           0       15.387761   -0.192723   -0.478379
     59          6           0       15.796479   -1.767057   -0.807502
     60          6           0       16.425073    0.481089    0.375083
     61          6           0       17.852360    0.588175   -0.162942
     62          6           0       18.774029    1.331633    0.692774
     63          6           0       20.180801    1.421277    0.067381
     64          6           0       20.260721    2.245140   -1.149190
     65          6           0       21.188138    2.075801    1.096946
     66          1           0       -4.059492    3.484005    1.607366
     67          1           0      -10.356084    3.881808   -0.383677
     68          1           0      -10.337921   -2.343979   -1.184164
     69          1           0       -2.374231   -1.060748    2.010641
     70          1           0       -2.287380    1.730337    1.176410
     71          1           0       -1.881247    1.169343    3.638179
     72          1           0       -3.204883    2.306625    3.471716
     73          1           0       -3.698598    0.477692    3.602851
     74          1           0       -2.112314   -1.522735   -0.441115
     75          1           0       -2.247513    0.070334   -0.892680
     76          1           0       -0.231003    0.399600    0.945024
     77          1           0       -0.182624   -1.177245    1.313840
     78          1           0       -5.874161    6.652792    0.635636
     79          1           0       -5.421297    6.325073    2.251548
     80          1           0       -4.534798    5.802540    0.768456
     81          1           0       -9.511209    5.999540   -0.565993
     82          1           0       -9.380393    7.946372    0.746385
     83          1           0       -7.836956    7.270922    1.537362
     84          1           0      -12.059928    3.151645   -2.073330
     85          1           0      -13.200086    1.876706   -1.747134
     86          1           0      -12.636741    3.087279   -0.343997
     87          1           0      -12.451133   -1.583545   -1.002697
     88          1           0      -13.358553   -0.029532   -1.732303
     89          1           0      -13.121602   -1.994856   -3.411292
     90          1           0      -12.203538   -0.424832   -4.142139
     91          1           0      -11.490951   -1.833617   -3.492698
     92          1           0       -9.305212   -4.580190   -1.778100
     93          1           0       -8.303908   -5.809328   -0.950009
     94          1           0       -9.427070   -4.775246   -0.058550
     95          1           0       -3.200636   -3.352940   -0.305991
     96          1           0       -1.284289   -4.152310    3.614016
     97          1           0       -2.873335   -5.446671    3.856667
     98          1           0       -1.392624   -6.017485    2.889306
     99          1           0        2.692051   -1.588402   -1.627030
    100          1           0        2.653275    0.079432   -2.065699
    101          1           0        4.218044   -1.068587    0.404830
    102          1           0        4.117545    1.224356   -2.769054
    103          1           0        5.336968    2.031204   -2.041545
    104          1           0        5.353359    0.441201   -3.013972
    105          1           0        6.660212    1.558869    0.213931
    106          1           0        6.181779   -0.109846    0.788826
    107          1           0        7.374686   -0.760933   -1.434580
    108          1           0        7.742543    0.644765   -1.842935
    109          1           0        9.160460    0.826459    0.531278
    110          1           0        8.589446   -0.807228    0.652221
    111          1           0       10.155017    0.233820   -1.576407
    112          1           0        9.235259   -2.060472   -1.916631
    113          1           0       10.846945   -2.510555   -1.506045
    114          1           0        9.751993   -2.520891   -0.212733
    115          1           0       11.405560    0.844952    0.353781
    116          1           0       11.396818   -0.641704    1.187593
    117          1           0       12.902308   -1.866456   -0.676467
    118          1           0       12.833573   -0.240481   -1.670289
    119          1           0       14.030353    0.917353    0.420640
    120          1           0       13.937953   -0.759342    1.258852
    121          1           0       15.401935    0.135158   -1.526410
    122          1           0       16.047527   -2.362622    0.089326
    123          1           0       14.867065   -2.182442   -1.323807
    124          1           0       16.784200   -1.997752   -1.327638
    125          1           0       16.002787    1.552737    0.617202
    126          1           0       16.771157    0.015625    1.377978
    127          1           0       18.148510   -0.440729   -0.302550
    128          1           0       17.854607    0.751179   -1.393663
    129          1           0       18.445767    2.390342    0.857420
    130          1           0       18.881708    0.652070    1.597943
    131          1           0       20.374103    0.313536   -0.084055
    132          1           0       20.142682    3.344438   -0.858493
    133          1           0       21.449308    2.054243   -1.587172
    134          1           0       19.590350    1.674399   -2.051924
    135          1           0       21.215396    1.431763    2.041380
    136          1           0       22.100741    2.105750    0.715213
    137          1           0       20.733130    3.080063    1.286278
 ---------------------------------------------------------------------

 SCF Done:  E(RCAM-B3LYP) =  -2932.63125169     A.U. after   18 cycles

 Excitation energies and oscillator strengths:

 Excited State   1:      Singlet-A      2.0323 eV  610.06 nm  f=0.2548  <S**2>=0.000
     240 -> 243       -0.24566
     241 -> 242        0.65379
 This state for optimization and/or second-order correction.
 Total Energy, E(TD-HF/TD-KS) =  -2932.55656562
 Copying the excited state density for this state as the 1-particle RhoCI density.

 The electronic state is 1-A.
 Alpha  occ. eigenvalues --  -46.82610 -19.26036 -19.25110 -19.22323 -19.22031
 Alpha  occ. eigenvalues --  -19.20680 -14.41037 -14.39572 -14.39539 -14.39067
 Alpha  occ. eigenvalues --  -10.39787 -10.39100 -10.36915 -10.34335 -10.30762
 Alpha  occ. eigenvalues --  -10.30548 -10.30408 -10.30336 -10.30239 -10.29945
 Alpha  occ. eigenvalues --  -10.29662 -10.29570 -10.29318 -10.28702 -10.28690
 Alpha  occ. eigenvalues --  -10.28488 -10.28139 -10.27893 -10.27824 -10.27775
 Alpha  occ. eigenvalues --  -10.27745 -10.27721 -10.27667 -10.27535 -10.27304
 Alpha  occ. eigenvalues --  -10.27249 -10.27141 -10.27101 -10.27030 -10.26982
 Alpha  occ. eigenvalues --  -10.26972 -10.26943 -10.26760 -10.26586 -10.26565
 Alpha  occ. eigenvalues --  -10.26502 -10.26386 -10.26253 -10.26207 -10.26099
 Alpha  occ. eigenvalues --  -10.26062 -10.25830 -10.25571 -10.25417 -10.25345
 Alpha  occ. eigenvalues --  -10.25268 -10.25237 -10.25228 -10.25122 -10.25092
 Alpha  occ. eigenvalues --  -10.25030 -10.24393 -10.24196 -10.23632 -10.23602
 Alpha  occ. eigenvalues --   -3.11941  -1.86616  -1.86212  -1.86129  -1.18090
 Alpha  occ. eigenvalues --   -1.15220  -1.13675  -1.10303  -1.06187  -1.02974
 Alpha  occ. eigenvalues --   -1.01982  -1.01349  -0.99794  -0.92628  -0.91245
 Alpha  occ. eigenvalues --   -0.90732  -0.90043  -0.89542  -0.88980  -0.88517
 Alpha  occ. eigenvalues --   -0.88209  -0.87906  -0.87730  -0.87515  -0.85599
 Alpha  occ. eigenvalues --   -0.85287  -0.84589  -0.83737  -0.83315  -0.82614
 Alpha  occ. eigenvalues --   -0.81530  -0.81069  -0.80658  -0.80470  -0.78621
 Alpha  occ. eigenvalues --   -0.77797  -0.76558  -0.76330  -0.75727  -0.74915
 Alpha  occ. eigenvalues --   -0.74688  -0.74566  -0.73998  -0.73067  -0.72554
 Alpha  occ. eigenvalues --   -0.71424  -0.70687  -0.68799  -0.68674  -0.68183
 Alpha  occ. eigenvalues --   -0.67225  -0.66714  -0.65559  -0.64407  -0.64167
 Alpha  occ. eigenvalues --   -0.63548  -0.63433  -0.62538  -0.62198  -0.61246
 Alpha  occ. eigenvalues --   -0.60911  -0.60420  -0.59987  -0.59638  -0.59169
 Alpha  occ. eigenvalues --   -0.58517  -0.58226  -0.57085  -0.56759  -0.56445
 Alpha  occ. eigenvalues --   -0.56049  -0.55268  -0.55038  -0.54507  -0.54357
 Alpha  occ. eigenvalues --   -0.54236  -0.54210  -0.53625  -0.53052  -0.52952
 Alpha  occ. eigenvalues --   -0.52761  -0.52643  -0.52328  -0.52116  -0.51861
 Alpha  occ. eigenvalues --   -0.51686  -0.51580  -0.51186  -0.50826  -0.50751
 Alpha  occ. eigenvalues --   -0.50404  -0.50329  -0.50109  -0.49628  -0.49419
 Alpha  occ. eigenvalues --   -0.49283  -0.48998  -0.48761  -0.48487  -0.48404
 Alpha  occ. eigenvalues --   -0.48219  -0.47950  -0.47870  -0.47427  -0.47158
 Alpha  occ. eigenvalues --   -0.46856  -0.46543  -0.46341  -0.46177  -0.45673
 Alpha  occ. eigenvalues --   -0.45543  -0.45375  -0.45096  -0.45034  -0.44951
 Alpha  occ. eigenvalues --   -0.44642  -0.44551  -0.44435  -0.44292  -0.44160
 Alpha  occ. eigenvalues --   -0.44019  -0.43862  -0.43677  -0.43464  -0.43379
 Alpha  occ. eigenvalues --   -0.43276  -0.43145  -0.43128  -0.42652  -0.42410
 Alpha  occ. eigenvalues --   -0.42288  -0.42125  -0.41685  -0.40887  -0.40806
 Alpha  occ. eigenvalues --   -0.40624  -0.40539  -0.40257  -0.40105  -0.40088
 Alpha  occ. eigenvalues --   -0.39964  -0.39799  -0.39472  -0.39122  -0.39049
 Alpha  occ. eigenvalues --   -0.38965  -0.38443  -0.37751  -0.37656  -0.37154
 Alpha  occ. eigenvalues --   -0.37130  -0.36941  -0.36797  -0.36504  -0.36386
 Alpha  occ. eigenvalues --   -0.35834  -0.35783  -0.35455  -0.35337  -0.35124
 Alpha  occ. eigenvalues --   -0.34726  -0.34376  -0.34214  -0.34023  -0.33922
 Alpha  occ. eigenvalues --   -0.33375  -0.33157  -0.32417  -0.31293  -0.30932
 Alpha  occ. eigenvalues --   -0.29923  -0.28194  -0.28093  -0.27210  -0.23992
 Alpha  occ. eigenvalues --   -0.20914
 Alpha virt. eigenvalues --   -0.06336  -0.03642   0.01165   0.03549   0.05094
 Alpha virt. eigenvalues --    0.06101   0.06418   0.06869   0.07137   0.07758
 Alpha virt. eigenvalues --    0.07999   0.10272   0.10838   0.11192   0.11565

 Mulliken charges:
               1
     1  Mg   0.826303
     2  C    0.052018
     3  C   -0.212485
     4  C   -0.172950
     5  C   -0.154842
     6  N   -0.674041
     7  C    0.295300
     8  C   -0.143764
     9  C   -0.176180
    10  C    0.404725
    11  C   -0.298099
    12  C   -0.153364
    13  C   -0.269176
    14  C    0.597127
    15  O   -0.437923
    16  O   -0.502814
    17  N   -0.700178
    18  C    0.323265
    19  C    0.017161
    20  C    0.000185
    21  C    0.323444
    22  C   -0.380547
    23  C   -0.083457
    24  C   -0.239909
    25  N   -0.695427
    26  C    0.269665
    27  C    0.048662
    28  C    0.009383
    29  C    0.269650
    30  C   -0.376453
    31  C   -0.238466
    32  C   -0.310766
    33  N   -0.777135
    34  C    0.278434
    35  C    0.051461
    36  C    0.010328
    37  C    0.319724
    38  C   -0.405075
    39  C    0.385189
    40  O   -0.414540
    41  C   -0.327386
    42  C    0.628517
    43  O   -0.495645
    44  O   -0.474524
    45  C   -0.070664
    46  C    0.033346
    47  C   -0.155160
    48  C    0.092899
    49  C   -0.347665
    50  C   -0.226213
    51  C   -0.177977
    52  C   -0.172420
    53  C   -0.052766
    54  C   -0.299610
    55  C   -0.169641
    56  C   -0.157762
    57  C   -0.148801
    58  C   -0.066263
    59  C   -0.335198
    60  C   -0.148064
    61  C   -0.184706
    62  C   -0.149246
    63  C   -0.066318
    64  C   -0.263037
    65  C   -0.295071
    66  H    0.084002
    67  H    0.099316
    68  H    0.090384
    69  H    0.116789
    70  H    0.087735
    71  H    0.088228
    72  H    0.110991
    73  H    0.129095
    74  H    0.127724
    75  H    0.092832
    76  H    0.150395
    77  H    0.149497
    78  H    0.133864
    79  H    0.120982
    80  H    0.117850
    81  H    0.101442
    82  H    0.110045
    83  H    0.103761
    84  H    0.103720
    85  H    0.120985
    86  H    0.110254
    87  H    0.095502
    88  H    0.093272
    89  H    0.096005
    90  H    0.105984
    91  H    0.106019
    92  H    0.131446
    93  H    0.131359
    94  H    0.141015
    95  H    0.151572
    96  H    0.130675
    97  H    0.145532
    98  H    0.111539
    99  H    0.121925
   100  H    0.107743
   101  H    0.092334
   102  H    0.108737
   103  H    0.122964
   104  H    0.118689
   105  H    0.079327
   106  H    0.082540
   107  H    0.112083
   108  H    0.108066
   109  H    0.069343
   110  H    0.098550
   111  H    0.078392
   112  H    0.105739
   113  H    0.110295
   114  H    0.095908
   115  H    0.080284
   116  H    0.063898
   117  H    0.072083
   118  H    0.083187
   119  H    0.095842
   120  H    0.078613
   121  H    0.104512
   122  H    0.096581
   123  H    0.095453
   124  H    0.090998
   125  H    0.068454
   126  H    0.082897
   127  H    0.099385
   128  H    0.050456
   129  H    0.085321
   130  H    0.092234
   131  H    0.076253
   132  H    0.103125
   133  H    0.063479
   134  H    0.085322
   135  H    0.087098
   136  H    0.113295
   137  H    0.093722
 Sum of Mulliken charges =   0.00000

 Dipole moment (field-independent basis, Debye):
    X=              0.6341    Y=              3.3252    Z=              0.0400  Tot=              3.3854
 Quadrupole moment (field-independent basis, Debye-Ang):
   XX=           -351.8375   YY=           -385.4328   ZZ=           -397.5460
   XY=            -17.5738   XZ=             14.0570   YZ=             -0.3057

 Normal termination of Gaussian 09 at Tue Jul  2 14:32:35 2019.
