 Gaussian 09, Revision D.01,
 Gaussian 09:  ES64L-G09RevD.01 24-Apr-2013

 -------------------------------------
 # td=(NStates=1) CAM-B3LYP/6-31G(d,p)
 -------------------------------------

 --
 TD
 --
 Symbolic Z-matrix:
 Charge =  0 Multiplicity = 1

                         Standard orientation:
 ---------------------------------------------------------------------
 Center     Atomic      Atomic             Coordinates (Angstroms)
 Number     Number       Type             X           Y           Z
 ---------------------------------------------------------------------
      1         12           0       -7.161092    0.529438    0.072602
      2          6           0       -4.845518   -1.930773    0.523462
      3          6           0       -4.832235    2.811270    1.136167
      4          6           0       -9.438413    3.230212   -0.270303
      5          6           0       -9.435140   -1.675646   -0.889999
      6          7           0       -5.061640    0.458469    0.768878
      7          6           0       -4.353629   -0.739324    0.874706
      8          6           0       -2.978154   -0.432812    1.285938
      9          6           0       -3.041891    1.042505    1.723869
     10          6           0       -4.307709    1.477038    1.178686
     11          6           0       -2.915355    1.216505    3.230660
     12          6           0       -1.970623   -0.588990    0.126104
     13          6           0       -0.506275   -0.476709    0.713679
     14          6           0        0.509399   -0.782516   -0.405851
     15          8           0        0.190526   -0.899525   -1.562283
     16          8           0        1.729082   -0.482267   -0.015994
     17          7           0       -7.152640    2.621251    0.323767
     18          6           0       -6.004591    3.360946    0.760516
     19          6           0       -6.367130    4.751246    0.811169
     20          6           0       -7.721162    4.774802    0.439022
     21          6           0       -8.180237    3.461557    0.182063
     22          6           0       -5.396339    5.791754    1.154582
     23          6           0       -8.521510    6.047257    0.219995
     24          6           0       -8.325997    7.254273    0.783375
     25          7           0       -9.106958    0.738176   -0.619174
     26          6           0       -9.861905    1.865491   -0.655650
     27          6           0      -11.188722    1.521121   -1.298608
     28          6           0      -11.167726    0.178387   -1.422021
     29          6           0       -9.899976   -0.306299   -1.067360
     30          6           0      -12.220163    2.553822   -1.445733
     31          6           0      -12.301915   -0.723557   -2.009500
     32          6           0      -12.243647   -0.974854   -3.542693
     33          7           0       -7.199769   -1.351911   -0.131719
     34          6           0       -8.201868   -2.137342   -0.511137
     35          6           0       -7.862183   -3.582039   -0.511565
     36          6           0       -6.573945   -3.551177   -0.149984
     37          6           0       -6.169668   -2.257261    0.132121
     38          6           0       -8.547556   -4.871007   -1.055872
     39          6           0       -5.262030   -4.358389    0.227075
     40          8           0       -5.199696   -5.629635    0.217969
     41          6           0       -4.164995   -3.365872    0.544263
     42          6           0       -3.525309   -3.695546    1.942276
     43          8           0       -3.807234   -3.224593    3.029003
     44          8           0       -2.769169   -4.745895    1.772900
     45          6           0       -2.032036   -5.223127    2.886253
     46          6           0        2.796540   -0.616296   -1.073577
     47          6           0        4.146218   -0.498655   -0.396029
     48          6           0        5.069021    0.393863   -0.744554
     49          6           0        5.005503    1.331111   -2.009585
     50          6           0        6.384699    0.349052   -0.088482
     51          6           0        7.569561   -0.160804   -0.970889
     52          6           0        8.861413   -0.181856   -0.184386
     53          6           0       10.171341   -0.627460   -0.922631
     54          6           0        9.915611   -2.196293   -1.172237
     55          6           0       11.396365   -0.358862   -0.100675
     56          6           0       12.781387   -0.528566   -0.769591
     57          6           0       13.953400   -0.144428    0.181556
     58          6           0       15.369300   -0.245298   -0.550729
     59          6           0       15.903316   -1.763823   -0.797848
     60          6           0       16.398039    0.536659    0.272097
     61          6           0       17.788498    0.618777   -0.313503
     62          6           0       18.757596    1.384480    0.581155
     63          6           0       20.173981    1.437204    0.080044
     64          6           0       20.326482    2.293920   -1.156790
     65          6           0       21.138048    2.003865    1.126669
     66          1           0       -4.205795    3.571379    1.625095
     67          1           0      -10.030202    3.895540   -0.392886
     68          1           0      -10.216863   -2.372473   -1.450593
     69          1           0       -2.821928   -1.174397    2.052497
     70          1           0       -2.341743    1.527615    1.283007
     71          1           0       -1.902155    0.818068    3.550981
     72          1           0       -3.131272    2.282613    3.588260
     73          1           0       -3.572535    0.543083    3.798495
     74          1           0       -2.187740   -1.603133   -0.333676
     75          1           0       -2.085584    0.125382   -0.829255
     76          1           0       -0.500415    0.537487    1.112418
     77          1           0       -0.472299   -1.154413    1.665714
     78          1           0       -5.819496    6.783865    0.780108
     79          1           0       -5.209720    5.868957    2.262213
     80          1           0       -4.445238    5.530996    0.652330
     81          1           0       -9.549097    5.798470   -0.421940
     82          1           0       -9.006276    7.916140    0.622163
     83          1           0       -7.612501    7.474926    1.532885
     84          1           0      -12.068485    3.241561   -2.245643
     85          1           0      -12.999758    1.896759   -1.940154
     86          1           0      -12.489749    2.919148   -0.392333
     87          1           0      -12.244749   -1.686154   -1.541449
     88          1           0      -13.252197   -0.506394   -1.759816
     89          1           0      -12.885717   -1.842858   -3.825550
     90          1           0      -12.434705   -0.090694   -4.209098
     91          1           0      -11.116262   -1.345350   -3.692189
     92          1           0       -9.244679   -4.547077   -1.908502
     93          1           0       -7.619915   -5.668939   -1.207767
     94          1           0       -9.346369   -5.417408   -0.193412
     95          1           0       -3.176730   -3.416824   -0.211452
     96          1           0       -1.241492   -4.472006    3.140393
     97          1           0       -2.826060   -5.490141    3.661325
     98          1           0       -1.449211   -6.080645    2.645892
     99          1           0        2.566979   -1.750274   -1.362800
    100          1           0        2.372268   -0.158178   -1.968829
    101          1           0        4.058100   -1.066087    0.512047
    102          1           0        4.046805    1.211786   -2.465151
    103          1           0        5.147253    2.512607   -1.621951
    104          1           0        5.998789    1.101456   -2.593203
    105          1           0        6.918316    1.377516    0.232421
    106          1           0        6.218176   -0.222165    0.838764
    107          1           0        7.282542   -1.105230   -1.412075
    108          1           0        7.682392    0.413891   -1.861784
    109          1           0        8.946459    0.743949    0.377478
    110          1           0        8.900430   -0.731953    0.882974
    111          1           0       10.113240   -0.373090   -1.875153
    112          1           0        9.130582   -2.413896   -1.809226
    113          1           0       10.736396   -2.822110   -1.702285
    114          1           0        9.646141   -2.658185   -0.235450
    115          1           0       11.322576    0.770540    0.242553
    116          1           0       11.276153   -0.923895    0.738772
    117          1           0       12.701885   -1.574046   -1.145881
    118          1           0       12.778572    0.191215   -1.633587
    119          1           0       13.865289    0.914528    0.499493
    120          1           0       14.024802   -0.788419    0.955735
    121          1           0       15.239677    0.283699   -1.530386
    122          1           0       16.024800   -2.243927    0.253170
    123          1           0       15.139184   -2.093264   -1.388282
    124          1           0       16.831984   -1.899335   -1.224193
    125          1           0       15.981812    1.542710    0.566924
    126          1           0       16.550789   -0.061668    1.309338
    127          1           0       18.051028   -0.574355   -0.592014
    128          1           0       17.558188    1.179232   -1.197254
    129          1           0       18.275925    2.504353    0.739899
    130          1           0       18.620277    0.894402    1.606393
    131          1           0       20.596887    0.405879   -0.216440
    132          1           0       19.881160    3.243048   -1.110873
    133          1           0       21.519340    2.421501   -1.298885
    134          1           0       19.930606    1.727149   -1.880703
    135          1           0       20.919632    1.328837    2.006065
    136          1           0       22.057625    2.013735    0.804684
    137          1           0       20.724973    2.905919    1.567064
 ---------------------------------------------------------------------

 SCF Done:  E(RCAM-B3LYP) =  -2932.65757589     A.U. after   18 cycles

 Excitation energies and oscillator strengths:

 Excited State   1:      Singlet-A      2.0977 eV  591.06 nm  f=0.2021  <S**2>=0.000
     240 -> 243       -0.27729
     241 -> 242        0.64413
 This state for optimization and/or second-order correction.
 Total Energy, E(TD-HF/TD-KS) =  -2932.58048805
 Copying the excited state density for this state as the 1-particle RhoCI density.

 The electronic state is 1-A.
 Alpha  occ. eigenvalues --  -46.83558 -19.27341 -19.26429 -19.21520 -19.21099
 Alpha  occ. eigenvalues --  -19.21065 -14.41449 -14.39285 -14.38564 -14.37854
 Alpha  occ. eigenvalues --  -10.40207 -10.39396 -10.36859 -10.33278 -10.32402
 Alpha  occ. eigenvalues --  -10.31330 -10.31099 -10.29506 -10.29504 -10.29175
 Alpha  occ. eigenvalues --  -10.28859 -10.28790 -10.28777 -10.28707 -10.28706
 Alpha  occ. eigenvalues --  -10.28696 -10.28535 -10.28046 -10.28024 -10.27967
 Alpha  occ. eigenvalues --  -10.27916 -10.27723 -10.27378 -10.27301 -10.27164
 Alpha  occ. eigenvalues --  -10.26933 -10.26801 -10.26673 -10.26658 -10.26587
 Alpha  occ. eigenvalues --  -10.26553 -10.26529 -10.26366 -10.26330 -10.26246
 Alpha  occ. eigenvalues --  -10.26244 -10.26062 -10.25851 -10.25846 -10.25772
 Alpha  occ. eigenvalues --  -10.25697 -10.25610 -10.25526 -10.25476 -10.25303
 Alpha  occ. eigenvalues --  -10.25242 -10.25222 -10.25219 -10.25182 -10.24475
 Alpha  occ. eigenvalues --  -10.24474 -10.24428 -10.24387 -10.23435 -10.22812
 Alpha  occ. eigenvalues --   -3.12700  -1.87399  -1.86923  -1.86906  -1.20597
 Alpha  occ. eigenvalues --   -1.18961  -1.09978  -1.09421  -1.08472  -1.05131
 Alpha  occ. eigenvalues --   -1.04226  -1.02568  -1.01521  -0.92616  -0.92068
 Alpha  occ. eigenvalues --   -0.90546  -0.90432  -0.90000  -0.89125  -0.88276
 Alpha  occ. eigenvalues --   -0.87947  -0.87603  -0.87497  -0.86280  -0.86048
 Alpha  occ. eigenvalues --   -0.85508  -0.84552  -0.83804  -0.83282  -0.82673
 Alpha  occ. eigenvalues --   -0.81852  -0.81537  -0.80686  -0.79820  -0.78160
 Alpha  occ. eigenvalues --   -0.77650  -0.76919  -0.76318  -0.76167  -0.76054
 Alpha  occ. eigenvalues --   -0.76002  -0.74714  -0.74418  -0.73514  -0.72207
 Alpha  occ. eigenvalues --   -0.71519  -0.70578  -0.69395  -0.69024  -0.68096
 Alpha  occ. eigenvalues --   -0.67371  -0.66373  -0.66223  -0.65604  -0.64923
 Alpha  occ. eigenvalues --   -0.64591  -0.64238  -0.63311  -0.62527  -0.61902
 Alpha  occ. eigenvalues --   -0.61639  -0.61538  -0.60341  -0.59971  -0.59638
 Alpha  occ. eigenvalues --   -0.58187  -0.57863  -0.57628  -0.57209  -0.56963
 Alpha  occ. eigenvalues --   -0.56484  -0.55975  -0.55657  -0.55144  -0.55011
 Alpha  occ. eigenvalues --   -0.54707  -0.54453  -0.54350  -0.53933  -0.53684
 Alpha  occ. eigenvalues --   -0.53253  -0.52988  -0.52907  -0.51549  -0.51428
 Alpha  occ. eigenvalues --   -0.51191  -0.51004  -0.50916  -0.50721  -0.50535
 Alpha  occ. eigenvalues --   -0.50506  -0.50110  -0.50045  -0.49847  -0.49789
 Alpha  occ. eigenvalues --   -0.49468  -0.49101  -0.48939  -0.48748  -0.48471
 Alpha  occ. eigenvalues --   -0.48228  -0.47903  -0.47722  -0.47313  -0.47034
 Alpha  occ. eigenvalues --   -0.46944  -0.46526  -0.46416  -0.46167  -0.46115
 Alpha  occ. eigenvalues --   -0.45794  -0.45572  -0.45523  -0.45477  -0.44981
 Alpha  occ. eigenvalues --   -0.44797  -0.44700  -0.44270  -0.44196  -0.44105
 Alpha  occ. eigenvalues --   -0.44053  -0.43842  -0.43627  -0.43284  -0.43213
 Alpha  occ. eigenvalues --   -0.43039  -0.42935  -0.42626  -0.42443  -0.42367
 Alpha  occ. eigenvalues --   -0.42155  -0.41814  -0.41620  -0.41458  -0.41123
 Alpha  occ. eigenvalues --   -0.41053  -0.40959  -0.40808  -0.40608  -0.40399
 Alpha  occ. eigenvalues --   -0.40179  -0.39966  -0.39596  -0.39159  -0.39020
 Alpha  occ. eigenvalues --   -0.38946  -0.38634  -0.38207  -0.37967  -0.37948
 Alpha  occ. eigenvalues --   -0.37737  -0.37239  -0.37111  -0.36814  -0.36768
 Alpha  occ. eigenvalues --   -0.36554  -0.36480  -0.36255  -0.36019  -0.35504
 Alpha  occ. eigenvalues --   -0.35409  -0.35386  -0.35182  -0.34452  -0.34217
 Alpha  occ. eigenvalues --   -0.34161  -0.32677  -0.32456  -0.30651  -0.30582
 Alpha  occ. eigenvalues --   -0.30480  -0.29846  -0.28160  -0.26679  -0.22982
 Alpha  occ. eigenvalues --   -0.20507
 Alpha virt. eigenvalues --   -0.05440  -0.03388   0.00852   0.03770   0.04363
 Alpha virt. eigenvalues --    0.05487   0.05916   0.06579   0.07042   0.07335
 Alpha virt. eigenvalues --    0.08324   0.10615   0.11229   0.11793   0.11956

 Mulliken charges:
               1
     1  Mg   0.836359
     2  C    0.078136
     3  C   -0.239380
     4  C   -0.079595
     5  C   -0.178166
     6  N   -0.623190
     7  C    0.286494
     8  C   -0.182627
     9  C   -0.111499
    10  C    0.359809
    11  C   -0.313075
    12  C   -0.174743
    13  C   -0.274031
    14  C    0.605450
    15  O   -0.468256
    16  O   -0.471663
    17  N   -0.741147
    18  C    0.322312
    19  C    0.053833
    20  C   -0.040756
    21  C    0.392194
    22  C   -0.384436
    23  C   -0.077394
    24  C   -0.234838
    25  N   -0.675980
    26  C    0.254865
    27  C   -0.002320
    28  C    0.027721
    29  C    0.260700
    30  C   -0.373358
    31  C   -0.236515
    32  C   -0.300764
    33  N   -0.746570
    34  C    0.304012
    35  C   -0.011088
    36  C    0.029483
    37  C    0.229435
    38  C   -0.353669
    39  C    0.419135
    40  O   -0.481621
    41  C   -0.301557
    42  C    0.603402
    43  O   -0.476849
    44  O   -0.408780
    45  C   -0.085943
    46  C   -0.022437
    47  C   -0.126966
    48  C    0.129206
    49  C   -0.335241
    50  C   -0.223015
    51  C   -0.185085
    52  C   -0.172196
    53  C   -0.058779
    54  C   -0.334772
    55  C   -0.160318
    56  C   -0.190751
    57  C   -0.164510
    58  C   -0.078513
    59  C   -0.316788
    60  C   -0.165219
    61  C   -0.157242
    62  C   -0.155618
    63  C   -0.064062
    64  C   -0.285427
    65  C   -0.291011
    66  H    0.067169
    67  H    0.012164
    68  H    0.085868
    69  H    0.124930
    70  H    0.108910
    71  H    0.102775
    72  H    0.106831
    73  H    0.132159
    74  H    0.099812
    75  H    0.115610
    76  H    0.144287
    77  H    0.113570
    78  H    0.114903
    79  H    0.122327
    80  H    0.121670
    81  H    0.079206
    82  H    0.099562
    83  H    0.110328
    84  H    0.130083
    85  H    0.103481
    86  H    0.127493
    87  H    0.103411
    88  H    0.110061
    89  H    0.102843
    90  H    0.108101
    91  H    0.089557
    92  H    0.120135
    93  H    0.145626
    94  H    0.090467
    95  H    0.157504
    96  H    0.116593
    97  H    0.140405
    98  H    0.135411
    99  H    0.107874
   100  H    0.152165
   101  H    0.113444
   102  H    0.121813
   103  H    0.097556
   104  H    0.114927
   105  H    0.081155
   106  H    0.104007
   107  H    0.106248
   108  H    0.105694
   109  H    0.088871
   110  H    0.065342
   111  H    0.093560
   112  H    0.110326
   113  H    0.080834
   114  H    0.103351
   115  H    0.066641
   116  H    0.101521
   117  H    0.099744
   118  H    0.089942
   119  H    0.095463
   120  H    0.107356
   121  H    0.075863
   122  H    0.089559
   123  H    0.114777
   124  H    0.116675
   125  H    0.077213
   126  H    0.053039
   127  H    0.065493
   128  H    0.099364
   129  H    0.066938
   130  H    0.083807
   131  H    0.077690
   132  H    0.104944
   133  H    0.068274
   134  H    0.113262
   135  H    0.082811
   136  H    0.104597
   137  H    0.099813
 Sum of Mulliken charges =   0.00000

 Dipole moment (field-independent basis, Debye):
    X=              4.2373    Y=              3.2023    Z=              0.5739  Tot=              5.3421
 Quadrupole moment (field-independent basis, Debye-Ang):
   XX=           -383.7382   YY=           -397.0032   ZZ=           -397.7095
   XY=            -23.0287   XZ=              4.6320   YZ=              0.0550

 Normal termination of Gaussian 09 at Wed Jul  3 11:22:47 2019.
