 Gaussian 09, Revision D.01,
 Gaussian 09:  ES64L-G09RevD.01 24-Apr-2013

 -------------------------------------
 # td=(NStates=1) CAM-B3LYP/6-31G(d,p)
 -------------------------------------

 --
 TD
 --
 Symbolic Z-matrix:
 Charge =  0 Multiplicity = 1

                         Standard orientation:
 ---------------------------------------------------------------------
 Center     Atomic      Atomic             Coordinates (Angstroms)
 Number     Number       Type             X           Y           Z
 ---------------------------------------------------------------------
      1         12           0       -7.194865    0.577655    0.085826
      2          6           0       -4.836058   -1.891100    0.472703
      3          6           0       -4.741705    2.920554    1.054833
      4          6           0       -9.452985    3.081763   -0.359667
      5          6           0       -9.579276   -1.724103   -0.758826
      6          7           0       -5.113591    0.545540    0.782653
      7          6           0       -4.376777   -0.722255    0.868983
      8          6           0       -2.886473   -0.414879    1.179404
      9          6           0       -3.011830    1.100114    1.656033
     10          6           0       -4.398838    1.556273    1.158076
     11          6           0       -2.779472    1.355299    3.178614
     12          6           0       -1.809545   -0.569936    0.138097
     13          6           0       -0.366266   -0.390793    0.607152
     14          6           0        0.458632   -0.843816   -0.596176
     15          8           0        0.119833   -1.180361   -1.694303
     16          8           0        1.753868   -0.509552   -0.348272
     17          7           0       -7.053603    2.632726    0.477971
     18          6           0       -6.000380    3.370261    0.777934
     19          6           0       -6.436770    4.840655    0.666414
     20          6           0       -7.686574    4.822804    0.243767
     21          6           0       -8.135656    3.432559    0.123645
     22          6           0       -5.504102    6.007735    0.947844
     23          6           0       -8.653926    6.083460    0.016503
     24          6           0       -8.689786    7.168884    0.730457
     25          7           0       -9.065993    0.657993   -0.394302
     26          6           0       -9.842918    1.823302   -0.554966
     27          6           0      -11.130818    1.459317   -1.026547
     28          6           0      -11.190977    0.065701   -1.222424
     29          6           0       -9.946932   -0.369382   -0.767578
     30          6           0      -12.246563    2.385279   -1.338957
     31          6           0      -12.329785   -0.861273   -1.667210
     32          6           0      -12.199171   -1.219954   -3.151998
     33          7           0       -7.291749   -1.381313   -0.169677
     34          6           0       -8.250138   -2.260746   -0.481563
     35          6           0       -7.816534   -3.583478   -0.443581
     36          6           0       -6.504870   -3.508518    0.005956
     37          6           0       -6.210392   -2.149223    0.108312
     38          6           0       -8.602921   -4.816406   -0.778341
     39          6           0       -5.317485   -4.338085    0.292683
     40          8           0       -5.118503   -5.524109    0.156645
     41          6           0       -4.117125   -3.284082    0.477377
     42          6           0       -3.493044   -3.704434    1.891863
     43          8           0       -3.769113   -3.099185    2.946186
     44          8           0       -2.693824   -4.691666    1.713966
     45          6           0       -2.011700   -5.217592    2.939481
     46          6           0        2.768903   -0.706936   -1.378844
     47          6           0        4.089212   -0.468700   -0.693932
     48          6           0        5.092315    0.381145   -1.045613
     49          6           0        5.114875    1.158052   -2.385307
     50          6           0        6.364984    0.420853   -0.263620
     51          6           0        7.590088   -0.165409   -1.004193
     52          6           0        8.906372   -0.113794   -0.142462
     53          6           0       10.257129   -0.664648   -0.864000
     54          6           0       10.155845   -2.167353   -1.174124
     55          6           0       11.306886   -0.294962    0.045497
     56          6           0       12.816889   -0.507887   -0.737820
     57          6           0       13.928161   -0.199166    0.203933
     58          6           0       15.294413   -0.212311   -0.469656
     59          6           0       15.653370   -1.731805   -0.984430
     60          6           0       16.398431    0.305279    0.430348
     61          6           0       17.809837    0.408348   -0.185139
     62          6           0       18.748900    1.229447    0.757582
     63          6           0       20.216373    1.471951    0.264438
     64          6           0       20.250840    2.379972   -0.980127
     65          6           0       20.910551    2.162573    1.459746
     66          1           0       -4.047570    3.744353    1.226264
     67          1           0      -10.078393    3.864075   -0.504259
     68          1           0      -10.258183   -2.564843   -1.181937
     69          1           0       -2.560014   -1.013259    2.078141
     70          1           0       -2.216970    1.603207    1.079566
     71          1           0       -1.790265    1.139489    3.470908
     72          1           0       -3.060286    2.399406    3.378685
     73          1           0       -3.676260    0.705859    3.488902
     74          1           0       -1.931095   -1.655047   -0.453464
     75          1           0       -2.097851    0.103435   -0.584045
     76          1           0       -0.163176    0.580202    1.148048
     77          1           0       -0.305589   -1.043344    1.555598
     78          1           0       -5.603036    6.852168    0.335591
     79          1           0       -5.374151    6.132642    2.195138
     80          1           0       -4.588850    5.638797    0.653571
     81          1           0       -9.199471    5.988463   -0.946901
     82          1           0       -9.284999    8.000320    0.328718
     83          1           0       -7.945857    7.212051    1.600051
     84          1           0      -12.119756    2.857784   -2.278032
     85          1           0      -13.335748    2.198857   -1.474349
     86          1           0      -12.425252    3.264583   -0.704936
     87          1           0      -12.368486   -1.784383   -1.169613
     88          1           0      -13.270037   -0.144165   -1.504821
     89          1           0      -13.107201   -1.935567   -3.459364
     90          1           0      -12.448177   -0.296253   -3.835396
     91          1           0      -11.358571   -1.878611   -3.439371
     92          1           0       -9.165068   -4.764972   -1.800497
     93          1           0       -7.782509   -5.728979   -0.847958
     94          1           0       -9.384120   -5.191418   -0.005940
     95          1           0       -3.366447   -3.570645   -0.229588
     96          1           0       -1.436869   -4.254037    3.395344
     97          1           0       -2.637295   -5.425428    3.771458
     98          1           0       -1.309072   -6.022141    2.669451
     99          1           0        2.665107   -1.788820   -1.749306
    100          1           0        2.610619   -0.081801   -2.323280
    101          1           0        4.337503   -1.141446    0.165832
    102          1           0        4.276222    1.123843   -3.175067
    103          1           0        5.205419    2.362428   -1.983388
    104          1           0        5.972846    0.796619   -3.006797
    105          1           0        6.506495    1.477581   -0.291956
    106          1           0        6.492857   -0.033886    0.650198
    107          1           0        7.365185   -1.230351   -1.335774
    108          1           0        7.838616    0.440404   -1.905215
    109          1           0        9.309675    0.899815   -0.048393
    110          1           0        8.841431   -0.777207    0.700186
    111          1           0       10.570221   -0.283451   -1.975672
    112          1           0        9.288468   -2.499321   -1.764144
    113          1           0       11.101753   -2.399435   -1.799285
    114          1           0       10.280301   -2.805334   -0.164691
    115          1           0       11.254026    0.765927    0.230433
    116          1           0       11.579505   -0.923857    0.960190
    117          1           0       12.757243   -1.597757   -1.096564
    118          1           0       12.862957    0.232223   -1.643040
    119          1           0       13.602848    0.790285    0.504266
    120          1           0       13.994260   -0.729658    1.087924
    121          1           0       15.362855    0.379050   -1.418463
    122          1           0       15.972933   -2.346608   -0.074342
    123          1           0       14.821698   -2.191296   -1.549442
    124          1           0       16.235441   -1.611176   -1.762451
    125          1           0       16.122088    1.386238    0.519406
    126          1           0       16.480478   -0.101971    1.535055
    127          1           0       18.332693   -0.584403   -0.238577
    128          1           0       17.568057    1.150955   -0.928011
    129          1           0       18.397114    2.258728    0.937407
    130          1           0       18.808454    0.617188    1.786714
    131          1           0       20.884856    0.539343   -0.048956
    132          1           0       20.003852    3.505148   -0.842468
    133          1           0       21.267444    2.421207   -1.383089
    134          1           0       19.432561    2.100297   -1.610208
    135          1           0       20.835623    1.445493    2.488457
    136          1           0       22.030856    2.467090    1.379776
    137          1           0       20.649655    3.146468    1.674094
 ---------------------------------------------------------------------

 SCF Done:  E(RCAM-B3LYP) =  -2932.70061291     A.U. after   17 cycles

 Excitation energies and oscillator strengths:

 Excited State   1:      Singlet-A      2.1036 eV  589.40 nm  f=0.2921  <S**2>=0.000
     240 -> 243        0.20133
     241 -> 242        0.67310
 This state for optimization and/or second-order correction.
 Total Energy, E(TD-HF/TD-KS) =  -2932.62330845
 Copying the excited state density for this state as the 1-particle RhoCI density.

 The electronic state is 1-A.
 Alpha  occ. eigenvalues --  -46.83410 -19.28078 -19.25083 -19.21394 -19.19941
 Alpha  occ. eigenvalues --  -19.19642 -14.41851 -14.39269 -14.38673 -14.38629
 Alpha  occ. eigenvalues --  -10.39501 -10.39039 -10.34590 -10.33325 -10.32550
 Alpha  occ. eigenvalues --  -10.31364 -10.30573 -10.30124 -10.29678 -10.28902
 Alpha  occ. eigenvalues --  -10.28756 -10.28741 -10.28439 -10.28223 -10.28147
 Alpha  occ. eigenvalues --  -10.28047 -10.27792 -10.27728 -10.27486 -10.27473
 Alpha  occ. eigenvalues --  -10.27418 -10.27355 -10.27226 -10.27054 -10.27010
 Alpha  occ. eigenvalues --  -10.27003 -10.26965 -10.26941 -10.26865 -10.26694
 Alpha  occ. eigenvalues --  -10.26486 -10.26399 -10.26398 -10.26397 -10.26347
 Alpha  occ. eigenvalues --  -10.26312 -10.26258 -10.26245 -10.26159 -10.26039
 Alpha  occ. eigenvalues --  -10.26035 -10.25902 -10.25875 -10.25686 -10.25652
 Alpha  occ. eigenvalues --  -10.25641 -10.25595 -10.25510 -10.25482 -10.25371
 Alpha  occ. eigenvalues --  -10.25176 -10.24777 -10.23975 -10.23937 -10.23800
 Alpha  occ. eigenvalues --   -3.12647  -1.87334  -1.86942  -1.86793  -1.19304
 Alpha  occ. eigenvalues --   -1.17785  -1.10751  -1.09070  -1.07243  -1.04632
 Alpha  occ. eigenvalues --   -1.04065  -1.02718  -1.01699  -0.91574  -0.91104
 Alpha  occ. eigenvalues --   -0.90346  -0.89723  -0.89288  -0.89020  -0.88523
 Alpha  occ. eigenvalues --   -0.87813  -0.87614  -0.87058  -0.85993  -0.85479
 Alpha  occ. eigenvalues --   -0.84404  -0.84116  -0.83463  -0.83150  -0.82947
 Alpha  occ. eigenvalues --   -0.81594  -0.81034  -0.80261  -0.79205  -0.78089
 Alpha  occ. eigenvalues --   -0.77625  -0.77205  -0.76024  -0.75672  -0.75379
 Alpha  occ. eigenvalues --   -0.75257  -0.74476  -0.74297  -0.72864  -0.71929
 Alpha  occ. eigenvalues --   -0.71016  -0.69635  -0.68905  -0.68616  -0.67540
 Alpha  occ. eigenvalues --   -0.66372  -0.65636  -0.64576  -0.64507  -0.64161
 Alpha  occ. eigenvalues --   -0.63977  -0.62858  -0.62492  -0.62306  -0.61721
 Alpha  occ. eigenvalues --   -0.61001  -0.60958  -0.60089  -0.59261  -0.58965
 Alpha  occ. eigenvalues --   -0.58517  -0.57831  -0.57334  -0.56746  -0.56199
 Alpha  occ. eigenvalues --   -0.56039  -0.55837  -0.55444  -0.55218  -0.54907
 Alpha  occ. eigenvalues --   -0.54636  -0.54262  -0.53950  -0.53423  -0.53086
 Alpha  occ. eigenvalues --   -0.52868  -0.52447  -0.52227  -0.52007  -0.51613
 Alpha  occ. eigenvalues --   -0.51163  -0.50918  -0.50359  -0.50276  -0.50218
 Alpha  occ. eigenvalues --   -0.49779  -0.49704  -0.49568  -0.49180  -0.49131
 Alpha  occ. eigenvalues --   -0.48924  -0.48532  -0.48450  -0.48332  -0.48258
 Alpha  occ. eigenvalues --   -0.48091  -0.47859  -0.47704  -0.47515  -0.47325
 Alpha  occ. eigenvalues --   -0.46717  -0.46382  -0.46139  -0.45962  -0.45847
 Alpha  occ. eigenvalues --   -0.45465  -0.45376  -0.45215  -0.45164  -0.44999
 Alpha  occ. eigenvalues --   -0.44661  -0.44517  -0.44155  -0.43998  -0.43729
 Alpha  occ. eigenvalues --   -0.43509  -0.43324  -0.43126  -0.42833  -0.42612
 Alpha  occ. eigenvalues --   -0.42490  -0.42464  -0.42189  -0.42166  -0.41845
 Alpha  occ. eigenvalues --   -0.41574  -0.41353  -0.41271  -0.41191  -0.40860
 Alpha  occ. eigenvalues --   -0.40798  -0.40648  -0.40544  -0.40268  -0.39892
 Alpha  occ. eigenvalues --   -0.39818  -0.39594  -0.39231  -0.39177  -0.38795
 Alpha  occ. eigenvalues --   -0.38478  -0.38418  -0.38160  -0.37986  -0.37771
 Alpha  occ. eigenvalues --   -0.37462  -0.37251  -0.37091  -0.36995  -0.36400
 Alpha  occ. eigenvalues --   -0.36310  -0.35801  -0.35741  -0.35599  -0.35418
 Alpha  occ. eigenvalues --   -0.35267  -0.35101  -0.34314  -0.34185  -0.33055
 Alpha  occ. eigenvalues --   -0.32529  -0.32020  -0.31645  -0.31376  -0.29596
 Alpha  occ. eigenvalues --   -0.29242  -0.29156  -0.28802  -0.27779  -0.23780
 Alpha  occ. eigenvalues --   -0.20914
 Alpha virt. eigenvalues --   -0.06181  -0.01898   0.02100   0.05076   0.05504
 Alpha virt. eigenvalues --    0.06048   0.06181   0.06881   0.07683   0.07892
 Alpha virt. eigenvalues --    0.08768   0.10621   0.11416   0.11735   0.11746

 Mulliken charges:
               1
     1  Mg   0.831128
     2  C    0.092251
     3  C   -0.210352
     4  C   -0.175024
     5  C   -0.183876
     6  N   -0.613691
     7  C    0.247819
     8  C   -0.152305
     9  C   -0.186692
    10  C    0.374278
    11  C   -0.295376
    12  C   -0.161515
    13  C   -0.279411
    14  C    0.625809
    15  O   -0.450168
    16  O   -0.487522
    17  N   -0.717774
    18  C    0.352395
    19  C   -0.014203
    20  C   -0.015098
    21  C    0.296404
    22  C   -0.359757
    23  C   -0.060024
    24  C   -0.238891
    25  N   -0.750194
    26  C    0.376882
    27  C   -0.005605
    28  C    0.073953
    29  C    0.292281
    30  C   -0.421568
    31  C   -0.221282
    32  C   -0.304997
    33  N   -0.725433
    34  C    0.254428
    35  C    0.040429
    36  C   -0.002644
    37  C    0.273220
    38  C   -0.387960
    39  C    0.363862
    40  O   -0.453921
    41  C   -0.308919
    42  C    0.606092
    43  O   -0.508733
    44  O   -0.410246
    45  C   -0.100200
    46  C    0.016386
    47  C   -0.129956
    48  C    0.107846
    49  C   -0.350661
    50  C   -0.196086
    51  C   -0.195144
    52  C   -0.176031
    53  C   -0.064411
    54  C   -0.300240
    55  C   -0.176411
    56  C   -0.204227
    57  C   -0.147996
    58  C   -0.069873
    59  C   -0.317151
    60  C   -0.176996
    61  C   -0.173631
    62  C   -0.167599
    63  C   -0.048125
    64  C   -0.315166
    65  C   -0.292900
    66  H    0.082586
    67  H    0.081769
    68  H    0.091628
    69  H    0.111140
    70  H    0.093181
    71  H    0.115078
    72  H    0.109453
    73  H    0.124449
    74  H    0.101165
    75  H    0.122164
    76  H    0.144274
    77  H    0.127973
    78  H    0.134001
    79  H    0.100188
    80  H    0.126006
    81  H    0.096629
    82  H    0.108745
    83  H    0.110412
    84  H    0.128287
    85  H    0.117068
    86  H    0.114793
    87  H    0.122705
    88  H    0.099938
    89  H    0.078714
    90  H    0.104673
    91  H    0.121260
    92  H    0.105197
    93  H    0.125959
    94  H    0.117979
    95  H    0.161515
    96  H    0.114689
    97  H    0.161818
    98  H    0.142213
    99  H    0.117167
   100  H    0.113967
   101  H    0.085173
   102  H    0.115024
   103  H    0.083469
   104  H    0.129282
   105  H    0.102574
   106  H    0.110815
   107  H    0.090910
   108  H    0.093379
   109  H    0.098230
   110  H    0.102808
   111  H    0.069495
   112  H    0.107602
   113  H    0.091194
   114  H    0.075141
   115  H    0.098091
   116  H    0.097542
   117  H    0.092936
   118  H    0.078338
   119  H    0.089945
   120  H    0.097982
   121  H    0.074750
   122  H    0.097250
   123  H    0.090889
   124  H    0.115992
   125  H    0.083602
   126  H    0.070531
   127  H    0.107530
   128  H    0.102554
   129  H    0.093837
   130  H    0.068779
   131  H    0.078647
   132  H    0.080721
   133  H    0.109909
   134  H    0.108777
   135  H    0.068235
   136  H    0.075641
   137  H    0.114162
 Sum of Mulliken charges =   0.00000

 Dipole moment (field-independent basis, Debye):
    X=              2.9964    Y=              5.0054    Z=             -0.4796  Tot=              5.8535
 Quadrupole moment (field-independent basis, Debye-Ang):
   XX=           -357.1873   YY=           -385.7349   ZZ=           -396.6365
   XY=            -24.7576   XZ=             12.8282   YZ=             -9.3346

 Normal termination of Gaussian 09 at Sat Jul  6 19:32:16 2019.
