 Gaussian 16, Revision A.03,
 Gaussian 16:  ES64L-G16RevA.03 25-Dec-2016

 ----------------------------------------------------------------------
 # td=(NStates=1) iop(3/107=0140000000,3/108=0140000000) CAM-B3LYP/6-31
 G(d,p)
 ----------------------------------------------------------------------

 --
 TD
 --
 Symbolic Z-matrix:
 Charge =  0 Multiplicity = 1

                         Standard orientation:
 ---------------------------------------------------------------------
 Center     Atomic      Atomic             Coordinates (Angstroms)
 Number     Number       Type             X           Y           Z
 ---------------------------------------------------------------------
      1         12           0       -7.207026    0.633064    0.168363
      2          6           0       -4.919183   -1.987735    0.528680
      3          6           0       -4.751031    2.761479    1.215488
      4          6           0       -9.252832    3.113225   -0.482561
      5          6           0       -9.578487   -1.647450   -0.892243
      6          7           0       -5.143704    0.355182    0.745623
      7          6           0       -4.343104   -0.740822    0.823799
      8          6           0       -2.980282   -0.348925    1.329651
      9          6           0       -3.056966    0.990034    1.669232
     10          6           0       -4.372885    1.396182    1.310039
     11          6           0       -2.932810    1.173631    3.237822
     12          6           0       -1.926208   -0.626131    0.230595
     13          6           0       -0.490797   -0.424746    0.662217
     14          6           0        0.540439   -0.805578   -0.453183
     15          8           0        0.284679   -1.039177   -1.631858
     16          8           0        1.750168   -0.701742   -0.001626
     17          7           0       -6.985629    2.575456    0.442738
     18          6           0       -5.936231    3.293909    0.908581
     19          6           0       -6.262545    4.737770    0.820803
     20          6           0       -7.537176    4.809632    0.385499
     21          6           0       -7.979124    3.487072    0.002055
     22          6           0       -5.343347    5.894742    1.094639
     23          6           0       -8.410573    6.042601    0.064684
     24          6           0       -8.348739    7.228721    0.654147
     25          7           0       -9.156534    0.713652   -0.499312
     26          6           0       -9.730941    1.917910   -0.777251
     27          6           0      -11.226226    1.576794   -1.162531
     28          6           0      -11.220108    0.216929   -1.278215
     29          6           0       -9.917712   -0.309516   -0.864935
     30          6           0      -12.211297    2.536999   -1.460529
     31          6           0      -12.377490   -0.583663   -1.887370
     32          6           0      -12.152457   -0.883207   -3.333939
     33          7           0       -7.330891   -1.342709   -0.131144
     34          6           0       -8.347753   -2.190043   -0.614348
     35          6           0       -7.964407   -3.590397   -0.551448
     36          6           0       -6.630435   -3.491336   -0.083770
     37          6           0       -6.284216   -2.134426    0.156783
     38          6           0       -8.735939   -4.808697   -0.899921
     39          6           0       -5.474845   -4.393068    0.079363
     40          8           0       -5.221933   -5.627469    0.043763
     41          6           0       -4.306093   -3.325787    0.607550
     42          6           0       -3.620275   -3.683092    1.860497
     43          8           0       -3.956567   -3.243945    2.938274
     44          8           0       -2.725832   -4.702212    1.716965
     45          6           0       -2.189635   -5.118239    2.953119
     46          6           0        2.815277   -0.869398   -1.090477
     47          6           0        4.093341   -0.586735   -0.424804
     48          6           0        5.001075    0.331103   -0.855168
     49          6           0        4.961900    1.068563   -2.086714
     50          6           0        6.503058    0.354876   -0.174472
     51          6           0        7.657831   -0.140587   -1.024999
     52          6           0        8.958212   -0.173532   -0.242571
     53          6           0       10.174312   -0.469060   -0.985361
     54          6           0       10.091996   -1.809565   -1.581461
     55          6           0       11.486311   -0.272785   -0.039293
     56          6           0       12.745154   -0.525474   -0.800093
     57          6           0       13.937565    0.001285    0.068538
     58          6           0       15.322566   -0.141400   -0.526532
     59          6           0       15.669364   -1.533381   -0.985168
     60          6           0       16.476257    0.404051    0.486326
     61          6           0       17.815374    0.586974   -0.174441
     62          6           0       18.764136    1.238389    0.801307
     63          6           0       20.199341    1.366138    0.214910
     64          6           0       20.441414    2.042200   -1.018395
     65          6           0       21.135461    1.875246    1.340409
     66          1           0       -4.140840    3.446516    1.783416
     67          1           0       -9.873849    3.998478   -0.608009
     68          1           0      -10.277942   -2.260519   -1.464950
     69          1           0       -2.632107   -1.147541    2.171844
     70          1           0       -2.272589    1.673933    1.254484
     71          1           0       -2.035367    0.561173    3.604150
     72          1           0       -2.990209    2.291123    3.708103
     73          1           0       -3.819279    0.627874    3.897932
     74          1           0       -2.153140   -1.568250   -0.156136
     75          1           0       -2.245825    0.012877   -0.655302
     76          1           0       -0.284112    0.557633    1.064937
     77          1           0       -0.182231   -1.127159    1.403298
     78          1           0       -5.791412    6.704804    0.583519
     79          1           0       -5.153667    5.914951    2.111052
     80          1           0       -4.307859    5.722578    0.639922
     81          1           0       -9.079813    5.885104   -0.730451
     82          1           0       -9.132566    8.037243    0.416160
     83          1           0       -7.656223    7.263019    1.632200
     84          1           0      -11.851976    3.227382   -2.310478
     85          1           0      -13.195181    2.069411   -1.667335
     86          1           0      -12.479775    3.040442   -0.547951
     87          1           0      -12.673953   -1.375857   -1.310236
     88          1           0      -13.343974   -0.015697   -1.737251
     89          1           0      -12.756541   -1.518694   -3.556775
     90          1           0      -11.985729   -0.111857   -4.092496
     91          1           0      -11.231573   -1.574170   -3.308116
     92          1           0       -8.886126   -5.113879   -2.004168
     93          1           0       -8.056364   -5.689909   -0.681861
     94          1           0       -9.952668   -4.621688   -0.380016
     95          1           0       -3.435909   -3.324646   -0.231129
     96          1           0       -1.912183   -4.314790    3.743324
     97          1           0       -3.109277   -5.445655    3.517468
     98          1           0       -1.469605   -5.929285    2.748043
     99          1           0        2.637487   -1.818114   -1.427455
    100          1           0        2.280790   -0.083078   -1.796284
    101          1           0        4.322413   -1.175095    0.454394
    102          1           0        3.859284    1.190552   -2.436432
    103          1           0        5.781781    1.963530   -2.007254
    104          1           0        5.565430    0.454214   -2.873347
    105          1           0        6.716084    1.298993    0.379273
    106          1           0        6.470689   -0.242210    0.750029
    107          1           0        7.517269   -1.022640   -1.528905
    108          1           0        7.856983    0.450574   -1.890690
    109          1           0        9.235241    0.758921    0.256204
    110          1           0        8.971316   -1.075283    0.468204
    111          1           0       10.181289    0.373552   -1.800655
    112          1           0        9.256275   -2.009250   -2.292677
    113          1           0       10.960502   -2.271267   -2.156531
    114          1           0       10.034143   -2.525200   -0.918508
    115          1           0       11.591127    0.694060    0.206548
    116          1           0       11.421156   -0.999501    0.817839
    117          1           0       12.902495   -1.552894   -1.013302
    118          1           0       12.891046    0.136512   -1.725522
    119          1           0       13.849985    0.987700    0.362118
    120          1           0       13.997816   -0.738917    1.030369
    121          1           0       15.409952    0.451965   -1.362329
    122          1           0       15.443962   -2.259869   -0.138046
    123          1           0       15.040119   -1.866248   -1.685516
    124          1           0       16.683951   -1.661763   -1.412948
    125          1           0       16.000545    1.477937    0.530976
    126          1           0       16.471824   -0.163474    1.462036
    127          1           0       18.289138   -0.351792   -0.300218
    128          1           0       17.780952    1.175519   -1.030876
    129          1           0       18.133594    2.287977    1.027356
    130          1           0       18.970676    0.759912    1.767969
    131          1           0       20.394242    0.329724    0.104411
    132          1           0       20.018069    3.059806   -0.921076
    133          1           0       21.465970    2.314746   -1.372167
    134          1           0       19.912670    1.552008   -2.020077
    135          1           0       21.097011    1.190694    2.193786
    136          1           0       21.984697    1.968819    0.922194
    137          1           0       20.859997    2.862402    1.562838
 ---------------------------------------------------------------------

 SCF Done:  E(RCAM-B3LYP) =  -2933.49518198     A.U. after   16 cycles

 Excitation energies and oscillator strengths:

 Excited State   1:      Singlet-A      1.9747 eV  627.85 nm  f=0.2726  <S**2>=0.000
     240 -> 243        0.22790
     241 -> 242        0.66783
 This state for optimization and/or second-order correction.
 Total Energy, E(TD-HF/TD-DFT) =  -2933.42261205
 Copying the excited state density for this state as the 1-particle RhoCI density.

 The electronic state is 1-A.
 Alpha  occ. eigenvalues --  -46.79180 -19.21731 -19.21426 -19.16413 -19.16088
 Alpha  occ. eigenvalues --  -19.15336 -14.37875 -14.35095 -14.34897 -14.34790
 Alpha  occ. eigenvalues --  -10.33617 -10.33584 -10.31274 -10.27847 -10.26547
 Alpha  occ. eigenvalues --  -10.26287 -10.25904 -10.25105 -10.24589 -10.24514
 Alpha  occ. eigenvalues --  -10.24503 -10.24502 -10.24454 -10.24425 -10.24199
 Alpha  occ. eigenvalues --  -10.24108 -10.23993 -10.23870 -10.23797 -10.23169
 Alpha  occ. eigenvalues --  -10.23114 -10.23027 -10.22918 -10.22862 -10.22686
 Alpha  occ. eigenvalues --  -10.22592 -10.22382 -10.22277 -10.22032 -10.21970
 Alpha  occ. eigenvalues --  -10.21880 -10.21864 -10.21863 -10.21613 -10.21592
 Alpha  occ. eigenvalues --  -10.21449 -10.21433 -10.21360 -10.21297 -10.21207
 Alpha  occ. eigenvalues --  -10.21177 -10.21087 -10.20986 -10.20846 -10.20821
 Alpha  occ. eigenvalues --  -10.20777 -10.20744 -10.20713 -10.20471 -10.20216
 Alpha  occ. eigenvalues --  -10.19400 -10.19361 -10.19211 -10.18766 -10.17958
 Alpha  occ. eigenvalues --   -3.07938  -1.82871  -1.82442  -1.82323  -1.13253
 Alpha  occ. eigenvalues --   -1.12925  -1.04112  -1.03365  -1.02470  -0.99864
 Alpha  occ. eigenvalues --   -0.98620  -0.97848  -0.97139  -0.87208  -0.87006
 Alpha  occ. eigenvalues --   -0.86341  -0.85747  -0.85354  -0.84401  -0.84067
 Alpha  occ. eigenvalues --   -0.83996  -0.83586  -0.82914  -0.81949  -0.81436
 Alpha  occ. eigenvalues --   -0.80850  -0.79850  -0.79441  -0.78952  -0.78627
 Alpha  occ. eigenvalues --   -0.77712  -0.76651  -0.76159  -0.75710  -0.73342
 Alpha  occ. eigenvalues --   -0.73023  -0.72746  -0.71879  -0.71802  -0.70811
 Alpha  occ. eigenvalues --   -0.70578  -0.70285  -0.69725  -0.68972  -0.67906
 Alpha  occ. eigenvalues --   -0.67324  -0.66438  -0.66173  -0.65202  -0.63625
 Alpha  occ. eigenvalues --   -0.63405  -0.61990  -0.61278  -0.60558  -0.60349
 Alpha  occ. eigenvalues --   -0.60036  -0.58926  -0.58440  -0.58331  -0.57908
 Alpha  occ. eigenvalues --   -0.57675  -0.57099  -0.55857  -0.55645  -0.54846
 Alpha  occ. eigenvalues --   -0.54446  -0.54203  -0.53982  -0.53234  -0.52823
 Alpha  occ. eigenvalues --   -0.52595  -0.51865  -0.51544  -0.51353  -0.51220
 Alpha  occ. eigenvalues --   -0.50634  -0.50367  -0.50234  -0.49892  -0.49567
 Alpha  occ. eigenvalues --   -0.48750  -0.48658  -0.48462  -0.48273  -0.48169
 Alpha  occ. eigenvalues --   -0.47898  -0.47656  -0.47561  -0.47495  -0.47125
 Alpha  occ. eigenvalues --   -0.46806  -0.46572  -0.46530  -0.46167  -0.45904
 Alpha  occ. eigenvalues --   -0.45614  -0.45359  -0.45197  -0.45071  -0.44972
 Alpha  occ. eigenvalues --   -0.44463  -0.44401  -0.44161  -0.43989  -0.43879
 Alpha  occ. eigenvalues --   -0.43600  -0.43250  -0.43048  -0.42888  -0.42816
 Alpha  occ. eigenvalues --   -0.42685  -0.42377  -0.42195  -0.41917  -0.41810
 Alpha  occ. eigenvalues --   -0.41543  -0.41177  -0.41152  -0.40862  -0.40734
 Alpha  occ. eigenvalues --   -0.40677  -0.40445  -0.40301  -0.40031  -0.39869
 Alpha  occ. eigenvalues --   -0.39471  -0.39349  -0.39257  -0.39197  -0.39118
 Alpha  occ. eigenvalues --   -0.38954  -0.38828  -0.38659  -0.38358  -0.38282
 Alpha  occ. eigenvalues --   -0.38022  -0.37720  -0.37457  -0.37324  -0.37076
 Alpha  occ. eigenvalues --   -0.36926  -0.36590  -0.36271  -0.36200  -0.35944
 Alpha  occ. eigenvalues --   -0.35870  -0.35764  -0.35330  -0.35321  -0.34884
 Alpha  occ. eigenvalues --   -0.34592  -0.34558  -0.33842  -0.33676  -0.33530
 Alpha  occ. eigenvalues --   -0.33133  -0.33008  -0.32938  -0.32850  -0.32605
 Alpha  occ. eigenvalues --   -0.32348  -0.31954  -0.31328  -0.30180  -0.29922
 Alpha  occ. eigenvalues --   -0.29441  -0.29424  -0.29322  -0.28096  -0.27177
 Alpha  occ. eigenvalues --   -0.26772  -0.26449  -0.25703  -0.25395  -0.21642
 Alpha  occ. eigenvalues --   -0.19508
 Alpha virt. eigenvalues --   -0.07057  -0.03287  -0.00495   0.02276   0.02660
 Alpha virt. eigenvalues --    0.03782   0.04352   0.04883   0.05547   0.05760
 Alpha virt. eigenvalues --    0.06295   0.08324   0.09513   0.09725   0.09790

 Mulliken charges:
               1
     1  Mg   0.807911
     2  C    0.078264
     3  C   -0.175349
     4  C   -0.162577
     5  C   -0.181819
     6  N   -0.614850
     7  C    0.325857
     8  C   -0.146815
     9  C   -0.126124
    10  C    0.323129
    11  C   -0.311881
    12  C   -0.172861
    13  C   -0.261592
    14  C    0.587828
    15  O   -0.503420
    16  O   -0.464631
    17  N   -0.722241
    18  C    0.329781
    19  C   -0.008949
    20  C    0.015644
    21  C    0.263303
    22  C   -0.374606
    23  C   -0.047034
    24  C   -0.262795
    25  N   -0.696688
    26  C    0.288989
    27  C    0.055230
    28  C   -0.001310
    29  C    0.349400
    30  C   -0.397240
    31  C   -0.255208
    32  C   -0.277709
    33  N   -0.742925
    34  C    0.259155
    35  C    0.088262
    36  C   -0.021399
    37  C    0.353712
    38  C   -0.384781
    39  C    0.368346
    40  O   -0.480739
    41  C   -0.352646
    42  C    0.632770
    43  O   -0.478972
    44  O   -0.433893
    45  C   -0.095402
    46  C   -0.006972
    47  C   -0.114945
    48  C    0.126507
    49  C   -0.362769
    50  C   -0.240266
    51  C   -0.167861
    52  C   -0.144897
    53  C   -0.069135
    54  C   -0.319676
    55  C   -0.157395
    56  C   -0.174821
    57  C   -0.167043
    58  C   -0.067617
    59  C   -0.310469
    60  C   -0.166828
    61  C   -0.159796
    62  C   -0.152926
    63  C   -0.056836
    64  C   -0.313126
    65  C   -0.305038
    66  H    0.068009
    67  H    0.078344
    68  H    0.083691
    69  H    0.110659
    70  H    0.124322
    71  H    0.106122
    72  H    0.093467
    73  H    0.108263
    74  H    0.115280
    75  H    0.108238
    76  H    0.133945
    77  H    0.134822
    78  H    0.131204
    79  H    0.133012
    80  H    0.108160
    81  H    0.094564
    82  H    0.104660
    83  H    0.098866
    84  H    0.118532
    85  H    0.110793
    86  H    0.129200
    87  H    0.111631
    88  H    0.083481
    89  H    0.112649
    90  H    0.116833
    91  H    0.084859
    92  H    0.125869
    93  H    0.150942
    94  H    0.090289
    95  H    0.131589
    96  H    0.119937
    97  H    0.124476
    98  H    0.122699
    99  H    0.148685
   100  H    0.131480
   101  H    0.101258
   102  H    0.112141
   103  H    0.106093
   104  H    0.125837
   105  H    0.100730
   106  H    0.097616
   107  H    0.110406
   108  H    0.088962
   109  H    0.087309
   110  H    0.072309
   111  H    0.057694
   112  H    0.096574
   113  H    0.088337
   114  H    0.115631
   115  H    0.100067
   116  H    0.089811
   117  H    0.103521
   118  H    0.082911
   119  H    0.092630
   120  H    0.054275
   121  H    0.081780
   122  H    0.078921
   123  H    0.108230
   124  H    0.096422
   125  H    0.067533
   126  H    0.087437
   127  H    0.095873
   128  H    0.105697
   129  H    0.041374
   130  H    0.087658
   131  H    0.090766
   132  H    0.099974
   133  H    0.103851
   134  H    0.073496
   135  H    0.096750
   136  H    0.104782
   137  H    0.106555
 Sum of Mulliken charges =  -0.00000

 Dipole moment (field-independent basis, Debye):
    X=              2.6520    Y=              4.7895    Z=             -0.3389  Tot=              5.4852
 Quadrupole moment (field-independent basis, Debye-Ang):
   XX=           -321.8976   YY=           -400.7114   ZZ=           -396.5761
   XY=            -27.5665   XZ=              9.7629   YZ=              0.7767

 Normal termination of Gaussian 16 at Sat Sep 14 13:17:10 2019.
