 Gaussian 16, Revision A.03,
 Gaussian 16:  ES64L-G16RevA.03 25-Dec-2016

 ----------------------------------------------------------------------
 # td=(NStates=1) iop(3/107=0140000000,3/108=0140000000) CAM-B3LYP/6-31
 G(d,p)
 ----------------------------------------------------------------------

 --
 TD
 --
 Symbolic Z-matrix:
 Charge =  0 Multiplicity = 1

                         Standard orientation:
 ---------------------------------------------------------------------
 Center     Atomic      Atomic             Coordinates (Angstroms)
 Number     Number       Type             X           Y           Z
 ---------------------------------------------------------------------
      1         12           0       -7.142058    0.603605    0.110848
      2          6           0       -4.925306   -1.970843    0.575905
      3          6           0       -4.789039    2.831521    1.236562
      4          6           0       -9.431015    3.132828   -0.429961
      5          6           0       -9.495039   -1.758041   -0.911269
      6          7           0       -5.082091    0.414321    0.713784
      7          6           0       -4.349215   -0.730646    0.822407
      8          6           0       -2.979177   -0.334300    1.250176
      9          6           0       -3.029991    1.103877    1.595461
     10          6           0       -4.389945    1.463299    1.132000
     11          6           0       -2.717929    1.359659    3.080687
     12          6           0       -1.956113   -0.685371    0.148909
     13          6           0       -0.489669   -0.625077    0.554395
     14          6           0        0.444585   -0.764030   -0.487675
     15          8           0        0.230581   -1.285837   -1.613934
     16          8           0        1.770934   -0.557684   -0.122845
     17          7           0       -7.117831    2.601829    0.221966
     18          6           0       -6.063261    3.345022    0.757260
     19          6           0       -6.394169    4.684143    0.908585
     20          6           0       -7.657681    4.896242    0.414815
     21          6           0       -8.149613    3.545207    0.071515
     22          6           0       -5.332786    5.865921    1.165583
     23          6           0       -8.466448    6.017279    0.332042
     24          6           0       -8.334385    7.297368    0.757184
     25          7           0       -9.105606    0.646968   -0.596561
     26          6           0       -9.778310    1.789903   -0.749572
     27          6           0      -11.103809    1.467047   -1.193736
     28          6           0      -11.254614    0.121586   -1.305287
     29          6           0       -9.849312   -0.369166   -0.917252
     30          6           0      -12.176260    2.524270   -1.539237
     31          6           0      -12.433220   -0.721705   -1.850573
     32          6           0      -12.110098   -0.909410   -3.390847
     33          7           0       -7.252675   -1.320400   -0.187139
     34          6           0       -8.288660   -2.188717   -0.545169
     35          6           0       -7.876411   -3.466849   -0.629729
     36          6           0       -6.492858   -3.514701   -0.217310
     37          6           0       -6.232360   -2.155221    0.075509
     38          6           0       -8.660306   -4.716370   -0.942323
     39          6           0       -5.393562   -4.266522    0.267032
     40          8           0       -5.088791   -5.547070    0.213724
     41          6           0       -4.223346   -3.347343    0.614358
     42          6           0       -3.675584   -3.668585    1.970023
     43          8           0       -3.878136   -3.159132    3.004614
     44          8           0       -2.832634   -4.733276    1.833586
     45          6           0       -2.297442   -5.040131    3.132542
     46          6           0        2.788279   -0.916262   -1.105770
     47          6           0        4.085887   -0.556426   -0.425806
     48          6           0        5.079716    0.207085   -0.907648
     49          6           0        5.185230    0.919932   -2.264262
     50          6           0        6.411786    0.438290   -0.153071
     51          6           0        7.522216   -0.211785   -0.906977
     52          6           0        8.879435   -0.073137   -0.172932
     53          6           0       10.137560   -0.669317   -0.888435
     54          6           0       10.076724   -2.197299   -1.052475
     55          6           0       11.421701   -0.264231   -0.005415
     56          6           0       12.746356   -0.522726   -0.658051
     57          6           0       13.857993   -0.022766    0.136142
     58          6           0       15.323323   -0.157490   -0.414041
     59          6           0       15.602551   -1.611502   -0.909764
     60          6           0       16.419239    0.459532    0.331748
     61          6           0       17.792528    0.600053   -0.258841
     62          6           0       18.827493    1.369031    0.688055
     63          6           0       20.252613    1.430629    0.098606
     64          6           0       20.341985    2.167098   -1.185361
     65          6           0       21.137447    2.011150    1.220526
     66          1           0       -4.072129    3.498285    1.584753
     67          1           0      -10.126888    3.978670   -0.644525
     68          1           0      -10.096902   -2.560952   -1.309929
     69          1           0       -2.713213   -0.997036    2.224724
     70          1           0       -2.171824    1.390241    0.968238
     71          1           0       -1.677379    1.261276    3.390419
     72          1           0       -2.847257    2.457569    3.376233
     73          1           0       -3.447629    0.803281    3.873607
     74          1           0       -2.232722   -1.654356   -0.085253
     75          1           0       -2.132204   -0.033548   -0.643444
     76          1           0       -0.006848    0.417088    0.982759
     77          1           0       -0.147892   -1.531059    1.352714
     78          1           0       -5.494198    6.558576    0.444910
     79          1           0       -5.500570    6.390046    2.175482
     80          1           0       -4.340674    5.379119    1.114365
     81          1           0       -9.379495    5.972478   -0.386162
     82          1           0       -9.057973    7.984544    0.530391
     83          1           0       -7.695204    7.576224    1.676363
     84          1           0      -11.675769    3.110030   -2.330848
     85          1           0      -13.147689    2.146479   -1.956222
     86          1           0      -12.535222    3.156324   -0.790280
     87          1           0      -12.644166   -1.518578   -1.215344
     88          1           0      -13.344313   -0.189835   -1.804596
     89          1           0      -12.848125   -1.523918   -3.883813
     90          1           0      -11.930185    0.048686   -3.889332
     91          1           0      -11.052297   -1.330409   -3.467525
     92          1           0       -8.774454   -4.701222   -2.046952
     93          1           0       -7.854065   -5.508465   -0.640536
     94          1           0       -9.511832   -4.826333   -0.275917
     95          1           0       -3.402020   -3.365275   -0.157341
     96          1           0       -1.457038   -4.344235    3.631483
     97          1           0       -2.908990   -5.276815    3.965359
     98          1           0       -1.729707   -5.788632    2.867287
     99          1           0        2.892670   -1.796874   -1.299679
    100          1           0        2.730750   -0.381092   -1.942261
    101          1           0        4.461060   -1.055422    0.574026
    102          1           0        4.133951    1.096183   -2.585842
    103          1           0        5.394042    1.875447   -1.977555
    104          1           0        6.126835    0.377844   -2.851241
    105          1           0        6.558944    1.532368   -0.281464
    106          1           0        6.176873   -0.206192    0.749930
    107          1           0        7.191414   -1.132226   -1.172598
    108          1           0        7.556554    0.294237   -1.961148
    109          1           0        8.920004    1.059170    0.168666
    110          1           0        8.895443   -0.684903    0.852820
    111          1           0       10.289707   -0.143306   -1.923135
    112          1           0        9.087859   -2.413111   -1.584740
    113          1           0       10.843646   -2.753201   -1.456584
    114          1           0        9.730095   -2.823606   -0.049670
    115          1           0       11.251236    0.718694    0.369645
    116          1           0       11.186967   -0.961546    0.962224
    117          1           0       12.828258   -1.678961   -0.871496
    118          1           0       12.714562   -0.047885   -1.787846
    119          1           0       13.660236    1.154354    0.149380
    120          1           0       13.969801   -0.380050    0.958376
    121          1           0       15.330900    0.402835   -1.430773
    122          1           0       15.743664   -2.282087   -0.084800
    123          1           0       14.778573   -1.986569   -1.413144
    124          1           0       16.401712   -1.782629   -1.714914
    125          1           0       16.161922    1.610257    0.395366
    126          1           0       16.638595    0.089749    1.404594
    127          1           0       18.208665   -0.441462   -0.679697
    128          1           0       17.616857    1.411986   -1.047598
    129          1           0       18.476790    2.360330    0.704269
    130          1           0       18.975230    0.760300    1.699587
    131          1           0       20.682531    0.450408    0.030326
    132          1           0       19.899931    3.219924   -0.976132
    133          1           0       21.542801    2.337255   -1.481248
    134          1           0       19.504696    1.686814   -1.855627
    135          1           0       21.363760    1.262644    1.993022
    136          1           0       22.106854    2.220957    0.828090
    137          1           0       20.692685    3.000795    1.526679
 ---------------------------------------------------------------------

 SCF Done:  E(RCAM-B3LYP) =  -2933.44092167     A.U. after   16 cycles

 Excitation energies and oscillator strengths:

 Excited State   1:      Singlet-A      2.0091 eV  617.10 nm  f=0.2499  <S**2>=0.000
     240 -> 243       -0.23382
     241 -> 242        0.66126
 This state for optimization and/or second-order correction.
 Total Energy, E(TD-HF/TD-DFT) =  -2933.36708692
 Copying the excited state density for this state as the 1-particle RhoCI density.

 The electronic state is 1-A.
 Alpha  occ. eigenvalues --  -46.79930 -19.21711 -19.21242 -19.17147 -19.15851
 Alpha  occ. eigenvalues --  -19.14456 -14.37989 -14.35965 -14.35578 -14.35165
 Alpha  occ. eigenvalues --  -10.34217 -10.33815 -10.29965 -10.26602 -10.26308
 Alpha  occ. eigenvalues --  -10.26239 -10.26008 -10.25726 -10.25381 -10.25058
 Alpha  occ. eigenvalues --  -10.25035 -10.24926 -10.24815 -10.24161 -10.23971
 Alpha  occ. eigenvalues --  -10.23600 -10.23485 -10.23443 -10.23408 -10.23333
 Alpha  occ. eigenvalues --  -10.23320 -10.23229 -10.23019 -10.22891 -10.22778
 Alpha  occ. eigenvalues --  -10.22772 -10.22695 -10.22581 -10.22487 -10.22436
 Alpha  occ. eigenvalues --  -10.22409 -10.22380 -10.22309 -10.22190 -10.22107
 Alpha  occ. eigenvalues --  -10.22060 -10.22040 -10.21996 -10.21959 -10.21941
 Alpha  occ. eigenvalues --  -10.21841 -10.21712 -10.21628 -10.21619 -10.21559
 Alpha  occ. eigenvalues --  -10.21500 -10.21492 -10.21427 -10.21386 -10.21359
 Alpha  occ. eigenvalues --  -10.21122 -10.20516 -10.19824 -10.19638 -10.19400
 Alpha  occ. eigenvalues --   -3.08692  -1.83621  -1.83155  -1.83125  -1.14179
 Alpha  occ. eigenvalues --   -1.10859  -1.05470  -1.01512  -1.01198  -1.00614
 Alpha  occ. eigenvalues --   -1.00211  -0.98975  -0.97624  -0.88204  -0.86850
 Alpha  occ. eigenvalues --   -0.86352  -0.85783  -0.84529  -0.84316  -0.84104
 Alpha  occ. eigenvalues --   -0.83408  -0.83180  -0.83031  -0.82735  -0.82206
 Alpha  occ. eigenvalues --   -0.80716  -0.79827  -0.79221  -0.78959  -0.77411
 Alpha  occ. eigenvalues --   -0.76967  -0.76599  -0.76023  -0.75324  -0.74321
 Alpha  occ. eigenvalues --   -0.73374  -0.72260  -0.71859  -0.71444  -0.71091
 Alpha  occ. eigenvalues --   -0.70828  -0.70487  -0.69861  -0.69386  -0.68870
 Alpha  occ. eigenvalues --   -0.68199  -0.67751  -0.66390  -0.65216  -0.64470
 Alpha  occ. eigenvalues --   -0.63392  -0.62198  -0.61559  -0.61011  -0.60669
 Alpha  occ. eigenvalues --   -0.60031  -0.59122  -0.58212  -0.58207  -0.57707
 Alpha  occ. eigenvalues --   -0.56877  -0.56790  -0.56696  -0.55865  -0.55353
 Alpha  occ. eigenvalues --   -0.54397  -0.54317  -0.54181  -0.53553  -0.53316
 Alpha  occ. eigenvalues --   -0.51914  -0.51731  -0.51661  -0.51633  -0.51186
 Alpha  occ. eigenvalues --   -0.50786  -0.50679  -0.50307  -0.49735  -0.49588
 Alpha  occ. eigenvalues --   -0.49282  -0.48960  -0.48485  -0.48425  -0.48204
 Alpha  occ. eigenvalues --   -0.47966  -0.47594  -0.47387  -0.47129  -0.46815
 Alpha  occ. eigenvalues --   -0.46710  -0.46616  -0.46375  -0.46217  -0.45727
 Alpha  occ. eigenvalues --   -0.45704  -0.45558  -0.45304  -0.45203  -0.44705
 Alpha  occ. eigenvalues --   -0.44599  -0.44442  -0.44236  -0.43959  -0.43699
 Alpha  occ. eigenvalues --   -0.43660  -0.43384  -0.43198  -0.43132  -0.42845
 Alpha  occ. eigenvalues --   -0.42725  -0.42559  -0.42189  -0.42064  -0.41797
 Alpha  occ. eigenvalues --   -0.41537  -0.41468  -0.41364  -0.41003  -0.40773
 Alpha  occ. eigenvalues --   -0.40519  -0.40400  -0.40061  -0.39927  -0.39509
 Alpha  occ. eigenvalues --   -0.39384  -0.39246  -0.39112  -0.38933  -0.38884
 Alpha  occ. eigenvalues --   -0.38681  -0.38467  -0.38264  -0.38079  -0.37828
 Alpha  occ. eigenvalues --   -0.37704  -0.37638  -0.37443  -0.37305  -0.37083
 Alpha  occ. eigenvalues --   -0.36915  -0.36859  -0.36830  -0.36542  -0.36420
 Alpha  occ. eigenvalues --   -0.36125  -0.35795  -0.35274  -0.34937  -0.34730
 Alpha  occ. eigenvalues --   -0.34645  -0.34108  -0.33936  -0.33916  -0.33536
 Alpha  occ. eigenvalues --   -0.33188  -0.33141  -0.32697  -0.32659  -0.32372
 Alpha  occ. eigenvalues --   -0.32196  -0.32100  -0.31315  -0.30942  -0.30914
 Alpha  occ. eigenvalues --   -0.30620  -0.30479  -0.29279  -0.28459  -0.27156
 Alpha  occ. eigenvalues --   -0.26971  -0.26353  -0.25737  -0.25272  -0.21893
 Alpha  occ. eigenvalues --   -0.20611
 Alpha virt. eigenvalues --   -0.07931  -0.04273  -0.01212   0.01656   0.01964
 Alpha virt. eigenvalues --    0.03880   0.04547   0.04943   0.05029   0.05501
 Alpha virt. eigenvalues --    0.06235   0.08946   0.08973   0.09260   0.09561

 Mulliken charges:
               1
     1  Mg   0.818440
     2  C    0.042242
     3  C   -0.166186
     4  C   -0.173390
     5  C   -0.176737
     6  N   -0.638069
     7  C    0.316762
     8  C   -0.192755
     9  C   -0.119339
    10  C    0.346068
    11  C   -0.317671
    12  C   -0.160391
    13  C   -0.253909
    14  C    0.611612
    15  O   -0.497277
    16  O   -0.500957
    17  N   -0.707736
    18  C    0.318837
    19  C   -0.029728
    20  C    0.098840
    21  C    0.263676
    22  C   -0.358699
    23  C   -0.108954
    24  C   -0.248099
    25  N   -0.675184
    26  C    0.333405
    27  C    0.013840
    28  C   -0.010501
    29  C    0.267206
    30  C   -0.382481
    31  C   -0.224621
    32  C   -0.318562
    33  N   -0.764451
    34  C    0.356586
    35  C   -0.035077
    36  C    0.062810
    37  C    0.303538
    38  C   -0.377734
    39  C    0.326506
    40  O   -0.521161
    41  C   -0.304451
    42  C    0.638163
    43  O   -0.444604
    44  O   -0.440386
    45  C   -0.085438
    46  C    0.080826
    47  C   -0.163733
    48  C    0.080659
    49  C   -0.354358
    50  C   -0.201539
    51  C   -0.171524
    52  C   -0.157377
    53  C   -0.055248
    54  C   -0.306304
    55  C   -0.155188
    56  C   -0.165426
    57  C   -0.117719
    58  C   -0.060533
    59  C   -0.331074
    60  C   -0.147893
    61  C   -0.182341
    62  C   -0.149306
    63  C   -0.049043
    64  C   -0.292655
    65  C   -0.310212
    66  H    0.075888
    67  H    0.093195
    68  H    0.096177
    69  H    0.113703
    70  H    0.107153
    71  H    0.118143
    72  H    0.096447
    73  H    0.111792
    74  H    0.124625
    75  H    0.126612
    76  H    0.120745
    77  H    0.140458
    78  H    0.143789
    79  H    0.112001
    80  H    0.109648
    81  H    0.079508
    82  H    0.104970
    83  H    0.091283
    84  H    0.118427
    85  H    0.105054
    86  H    0.126542
    87  H    0.112682
    88  H    0.109488
    89  H    0.108033
    90  H    0.120547
    91  H    0.103269
    92  H    0.133265
    93  H    0.146948
    94  H    0.132310
    95  H    0.172791
    96  H    0.079786
    97  H    0.140928
    98  H    0.123857
    99  H    0.130007
   100  H    0.115774
   101  H    0.064581
   102  H    0.105337
   103  H    0.126334
   104  H    0.119166
   105  H    0.103331
   106  H    0.093190
   107  H    0.109518
   108  H    0.071105
   109  H    0.080432
   110  H    0.075990
   111  H    0.072665
   112  H    0.095696
   113  H    0.124160
   114  H    0.071335
   115  H    0.094001
   116  H    0.064625
   117  H    0.082580
   118  H    0.067259
   119  H    0.073158
   120  H    0.101175
   121  H    0.064005
   122  H    0.099239
   123  H    0.109084
   124  H    0.093453
   125  H    0.067035
   126  H    0.070723
   127  H    0.077761
   128  H    0.082045
   129  H    0.096605
   130  H    0.076767
   131  H    0.089477
   132  H    0.081925
   133  H    0.084777
   134  H    0.105749
   135  H    0.100865
   136  H    0.093325
   137  H    0.091688
 Sum of Mulliken charges =  -0.00000

 Dipole moment (field-independent basis, Debye):
    X=             -0.1978    Y=              5.2648    Z=              0.4895  Tot=              5.2912
 Quadrupole moment (field-independent basis, Debye-Ang):
   XX=           -339.9458   YY=           -405.1556   ZZ=           -399.4004
   XY=            -28.6212   XZ=             12.0840   YZ=             -1.7515

 Normal termination of Gaussian 16 at Tue Sep 24 11:37:06 2019.
