 Gaussian 16, Revision A.03,
 Gaussian 16:  ES64L-G16RevA.03 25-Dec-2016

 ----------------------------------------------------------------------
 # td=(NStates=1) iop(3/107=0140000000,3/108=0140000000) CAM-B3LYP/6-31
 G(d,p)
 ----------------------------------------------------------------------

 --
 TD
 --
 Symbolic Z-matrix:
 Charge =  0 Multiplicity = 1

                         Standard orientation:
 ---------------------------------------------------------------------
 Center     Atomic      Atomic             Coordinates (Angstroms)
 Number     Number       Type             X           Y           Z
 ---------------------------------------------------------------------
      1         12           0       -7.034011    0.699720    0.034007
      2          6           0       -4.920971   -1.954218    0.561840
      3          6           0       -4.776625    2.879702    1.191685
      4          6           0       -9.384910    3.132609   -0.517153
      5          6           0       -9.463817   -1.663898   -1.015927
      6          7           0       -5.196400    0.475388    0.818877
      7          6           0       -4.429791   -0.638342    0.865267
      8          6           0       -3.020647   -0.385543    1.379827
      9          6           0       -3.112576    1.109082    1.785796
     10          6           0       -4.449793    1.550217    1.230154
     11          6           0       -3.072845    1.166954    3.361218
     12          6           0       -2.027546   -0.602026    0.217236
     13          6           0       -0.588960   -0.323064    0.437007
     14          6           0        0.378560   -0.737206   -0.763524
     15          8           0        0.028860   -1.095329   -1.763967
     16          8           0        1.669703   -0.588854   -0.299600
     17          7           0       -7.048667    2.708656    0.246721
     18          6           0       -5.997273    3.393701    0.802554
     19          6           0       -6.378212    4.818990    0.870531
     20          6           0       -7.720657    4.890190    0.348787
     21          6           0       -8.137405    3.521830   -0.086941
     22          6           0       -5.558921    6.007371    1.236612
     23          6           0       -8.585563    6.056537    0.083209
     24          6           0       -8.452297    7.269422    0.630048
     25          7           0       -9.036309    0.733475   -0.566434
     26          6           0       -9.851826    1.818375   -0.704596
     27          6           0      -11.158215    1.430834   -1.187418
     28          6           0      -11.204408    0.066128   -1.293032
     29          6           0       -9.839557   -0.367544   -1.001578
     30          6           0      -12.328657    2.335154   -1.471901
     31          6           0      -12.224818   -0.804330   -1.840965
     32          6           0      -12.164828   -1.138838   -3.286929
     33          7           0       -7.132171   -1.428208   -0.088838
     34          6           0       -8.305132   -2.163811   -0.503899
     35          6           0       -7.826057   -3.504366   -0.431220
     36          6           0       -6.541345   -3.552260    0.109721
     37          6           0       -6.202595   -2.165395    0.236507
     38          6           0       -8.571370   -4.769869   -0.819812
     39          6           0       -5.372053   -4.301808    0.432255
     40          8           0       -5.200630   -5.569780    0.439140
     41          6           0       -4.170352   -3.230669    0.599375
     42          6           0       -3.505671   -3.638053    1.884873
     43          8           0       -3.849443   -3.156976    3.040177
     44          8           0       -2.566407   -4.678526    1.736804
     45          6           0       -2.049853   -5.139352    3.029762
     46          6           0        2.711188   -0.791674   -1.239218
     47          6           0        4.120309   -0.669423   -0.532342
     48          6           0        5.181975    0.093309   -1.157969
     49          6           0        5.155146    0.849748   -2.398997
     50          6           0        6.462168    0.117317   -0.246321
     51          6           0        7.723510   -0.345951   -1.143945
     52          6           0        8.926607   -0.300109   -0.181491
     53          6           0       10.200634   -0.587181   -1.031112
     54          6           0       10.303628   -2.124451   -1.556307
     55          6           0       11.454402   -0.249898   -0.122203
     56          6           0       12.814201   -0.561044   -0.685917
     57          6           0       13.929695   -0.122470    0.137022
     58          6           0       15.325194   -0.238527   -0.448912
     59          6           0       15.675465   -1.641626   -0.722014
     60          6           0       16.431649    0.380950    0.467458
     61          6           0       17.779135    0.732394   -0.262093
     62          6           0       18.696194    1.451225    0.740758
     63          6           0       20.183260    1.538343    0.389345
     64          6           0       20.318425    2.214764   -1.039104
     65          6           0       21.182753    2.197490    1.455899
     66          1           0       -4.120359    3.388091    1.847862
     67          1           0      -10.231613    3.789229   -0.837939
     68          1           0      -10.330098   -2.263141   -1.155296
     69          1           0       -2.740697   -0.935357    2.284322
     70          1           0       -2.158529    1.661973    1.426833
     71          1           0       -2.037395    0.868303    3.763830
     72          1           0       -3.576245    2.089500    3.701750
     73          1           0       -3.751234    0.603553    3.874394
     74          1           0       -2.069445   -1.470321   -0.172672
     75          1           0       -2.458488    0.253337   -0.450816
     76          1           0       -0.383859    0.693208    0.527322
     77          1           0       -0.249861   -0.778740    1.459455
     78          1           0       -5.857051    6.759106    0.514740
     79          1           0       -5.627816    6.290503    2.229587
     80          1           0       -4.452009    5.769859    1.104731
     81          1           0       -9.464743    6.055242   -0.496019
     82          1           0       -9.215045    8.154809    0.436301
     83          1           0       -7.831986    7.550059    1.549401
     84          1           0      -11.891188    3.011140   -2.183866
     85          1           0      -13.118273    1.715862   -1.715361
     86          1           0      -12.637552    2.900865   -0.528974
     87          1           0      -12.081557   -1.932972   -1.246422
     88          1           0      -13.366086   -0.523371   -1.437103
     89          1           0      -12.891704   -1.799753   -3.672747
     90          1           0      -12.174428   -0.110075   -4.025978
     91          1           0      -11.256753   -1.764124   -3.504753
     92          1           0       -8.958387   -4.719063   -1.690366
     93          1           0       -7.896007   -5.782431   -0.937570
     94          1           0       -9.451826   -5.122274   -0.229360
     95          1           0       -3.543083   -3.328672   -0.169634
     96          1           0       -1.468702   -4.332533    3.341126
     97          1           0       -2.926801   -5.363040    3.697529
     98          1           0       -1.530560   -6.130122    2.829552
     99          1           0        2.675517   -1.884549   -1.540680
    100          1           0        2.547300   -0.205438   -2.172838
    101          1           0        4.183054   -1.243555    0.323538
    102          1           0        4.153662    0.825360   -3.077638
    103          1           0        5.471530    1.909593   -2.352209
    104          1           0        5.972340    0.553417   -2.824069
    105          1           0        6.780263    1.255697    0.085716
    106          1           0        6.347078   -0.360074    0.591567
    107          1           0        7.415706   -1.357601   -1.533969
    108          1           0        7.972292    0.314613   -1.922682
    109          1           0        8.977466    0.703451    0.365879
    110          1           0        8.576895   -0.851655    0.602822
    111          1           0       10.216588    0.045116   -1.896188
    112          1           0        9.194738   -2.273948   -1.998329
    113          1           0       11.157078   -2.199727   -2.281900
    114          1           0       10.404364   -2.766613   -0.638620
    115          1           0       11.492922    0.873157    0.151910
    116          1           0       11.367437   -0.985445    0.903317
    117          1           0       12.888020   -1.706228   -0.822426
    118          1           0       12.918195   -0.164869   -1.777252
    119          1           0       13.880751    0.922192    0.383982
    120          1           0       14.151533   -0.684972    1.204405
    121          1           0       15.177114    0.437736   -1.380246
    122          1           0       15.494124   -2.178313    0.350971
    123          1           0       15.251011   -2.309605   -1.520611
    124          1           0       16.793094   -1.661588   -0.893646
    125          1           0       16.059760    1.407672    0.880957
    126          1           0       16.440665   -0.185105    1.366058
    127          1           0       18.491515   -0.246958   -0.512364
    128          1           0       17.673906    1.417431   -1.224784
    129          1           0       18.435199    2.481937    1.004475
    130          1           0       18.537995    1.022135    1.694045
    131          1           0       20.625246    0.520007    0.341547
    132          1           0       19.899902    3.260892   -1.077634
    133          1           0       21.504796    2.368856   -1.528118
    134          1           0       19.800351    1.740046   -1.884258
    135          1           0       21.003566    1.690869    2.381357
    136          1           0       22.126211    2.097879    1.072464
    137          1           0       20.985191    3.255316    1.769371
 ---------------------------------------------------------------------

 SCF Done:  E(RCAM-B3LYP) =  -2933.47144282     A.U. after   16 cycles

 Excitation energies and oscillator strengths:

 Excited State   1:      Singlet-A      2.0644 eV  600.59 nm  f=0.2866  <S**2>=0.000
     240 -> 243       -0.23726
     241 -> 242        0.66073
 This state for optimization and/or second-order correction.
 Total Energy, E(TD-HF/TD-DFT) =  -2933.39557878
 Copying the excited state density for this state as the 1-particle RhoCI density.

 The electronic state is 1-A.
 Alpha  occ. eigenvalues --  -46.79805 -19.21588 -19.20965 -19.18094 -19.15934
 Alpha  occ. eigenvalues --  -19.15115 -14.38185 -14.35668 -14.35529 -14.34338
 Alpha  occ. eigenvalues --  -10.34688 -10.34277 -10.30226 -10.27410 -10.26765
 Alpha  occ. eigenvalues --  -10.26600 -10.26285 -10.26169 -10.25956 -10.25555
 Alpha  occ. eigenvalues --  -10.24933 -10.24753 -10.24446 -10.24331 -10.24055
 Alpha  occ. eigenvalues --  -10.23869 -10.23811 -10.23578 -10.23512 -10.23395
 Alpha  occ. eigenvalues --  -10.23279 -10.22860 -10.22843 -10.22741 -10.22732
 Alpha  occ. eigenvalues --  -10.22702 -10.22655 -10.22613 -10.22516 -10.22507
 Alpha  occ. eigenvalues --  -10.22407 -10.22398 -10.22395 -10.22285 -10.22161
 Alpha  occ. eigenvalues --  -10.22126 -10.21992 -10.21905 -10.21850 -10.21830
 Alpha  occ. eigenvalues --  -10.21664 -10.21610 -10.21522 -10.21517 -10.21480
 Alpha  occ. eigenvalues --  -10.21386 -10.21378 -10.21160 -10.21112 -10.20817
 Alpha  occ. eigenvalues --  -10.20730 -10.20662 -10.20259 -10.20227 -10.19840
 Alpha  occ. eigenvalues --   -3.08457  -1.83405  -1.82943  -1.82843  -1.15644
 Alpha  occ. eigenvalues --   -1.09097  -1.07284  -1.01984  -1.00599  -1.00033
 Alpha  occ. eigenvalues --   -0.99375  -0.97622  -0.96622  -0.88119  -0.85917
 Alpha  occ. eigenvalues --   -0.85422  -0.85297  -0.85117  -0.84182  -0.83739
 Alpha  occ. eigenvalues --   -0.83475  -0.83161  -0.82681  -0.82458  -0.80778
 Alpha  occ. eigenvalues --   -0.79910  -0.79421  -0.79312  -0.78398  -0.77339
 Alpha  occ. eigenvalues --   -0.76806  -0.76513  -0.75772  -0.75245  -0.73777
 Alpha  occ. eigenvalues --   -0.73443  -0.72350  -0.71652  -0.71494  -0.71127
 Alpha  occ. eigenvalues --   -0.70707  -0.69488  -0.69137  -0.68963  -0.68283
 Alpha  occ. eigenvalues --   -0.67737  -0.65879  -0.65392  -0.64324  -0.63954
 Alpha  occ. eigenvalues --   -0.62674  -0.62169  -0.61696  -0.61312  -0.60511
 Alpha  occ. eigenvalues --   -0.60037  -0.58566  -0.58472  -0.58048  -0.57753
 Alpha  occ. eigenvalues --   -0.57173  -0.56963  -0.56506  -0.55907  -0.55375
 Alpha  occ. eigenvalues --   -0.55312  -0.54465  -0.54018  -0.53509  -0.53394
 Alpha  occ. eigenvalues --   -0.52612  -0.51838  -0.51352  -0.51233  -0.50908
 Alpha  occ. eigenvalues --   -0.50493  -0.50252  -0.49705  -0.49504  -0.49300
 Alpha  occ. eigenvalues --   -0.49134  -0.48894  -0.48596  -0.48337  -0.48167
 Alpha  occ. eigenvalues --   -0.47864  -0.47713  -0.47352  -0.46718  -0.46599
 Alpha  occ. eigenvalues --   -0.46523  -0.46222  -0.46086  -0.45974  -0.45790
 Alpha  occ. eigenvalues --   -0.45616  -0.45500  -0.45190  -0.45077  -0.44941
 Alpha  occ. eigenvalues --   -0.44865  -0.44564  -0.44303  -0.44132  -0.44090
 Alpha  occ. eigenvalues --   -0.43727  -0.43520  -0.43069  -0.42691  -0.42450
 Alpha  occ. eigenvalues --   -0.42393  -0.42324  -0.42114  -0.41857  -0.41803
 Alpha  occ. eigenvalues --   -0.41546  -0.41302  -0.41150  -0.40947  -0.40762
 Alpha  occ. eigenvalues --   -0.40627  -0.40413  -0.40189  -0.39783  -0.39546
 Alpha  occ. eigenvalues --   -0.39452  -0.39126  -0.38993  -0.38911  -0.38824
 Alpha  occ. eigenvalues --   -0.38676  -0.38495  -0.38410  -0.38278  -0.38014
 Alpha  occ. eigenvalues --   -0.37792  -0.37551  -0.37271  -0.37144  -0.36963
 Alpha  occ. eigenvalues --   -0.36776  -0.36600  -0.36500  -0.36380  -0.35809
 Alpha  occ. eigenvalues --   -0.35599  -0.35410  -0.35031  -0.34793  -0.34580
 Alpha  occ. eigenvalues --   -0.34526  -0.34412  -0.34018  -0.33656  -0.33467
 Alpha  occ. eigenvalues --   -0.33277  -0.33216  -0.33053  -0.32681  -0.32651
 Alpha  occ. eigenvalues --   -0.32097  -0.31910  -0.31480  -0.30964  -0.30671
 Alpha  occ. eigenvalues --   -0.30248  -0.29736  -0.29015  -0.28751  -0.26851
 Alpha  occ. eigenvalues --   -0.26005  -0.25913  -0.25043  -0.24569  -0.22304
 Alpha  occ. eigenvalues --   -0.20400
 Alpha virt. eigenvalues --   -0.07439  -0.04290  -0.00433   0.01906   0.02885
 Alpha virt. eigenvalues --    0.02940   0.03952   0.04897   0.05068   0.06396
 Alpha virt. eigenvalues --    0.06492   0.08494   0.09134   0.09728   0.10000

 Mulliken charges:
               1
     1  Mg   0.806952
     2  C    0.093502
     3  C   -0.166366
     4  C   -0.152035
     5  C   -0.142491
     6  N   -0.657048
     7  C    0.316510
     8  C   -0.157371
     9  C   -0.158640
    10  C    0.331812
    11  C   -0.325729
    12  C   -0.134432
    13  C   -0.279922
    14  C    0.579782
    15  O   -0.380258
    16  O   -0.477860
    17  N   -0.744299
    18  C    0.344667
    19  C   -0.000398
    20  C   -0.000129
    21  C    0.313756
    22  C   -0.379902
    23  C   -0.065455
    24  C   -0.260826
    25  N   -0.688573
    26  C    0.314911
    27  C   -0.007450
    28  C    0.093299
    29  C    0.264105
    30  C   -0.357505
    31  C   -0.260240
    32  C   -0.277963
    33  N   -0.750564
    34  C    0.280282
    35  C   -0.030725
    36  C    0.092619
    37  C    0.357017
    38  C   -0.381943
    39  C    0.316199
    40  O   -0.498549
    41  C   -0.296319
    42  C    0.620884
    43  O   -0.515664
    44  O   -0.469497
    45  C   -0.076747
    46  C    0.011646
    47  C   -0.150696
    48  C    0.123467
    49  C   -0.362439
    50  C   -0.214982
    51  C   -0.198390
    52  C   -0.166935
    53  C   -0.062911
    54  C   -0.310394
    55  C   -0.147889
    56  C   -0.166099
    57  C   -0.140349
    58  C   -0.057689
    59  C   -0.286945
    60  C   -0.183440
    61  C   -0.157026
    62  C   -0.171266
    63  C   -0.056146
    64  C   -0.305804
    65  C   -0.321873
    66  H    0.088773
    67  H    0.085383
    68  H    0.077945
    69  H    0.127725
    70  H    0.098952
    71  H    0.108820
    72  H    0.094997
    73  H    0.141377
    74  H    0.113304
    75  H    0.092211
    76  H    0.133236
    77  H    0.109429
    78  H    0.135858
    79  H    0.134246
    80  H    0.101933
    81  H    0.096196
    82  H    0.085982
    83  H    0.101823
    84  H    0.128216
    85  H    0.118972
    86  H    0.115686
    87  H    0.069584
    88  H    0.085674
    89  H    0.121727
    90  H    0.078836
    91  H    0.110870
    92  H    0.129171
    93  H    0.120510
    94  H    0.119394
    95  H    0.159877
    96  H    0.133465
    97  H    0.142013
    98  H    0.122032
    99  H    0.105308
   100  H    0.103981
   101  H    0.096783
   102  H    0.104959
   103  H    0.118393
   104  H    0.138570
   105  H    0.071102
   106  H    0.110265
   107  H    0.104327
   108  H    0.104147
   109  H    0.082362
   110  H    0.103286
   111  H    0.090606
   112  H    0.084389
   113  H    0.112163
   114  H    0.108819
   115  H    0.076898
   116  H    0.057977
   117  H    0.090272
   118  H    0.074269
   119  H    0.086158
   120  H    0.049422
   121  H    0.065110
   122  H    0.068527
   123  H    0.104530
   124  H    0.096018
   125  H    0.078997
   126  H    0.103546
   127  H    0.076457
   128  H    0.094680
   129  H    0.090028
   130  H    0.094099
   131  H    0.086470
   132  H    0.099147
   133  H    0.052611
   134  H    0.109231
   135  H    0.104188
   136  H    0.119006
   137  H    0.093452
 Sum of Mulliken charges =  -0.00000

 Dipole moment (field-independent basis, Debye):
    X=              1.0222    Y=              5.2809    Z=             -0.7080  Tot=              5.4253
 Quadrupole moment (field-independent basis, Debye-Ang):
   XX=           -339.4257   YY=           -405.7086   ZZ=           -394.0722
   XY=            -23.0164   XZ=             18.9615   YZ=              2.9227

 Normal termination of Gaussian 16 at Tue Sep 17 16:51:33 2019.
