 Gaussian 09, Revision D.01,
 Gaussian 09:  ES64L-G09RevD.01 24-Apr-2013

 -------------------------------------
 # td=(NStates=1) CAM-B3LYP/6-31G(d,p)
 -------------------------------------

 --
 TD
 --
 Symbolic Z-matrix:
 Charge =  0 Multiplicity = 1

                         Standard orientation:
 ---------------------------------------------------------------------
 Center     Atomic      Atomic             Coordinates (Angstroms)
 Number     Number       Type             X           Y           Z
 ---------------------------------------------------------------------
      1         12           0       -7.102357    0.595383    0.117426
      2          6           0       -4.986792   -2.009483    0.620936
      3          6           0       -4.757835    2.802617    1.056812
      4          6           0       -9.382514    3.148015   -0.387943
      5          6           0       -9.481285   -1.673909   -1.027562
      6          7           0       -5.039568    0.419481    0.680111
      7          6           0       -4.334017   -0.739585    0.924160
      8          6           0       -2.924581   -0.459176    1.314962
      9          6           0       -3.027315    1.062428    1.656000
     10          6           0       -4.403790    1.461969    1.124258
     11          6           0       -3.085766    1.199549    3.266533
     12          6           0       -1.952673   -0.616481    0.107793
     13          6           0       -0.467063   -0.364581    0.400832
     14          6           0        0.577225   -0.594460   -0.619301
     15          8           0        0.261433   -0.843382   -1.746265
     16          8           0        1.829787   -0.389582   -0.294652
     17          7           0       -7.055311    2.638484    0.198148
     18          6           0       -5.993366    3.354358    0.704335
     19          6           0       -6.385255    4.728555    0.808304
     20          6           0       -7.702675    4.875300    0.356160
     21          6           0       -8.151826    3.471790    0.049224
     22          6           0       -5.342506    5.800572    1.139018
     23          6           0       -8.510580    5.950240    0.252881
     24          6           0       -8.512315    7.076533    1.025348
     25          7           0       -9.105502    0.653984   -0.558437
     26          6           0       -9.903892    1.819807   -0.688751
     27          6           0      -11.228149    1.516295   -1.173631
     28          6           0      -11.229983    0.135134   -1.342081
     29          6           0       -9.918519   -0.326148   -0.979897
     30          6           0      -12.348176    2.503155   -1.416578
     31          6           0      -12.433926   -0.763578   -1.632745
     32          6           0      -12.364026   -1.020758   -3.145034
     33          7           0       -7.253796   -1.405716   -0.065229
     34          6           0       -8.279087   -2.291664   -0.584852
     35          6           0       -7.890052   -3.613124   -0.537854
     36          6           0       -6.598798   -3.604456   -0.096401
     37          6           0       -6.260844   -2.228000    0.202959
     38          6           0       -8.660890   -4.823218   -0.818098
     39          6           0       -5.422172   -4.461220    0.184312
     40          8           0       -5.173835   -5.659410    0.233195
     41          6           0       -4.298330   -3.335366    0.611327
     42          6           0       -3.554240   -3.691871    1.970682
     43          8           0       -3.674102   -3.113923    2.966031
     44          8           0       -2.785292   -4.805237    1.764683
     45          6           0       -2.092472   -5.158707    2.961319
     46          6           0        2.873282   -0.639416   -1.213255
     47          6           0        4.207318   -0.319660   -0.647763
     48          6           0        5.144848    0.403690   -1.166580
     49          6           0        5.166029    1.115863   -2.449084
     50          6           0        6.460790    0.591776   -0.307388
     51          6           0        7.619585   -0.008162   -1.113766
     52          6           0        8.917438   -0.026418   -0.205473
     53          6           0       10.182682   -0.543605   -0.885031
     54          6           0       10.055284   -2.024361   -1.244062
     55          6           0       11.475313   -0.283034   -0.008864
     56          6           0       12.765815   -0.556604   -0.713532
     57          6           0       13.999213   -0.126812    0.123124
     58          6           0       15.339305   -0.270149   -0.434218
     59          6           0       15.719597   -1.706468   -0.808771
     60          6           0       16.454221    0.393158    0.439085
     61          6           0       17.871227    0.501127   -0.165113
     62          6           0       18.731228    1.335955    0.726475
     63          6           0       20.189328    1.330467    0.324259
     64          6           0       20.390559    2.035270   -1.031067
     65          6           0       21.084489    1.985966    1.370215
     66          1           0       -3.773551    3.468315    1.524226
     67          1           0      -10.180022    3.995891   -0.466911
     68          1           0      -10.312232   -2.371243   -1.353260
     69          1           0       -2.352284   -1.008788    2.173352
     70          1           0       -2.228190    1.657512    1.238624
     71          1           0       -2.053885    1.050238    3.685255
     72          1           0       -3.287983    2.303192    3.598524
     73          1           0       -3.871028    0.537644    3.776976
     74          1           0       -2.070369   -1.541795   -0.192579
     75          1           0       -2.058299    0.207901   -0.636538
     76          1           0       -0.305505    0.509829    1.087413
     77          1           0        0.078532   -1.207519    1.107439
     78          1           0       -5.838501    6.805485    0.839874
     79          1           0       -5.338127    5.457835    2.415262
     80          1           0       -4.317536    5.576305    0.803989
     81          1           0       -9.200777    5.807531   -0.462914
     82          1           0       -9.318027    7.861111    0.629026
     83          1           0       -7.807037    7.450900    1.874361
     84          1           0      -12.419306    3.025763   -2.324196
     85          1           0      -13.255874    1.835465   -1.611010
     86          1           0      -12.391597    3.334986   -0.593838
     87          1           0      -12.296819   -1.779444   -1.041991
     88          1           0      -13.389288   -0.133080   -1.300238
     89          1           0      -13.310412   -1.643205   -3.472296
     90          1           0      -12.257698   -0.058588   -3.899015
     91          1           0      -11.537192   -1.588122   -3.581266
     92          1           0       -8.880927   -5.020767   -1.873133
     93          1           0       -8.101570   -5.609768   -0.341786
     94          1           0       -9.754795   -4.747530   -0.306573
     95          1           0       -3.466550   -3.417878   -0.329987
     96          1           0       -1.419353   -4.368078    3.289429
     97          1           0       -2.798422   -4.954450    3.840389
     98          1           0       -1.475943   -6.007454    2.601287
     99          1           0        2.787237   -1.593762   -1.603708
    100          1           0        2.540107   -0.318950   -2.150350
    101          1           0        4.328173   -0.670006    0.507215
    102          1           0        4.085137    1.254150   -2.751661
    103          1           0        5.524107    2.099466   -2.346088
    104          1           0        5.936684    0.657389   -3.188406
    105          1           0        6.520608    1.652531   -0.145326
    106          1           0        6.442454   -0.080714    0.577635
    107          1           0        7.438621   -1.001159   -1.448327
    108          1           0        7.927910    0.642413   -2.014270
    109          1           0        9.272808    0.885235    0.265048
    110          1           0        8.524167   -0.668784    0.543950
    111          1           0       10.302020    0.115075   -1.684274
    112          1           0        9.250460   -2.228761   -1.802365
    113          1           0       10.906366   -2.288120   -1.851035
    114          1           0       10.121482   -2.671168   -0.254588
    115          1           0       11.392055    0.699548    0.426343
    116          1           0       11.614005   -0.958091    0.831351
    117          1           0       12.750572   -1.723867   -0.943713
    118          1           0       12.754814   -0.060010   -1.669767
    119          1           0       13.888741    0.869984    0.523210
    120          1           0       13.912639   -0.699850    1.092211
    121          1           0       15.414160    0.181831   -1.505328
    122          1           0       15.561599   -2.364595    0.191797
    123          1           0       15.075371   -2.313618   -1.320638
    124          1           0       16.687192   -2.077384   -1.123798
    125          1           0       16.016731    1.394512    0.726022
    126          1           0       16.386473   -0.134264    1.301667
    127          1           0       18.282922   -0.425051   -0.381499
    128          1           0       17.600402    1.177110   -1.022774
    129          1           0       18.218066    2.258803    0.996576
    130          1           0       18.755892    0.741595    1.725905
    131          1           0       20.541860    0.366218   -0.005346
    132          1           0       20.204711    3.149820   -0.961570
    133          1           0       21.278116    2.106602   -1.174922
    134          1           0       19.767610    1.515008   -1.878063
    135          1           0       20.725979    1.358920    2.191919
    136          1           0       22.138556    1.959645    1.264817
    137          1           0       20.822959    3.053478    1.529344
 ---------------------------------------------------------------------

 SCF Done:  E(RCAM-B3LYP) =  -2932.67151131     A.U. after   18 cycles

 Excitation energies and oscillator strengths:

 Excited State   1:      Singlet-A      2.1304 eV  581.97 nm  f=0.1672  <S**2>=0.000
     240 -> 242       -0.13281
     240 -> 243       -0.30197
     241 -> 242        0.61047
 This state for optimization and/or second-order correction.
 Total Energy, E(TD-HF/TD-KS) =  -2932.59322030
 Copying the excited state density for this state as the 1-particle RhoCI density.

 The electronic state is 1-A.
 Alpha  occ. eigenvalues --  -46.84987 -19.26008 -19.25523 -19.22099 -19.20688
 Alpha  occ. eigenvalues --  -19.19321 -14.42096 -14.39690 -14.39390 -14.39268
 Alpha  occ. eigenvalues --  -10.38966 -10.38670 -10.35754 -10.31968 -10.30905
 Alpha  occ. eigenvalues --  -10.30764 -10.30533 -10.30486 -10.29482 -10.29406
 Alpha  occ. eigenvalues --  -10.29114 -10.29096 -10.29051 -10.29045 -10.28926
 Alpha  occ. eigenvalues --  -10.28746 -10.28530 -10.28431 -10.28366 -10.28318
 Alpha  occ. eigenvalues --  -10.28237 -10.27785 -10.27723 -10.27667 -10.27478
 Alpha  occ. eigenvalues --  -10.27354 -10.27290 -10.27042 -10.26732 -10.26717
 Alpha  occ. eigenvalues --  -10.26708 -10.26558 -10.26530 -10.26431 -10.26430
 Alpha  occ. eigenvalues --  -10.26328 -10.26259 -10.26256 -10.26236 -10.26140
 Alpha  occ. eigenvalues --  -10.26097 -10.25610 -10.25527 -10.25349 -10.25278
 Alpha  occ. eigenvalues --  -10.25097 -10.24907 -10.24629 -10.24398 -10.24316
 Alpha  occ. eigenvalues --  -10.24308 -10.24203 -10.24054 -10.23950 -10.22503
 Alpha  occ. eigenvalues --   -3.13900  -1.88615  -1.88132  -1.88076  -1.19929
 Alpha  occ. eigenvalues --   -1.19460  -1.11256  -1.10338  -1.09410  -1.05919
 Alpha  occ. eigenvalues --   -1.03931  -1.03092  -1.02116  -0.91850  -0.91690
 Alpha  occ. eigenvalues --   -0.91133  -0.90523  -0.90268  -0.90077  -0.88984
 Alpha  occ. eigenvalues --   -0.88853  -0.88400  -0.87983  -0.86711  -0.86469
 Alpha  occ. eigenvalues --   -0.85196  -0.84518  -0.83627  -0.82508  -0.82380
 Alpha  occ. eigenvalues --   -0.82140  -0.80726  -0.80224  -0.79968  -0.78387
 Alpha  occ. eigenvalues --   -0.77307  -0.76651  -0.76527  -0.76310  -0.75994
 Alpha  occ. eigenvalues --   -0.75489  -0.75017  -0.74716  -0.74163  -0.72536
 Alpha  occ. eigenvalues --   -0.71694  -0.71493  -0.69499  -0.69204  -0.68413
 Alpha  occ. eigenvalues --   -0.67167  -0.67147  -0.66269  -0.65679  -0.64898
 Alpha  occ. eigenvalues --   -0.64792  -0.64023  -0.63637  -0.63488  -0.62626
 Alpha  occ. eigenvalues --   -0.61431  -0.61193  -0.60379  -0.59611  -0.59329
 Alpha  occ. eigenvalues --   -0.58609  -0.58039  -0.57457  -0.56906  -0.56847
 Alpha  occ. eigenvalues --   -0.55938  -0.55640  -0.55378  -0.55022  -0.54786
 Alpha  occ. eigenvalues --   -0.54564  -0.54150  -0.54093  -0.53978  -0.53398
 Alpha  occ. eigenvalues --   -0.52903  -0.52563  -0.52316  -0.52243  -0.51722
 Alpha  occ. eigenvalues --   -0.51661  -0.51406  -0.51049  -0.50912  -0.50743
 Alpha  occ. eigenvalues --   -0.50528  -0.50399  -0.50067  -0.49699  -0.49546
 Alpha  occ. eigenvalues --   -0.49441  -0.49283  -0.49092  -0.48737  -0.48259
 Alpha  occ. eigenvalues --   -0.47827  -0.47736  -0.47660  -0.47430  -0.47013
 Alpha  occ. eigenvalues --   -0.46914  -0.46725  -0.46465  -0.46273  -0.46142
 Alpha  occ. eigenvalues --   -0.45734  -0.45565  -0.45282  -0.45215  -0.44782
 Alpha  occ. eigenvalues --   -0.44732  -0.44469  -0.44119  -0.44002  -0.43918
 Alpha  occ. eigenvalues --   -0.43784  -0.43763  -0.43618  -0.43423  -0.43270
 Alpha  occ. eigenvalues --   -0.43110  -0.42879  -0.42838  -0.42790  -0.42670
 Alpha  occ. eigenvalues --   -0.42497  -0.42288  -0.42062  -0.41832  -0.41617
 Alpha  occ. eigenvalues --   -0.41550  -0.41393  -0.40917  -0.40492  -0.40458
 Alpha  occ. eigenvalues --   -0.40335  -0.39737  -0.39719  -0.39362  -0.38985
 Alpha  occ. eigenvalues --   -0.38581  -0.38338  -0.38317  -0.38185  -0.38111
 Alpha  occ. eigenvalues --   -0.37764  -0.37685  -0.37462  -0.37130  -0.36963
 Alpha  occ. eigenvalues --   -0.36545  -0.36510  -0.35995  -0.35774  -0.35494
 Alpha  occ. eigenvalues --   -0.35221  -0.34575  -0.34350  -0.34079  -0.33864
 Alpha  occ. eigenvalues --   -0.33835  -0.32581  -0.32474  -0.30988  -0.30503
 Alpha  occ. eigenvalues --   -0.29898  -0.29382  -0.28013  -0.26577  -0.23043
 Alpha  occ. eigenvalues --   -0.21488
 Alpha virt. eigenvalues --   -0.06104  -0.03963   0.00595   0.03893   0.05507
 Alpha virt. eigenvalues --    0.06350   0.06610   0.07416   0.07707   0.07945
 Alpha virt. eigenvalues --    0.08253   0.09936   0.10778   0.11206   0.11858

 Mulliken charges:
               1
     1  Mg   0.813336
     2  C    0.078425
     3  C   -0.216076
     4  C   -0.200176
     5  C   -0.198058
     6  N   -0.630895
     7  C    0.304346
     8  C   -0.158934
     9  C   -0.171494
    10  C    0.390176
    11  C   -0.314764
    12  C   -0.135120
    13  C   -0.283997
    14  C    0.602534
    15  O   -0.482615
    16  O   -0.461764
    17  N   -0.731838
    18  C    0.352244
    19  C   -0.026215
    20  C    0.049006
    21  C    0.336005
    22  C   -0.326159
    23  C   -0.092401
    24  C   -0.247824
    25  N   -0.673109
    26  C    0.246046
    27  C    0.035063
    28  C    0.023352
    29  C    0.317257
    30  C   -0.369301
    31  C   -0.227227
    32  C   -0.300996
    33  N   -0.734758
    34  C    0.232991
    35  C    0.078495
    36  C   -0.013782
    37  C    0.317845
    38  C   -0.376087
    39  C    0.376076
    40  O   -0.454294
    41  C   -0.359272
    42  C    0.622676
    43  O   -0.434097
    44  O   -0.449200
    45  C   -0.106825
    46  C    0.008410
    47  C   -0.153034
    48  C    0.134388
    49  C   -0.364980
    50  C   -0.210105
    51  C   -0.194834
    52  C   -0.176192
    53  C   -0.058837
    54  C   -0.307998
    55  C   -0.182761
    56  C   -0.177453
    57  C   -0.175200
    58  C   -0.048055
    59  C   -0.320285
    60  C   -0.186148
    61  C   -0.172827
    62  C   -0.152478
    63  C   -0.075367
    64  C   -0.284297
    65  C   -0.310686
    66  H    0.075433
    67  H    0.089047
    68  H    0.081764
    69  H    0.129751
    70  H    0.108792
    71  H    0.105599
    72  H    0.093256
    73  H    0.132217
    74  H    0.120101
    75  H    0.124703
    76  H    0.131834
    77  H    0.095204
    78  H    0.118744
    79  H    0.084256
    80  H    0.133305
    81  H    0.095155
    82  H    0.086639
    83  H    0.117111
    84  H    0.135312
    85  H    0.099993
    86  H    0.110984
    87  H    0.107174
    88  H    0.107030
    89  H    0.084243
    90  H    0.090496
    91  H    0.124269
    92  H    0.134879
    93  H    0.151751
    94  H    0.100912
    95  H    0.131382
    96  H    0.110444
    97  H    0.140203
    98  H    0.134042
    99  H    0.123743
   100  H    0.125558
   101  H    0.083205
   102  H    0.113341
   103  H    0.124126
   104  H    0.120444
   105  H    0.110681
   106  H    0.097851
   107  H    0.113425
   108  H    0.077400
   109  H    0.083878
   110  H    0.089196
   111  H    0.090427
   112  H    0.107607
   113  H    0.103102
   114  H    0.089896
   115  H    0.083798
   116  H    0.091240
   117  H    0.083741
   118  H    0.090682
   119  H    0.094636
   120  H    0.081653
   121  H    0.069023
   122  H    0.050585
   123  H    0.114474
   124  H    0.107155
   125  H    0.075728
   126  H    0.100524
   127  H    0.105007
   128  H    0.100210
   129  H    0.097173
   130  H    0.065708
   131  H    0.094002
   132  H    0.071921
   133  H    0.102521
   134  H    0.085515
   135  H    0.099836
   136  H    0.105444
   137  H    0.099659
 Sum of Mulliken charges =   0.00000

 Dipole moment (field-independent basis, Debye):
    X=              1.6453    Y=              4.5698    Z=              0.5563  Tot=              4.8887
 Quadrupole moment (field-independent basis, Debye-Ang):
   XX=           -345.1013   YY=           -400.6567   ZZ=           -398.9314
   XY=            -21.1254   XZ=              9.5029   YZ=              1.5236

 Normal termination of Gaussian 09 at Wed Jul  3 03:16:02 2019.
