 Gaussian 09, Revision D.01,
 Gaussian 09:  ES64L-G09RevD.01 24-Apr-2013

 -------------------------------------
 # td=(NStates=1) CAM-B3LYP/6-31G(d,p)
 -------------------------------------

 --
 TD
 --
 Symbolic Z-matrix:
 Charge =  0 Multiplicity = 1

                         Standard orientation:
 ---------------------------------------------------------------------
 Center     Atomic      Atomic             Coordinates (Angstroms)
 Number     Number       Type             X           Y           Z
 ---------------------------------------------------------------------
      1         12           0       -7.185619    0.648887    0.193525
      2          6           0       -4.897799   -1.967556    0.461044
      3          6           0       -4.765176    2.869000    1.170954
      4          6           0       -9.355403    3.121963   -0.484405
      5          6           0       -9.684341   -1.741363   -0.864342
      6          7           0       -5.078136    0.414244    0.716797
      7          6           0       -4.355478   -0.710284    0.818319
      8          6           0       -2.942270   -0.388371    1.205076
      9          6           0       -3.035561    1.136893    1.692528
     10          6           0       -4.345644    1.461850    1.140669
     11          6           0       -2.867203    1.268505    3.181910
     12          6           0       -2.009578   -0.656300   -0.021708
     13          6           0       -0.499812   -0.614649    0.532022
     14          6           0        0.436853   -0.768708   -0.502394
     15          8           0        0.080720   -1.031945   -1.643765
     16          8           0        1.783548   -0.712999   -0.074309
     17          7           0       -7.094313    2.685522    0.294185
     18          6           0       -5.988159    3.454567    0.704096
     19          6           0       -6.234584    4.808939    0.608785
     20          6           0       -7.641698    4.868020    0.325054
     21          6           0       -8.069154    3.496276    0.076246
     22          6           0       -5.358260    5.922586    0.979315
     23          6           0       -8.430717    6.119236    0.138238
     24          6           0       -8.375320    7.233980    0.775460
     25          7           0       -9.100227    0.703654   -0.347232
     26          6           0       -9.798862    1.884628   -0.616805
     27          6           0      -11.122090    1.508146   -1.054701
     28          6           0      -11.263618    0.150087   -1.164067
     29          6           0       -9.950361   -0.330964   -0.799723
     30          6           0      -12.256651    2.601397   -1.309039
     31          6           0      -12.418105   -0.729118   -1.629255
     32          6           0      -12.324626   -0.977627   -3.155635
     33          7           0       -7.225389   -1.349498   -0.261919
     34          6           0       -8.378868   -2.208955   -0.520024
     35          6           0       -7.926379   -3.650973   -0.508186
     36          6           0       -6.562591   -3.528518   -0.194863
     37          6           0       -6.173130   -2.176419    0.022715
     38          6           0       -8.724163   -4.838558   -0.925908
     39          6           0       -5.406495   -4.340111    0.059558
     40          8           0       -5.253596   -5.562307    0.109441
     41          6           0       -4.165243   -3.269315    0.551288
     42          6           0       -3.666876   -3.806500    1.781619
     43          8           0       -3.735995   -3.133034    2.835337
     44          8           0       -2.791891   -4.733048    1.745047
     45          6           0       -2.229091   -5.314699    2.819285
     46          6           0        2.781785   -0.809603   -1.142597
     47          6           0        4.174495   -0.606165   -0.487284
     48          6           0        5.209888    0.232521   -0.844604
     49          6           0        5.197679    1.194598   -2.081255
     50          6           0        6.465499    0.190835   -0.041409
     51          6           0        7.656725   -0.447015   -0.907065
     52          6           0        8.965620   -0.168651   -0.185272
     53          6           0       10.212762   -0.577192   -0.913572
     54          6           0       10.191073   -2.040412   -1.225161
     55          6           0       11.468824   -0.217910    0.123585
     56          6           0       12.768466   -0.389302   -0.657840
     57          6           0       13.990828   -0.117460    0.236349
     58          6           0       15.330040   -0.235205   -0.431237
     59          6           0       15.768635   -1.664996   -0.982019
     60          6           0       16.389271    0.401586    0.443781
     61          6           0       17.801567    0.624156   -0.166950
     62          6           0       18.806102    1.296210    0.721898
     63          6           0       20.222598    1.449208    0.073995
     64          6           0       20.090551    2.332149   -1.217855
     65          6           0       21.142359    1.957990    1.150848
     66          1           0       -3.956070    3.518894    1.353946
     67          1           0       -9.999247    3.970138   -0.728052
     68          1           0      -10.665704   -2.243659   -1.242853
     69          1           0       -2.768135   -0.912866    1.998835
     70          1           0       -2.257950    1.623063    1.146164
     71          1           0       -1.857024    0.928542    3.433327
     72          1           0       -2.992418    2.193233    3.614299
     73          1           0       -3.484298    0.446937    3.800201
     74          1           0       -2.269309   -1.573941   -0.215912
     75          1           0       -1.958615    0.057225   -0.821981
     76          1           0       -0.188022    0.303336    1.138834
     77          1           0       -0.376234   -1.468211    1.357178
     78          1           0       -5.538889    6.819728    0.453646
     79          1           0       -5.280935    6.132510    2.091465
     80          1           0       -4.336850    5.764997    0.713427
     81          1           0       -9.078699    5.950918   -0.731709
     82          1           0       -8.886800    8.143234    0.598642
     83          1           0       -7.597881    7.456757    1.676077
     84          1           0      -11.794313    3.410881   -1.852462
     85          1           0      -13.062965    2.102640   -2.107385
     86          1           0      -12.626252    2.972703   -0.391626
     87          1           0      -12.467845   -1.581618   -0.992858
     88          1           0      -13.369496   -0.036637   -1.556938
     89          1           0      -13.052111   -1.819981   -3.644007
     90          1           0      -12.515118   -0.022994   -3.748363
     91          1           0      -11.109841   -1.021444   -3.598758
     92          1           0       -9.184040   -4.541101   -1.914315
     93          1           0       -7.998188   -5.650136   -0.862724
     94          1           0       -9.656287   -4.871050   -0.154516
     95          1           0       -3.241446   -3.515046   -0.125945
     96          1           0       -1.721845   -4.498536    3.474904
     97          1           0       -2.973151   -5.794413    3.532202
     98          1           0       -1.563900   -6.039305    2.391543
     99          1           0        2.505268   -1.817251   -1.686348
    100          1           0        2.567789   -0.201147   -2.017095
    101          1           0        4.358318   -1.250450    0.272435
    102          1           0        4.168565    1.251290   -2.497316
    103          1           0        5.454564    2.359443   -1.844005
    104          1           0        5.861851    0.809670   -2.864827
    105          1           0        6.951899    1.237274    0.123214
    106          1           0        6.402058   -0.306069    0.898282
    107          1           0        7.559079   -1.457457   -1.005156
    108          1           0        7.529532   -0.090250   -1.970412
    109          1           0        8.963120    0.933345   -0.270659
    110          1           0        9.005751   -0.584337    0.984411
    111          1           0       10.213665   -0.128765   -1.833376
    112          1           0        9.417866   -2.288558   -1.748525
    113          1           0       11.019219   -2.370212   -1.802361
    114          1           0       10.095558   -2.470339   -0.262436
    115          1           0       11.249389    0.956055    0.372417
    116          1           0       10.986513   -0.879297    0.914839
    117          1           0       12.737063   -1.360286   -1.002676
    118          1           0       12.777268    0.378155   -1.502189
    119          1           0       13.888818    0.883614    0.781093
    120          1           0       13.762644   -0.930243    1.031669
    121          1           0       15.442775    0.383504   -1.275231
    122          1           0       15.859482   -2.234133   -0.093876
    123          1           0       15.006415   -2.066215   -1.668939
    124          1           0       16.918633   -1.576666   -1.240720
    125          1           0       15.942043    1.390839    0.739435
    126          1           0       16.459839   -0.245950    1.427899
    127          1           0       18.076757   -0.412923   -0.360908
    128          1           0       17.678255    1.197745   -1.139858
    129          1           0       18.427807    2.205013    1.336395
    130          1           0       18.808812    0.689323    1.560582
    131          1           0       20.708277    0.428666   -0.349642
    132          1           0       19.625281    3.324326   -0.904337
    133          1           0       21.278314    2.611498   -1.348360
    134          1           0       19.688990    1.647204   -1.874109
    135          1           0       21.255970    1.222302    2.049716
    136          1           0       22.219216    2.286258    0.864997
    137          1           0       20.918943    2.938207    1.655789
 ---------------------------------------------------------------------

 SCF Done:  E(RCAM-B3LYP) =  -2932.66428931     A.U. after   17 cycles

 Excitation energies and oscillator strengths:

 Excited State   1:      Singlet-A      1.8274 eV  678.48 nm  f=0.2783  <S**2>=0.000
     240 -> 243       -0.22749
     241 -> 242        0.66764
     240 <- 243       -0.10305
 This state for optimization and/or second-order correction.
 Total Energy, E(TD-HF/TD-KS) =  -2932.59713396
 Copying the excited state density for this state as the 1-particle RhoCI density.

 The electronic state is 1-A.
 Alpha  occ. eigenvalues --  -46.84100 -19.26509 -19.25588 -19.21234 -19.21002
 Alpha  occ. eigenvalues --  -19.18224 -14.42258 -14.39850 -14.39169 -14.38853
 Alpha  occ. eigenvalues --  -10.38951 -10.38136 -10.35785 -10.32458 -10.31713
 Alpha  occ. eigenvalues --  -10.31117 -10.30711 -10.30455 -10.29579 -10.29499
 Alpha  occ. eigenvalues --  -10.29159 -10.29062 -10.28952 -10.28858 -10.28756
 Alpha  occ. eigenvalues --  -10.28629 -10.28548 -10.28492 -10.28471 -10.28353
 Alpha  occ. eigenvalues --  -10.27997 -10.27700 -10.27457 -10.27392 -10.27240
 Alpha  occ. eigenvalues --  -10.26999 -10.26915 -10.26902 -10.26671 -10.26569
 Alpha  occ. eigenvalues --  -10.26480 -10.26480 -10.26436 -10.26383 -10.26336
 Alpha  occ. eigenvalues --  -10.26184 -10.26171 -10.25963 -10.25948 -10.25940
 Alpha  occ. eigenvalues --  -10.25913 -10.25894 -10.25682 -10.25657 -10.25635
 Alpha  occ. eigenvalues --  -10.25455 -10.25278 -10.25276 -10.25271 -10.25204
 Alpha  occ. eigenvalues --  -10.25157 -10.24954 -10.24742 -10.24524 -10.22035
 Alpha  occ. eigenvalues --   -3.13161  -1.87861  -1.87408  -1.87329  -1.21812
 Alpha  occ. eigenvalues --   -1.15927  -1.10461  -1.08492  -1.06676  -1.05361
 Alpha  occ. eigenvalues --   -1.04208  -1.02131  -1.01295  -0.92305  -0.91356
 Alpha  occ. eigenvalues --   -0.90391  -0.90266  -0.89374  -0.89246  -0.88362
 Alpha  occ. eigenvalues --   -0.88225  -0.88016  -0.87414  -0.87015  -0.86164
 Alpha  occ. eigenvalues --   -0.85484  -0.84791  -0.84221  -0.82859  -0.82241
 Alpha  occ. eigenvalues --   -0.81875  -0.81102  -0.80730  -0.80061  -0.78463
 Alpha  occ. eigenvalues --   -0.77631  -0.77318  -0.76685  -0.76350  -0.75509
 Alpha  occ. eigenvalues --   -0.75376  -0.75179  -0.74506  -0.73494  -0.72365
 Alpha  occ. eigenvalues --   -0.71830  -0.71161  -0.69387  -0.69048  -0.68053
 Alpha  occ. eigenvalues --   -0.66836  -0.66655  -0.66083  -0.64730  -0.64126
 Alpha  occ. eigenvalues --   -0.64062  -0.63205  -0.62676  -0.62467  -0.62329
 Alpha  occ. eigenvalues --   -0.61637  -0.60889  -0.60438  -0.59297  -0.58879
 Alpha  occ. eigenvalues --   -0.58445  -0.58285  -0.57428  -0.57105  -0.56706
 Alpha  occ. eigenvalues --   -0.56034  -0.55966  -0.55856  -0.55252  -0.54798
 Alpha  occ. eigenvalues --   -0.54534  -0.54441  -0.54114  -0.53588  -0.53193
 Alpha  occ. eigenvalues --   -0.52715  -0.52616  -0.52571  -0.52235  -0.51596
 Alpha  occ. eigenvalues --   -0.51453  -0.51229  -0.51210  -0.50687  -0.50483
 Alpha  occ. eigenvalues --   -0.50468  -0.50117  -0.49844  -0.49571  -0.49443
 Alpha  occ. eigenvalues --   -0.49180  -0.48996  -0.48772  -0.48338  -0.48073
 Alpha  occ. eigenvalues --   -0.47974  -0.47909  -0.47848  -0.47698  -0.47004
 Alpha  occ. eigenvalues --   -0.46978  -0.46554  -0.46384  -0.46187  -0.46108
 Alpha  occ. eigenvalues --   -0.45826  -0.45655  -0.45576  -0.45441  -0.45132
 Alpha  occ. eigenvalues --   -0.44917  -0.44772  -0.44666  -0.44491  -0.44399
 Alpha  occ. eigenvalues --   -0.44073  -0.43866  -0.43624  -0.43473  -0.43294
 Alpha  occ. eigenvalues --   -0.43086  -0.42799  -0.42504  -0.42349  -0.42175
 Alpha  occ. eigenvalues --   -0.41923  -0.41790  -0.41607  -0.40987  -0.40865
 Alpha  occ. eigenvalues --   -0.40728  -0.40556  -0.40350  -0.40306  -0.40077
 Alpha  occ. eigenvalues --   -0.40006  -0.39801  -0.39757  -0.39483  -0.39361
 Alpha  occ. eigenvalues --   -0.38879  -0.38514  -0.38237  -0.38110  -0.37699
 Alpha  occ. eigenvalues --   -0.37451  -0.37285  -0.36989  -0.36875  -0.36615
 Alpha  occ. eigenvalues --   -0.36329  -0.36238  -0.35662  -0.35600  -0.35233
 Alpha  occ. eigenvalues --   -0.34973  -0.34879  -0.34538  -0.33986  -0.33366
 Alpha  occ. eigenvalues --   -0.32584  -0.32383  -0.31692  -0.31096  -0.29636
 Alpha  occ. eigenvalues --   -0.29360  -0.29148  -0.28609  -0.27268  -0.23265
 Alpha  occ. eigenvalues --   -0.20373
 Alpha virt. eigenvalues --   -0.07007  -0.03024   0.01036   0.04626   0.04668
 Alpha virt. eigenvalues --    0.05213   0.05511   0.05849   0.07103   0.07945
 Alpha virt. eigenvalues --    0.08225   0.09952   0.11009   0.11541   0.11762

 Mulliken charges:
               1
     1  Mg   0.828504
     2  C    0.102929
     3  C   -0.187044
     4  C   -0.188051
     5  C   -0.179983
     6  N   -0.602017
     7  C    0.291624
     8  C   -0.158057
     9  C   -0.139882
    10  C    0.314481
    11  C   -0.313210
    12  C   -0.136037
    13  C   -0.305644
    14  C    0.642583
    15  O   -0.477973
    16  O   -0.511264
    17  N   -0.712208
    18  C    0.272969
    19  C    0.058378
    20  C   -0.073580
    21  C    0.335458
    22  C   -0.379564
    23  C   -0.047373
    24  C   -0.257244
    25  N   -0.727724
    26  C    0.375045
    27  C   -0.030255
    28  C    0.039010
    29  C    0.280494
    30  C   -0.358326
    31  C   -0.237617
    32  C   -0.295587
    33  N   -0.732359
    34  C    0.224466
    35  C    0.038873
    36  C    0.026323
    37  C    0.325685
    38  C   -0.361065
    39  C    0.324096
    40  O   -0.468476
    41  C   -0.391323
    42  C    0.626421
    43  O   -0.520380
    44  O   -0.375512
    45  C   -0.084338
    46  C    0.013002
    47  C   -0.128805
    48  C    0.121060
    49  C   -0.360651
    50  C   -0.223800
    51  C   -0.197294
    52  C   -0.160985
    53  C   -0.099404
    54  C   -0.297555
    55  C   -0.161563
    56  C   -0.172316
    57  C   -0.168473
    58  C   -0.046482
    59  C   -0.325679
    60  C   -0.188969
    61  C   -0.185280
    62  C   -0.160027
    63  C   -0.051729
    64  C   -0.289967
    65  C   -0.313112
    66  H    0.078803
    67  H    0.088549
    68  H    0.107684
    69  H    0.127681
    70  H    0.110201
    71  H    0.108287
    72  H    0.122644
    73  H    0.112765
    74  H    0.123885
    75  H    0.135302
    76  H    0.134623
    77  H    0.138440
    78  H    0.127673
    79  H    0.118238
    80  H    0.110196
    81  H    0.091074
    82  H    0.108798
    83  H    0.084996
    84  H    0.123039
    85  H    0.087931
    86  H    0.139805
    87  H    0.123493
    88  H    0.109858
    89  H    0.096993
    90  H    0.113718
    91  H    0.082303
    92  H    0.138361
    93  H    0.156543
    94  H    0.116693
    95  H    0.158608
    96  H    0.111721
    97  H    0.121423
    98  H    0.126997
    99  H    0.111430
   100  H    0.122335
   101  H    0.092448
   102  H    0.115310
   103  H    0.100059
   104  H    0.127819
   105  H    0.090788
   106  H    0.108818
   107  H    0.111286
   108  H    0.088460
   109  H    0.095088
   110  H    0.064409
   111  H    0.085061
   112  H    0.109427
   113  H    0.098015
   114  H    0.091604
   115  H    0.070174
   116  H    0.090902
   117  H    0.108303
   118  H    0.090561
   119  H    0.086800
   120  H    0.079519
   121  H    0.091400
   122  H    0.110238
   123  H    0.109373
   124  H    0.091900
   125  H    0.082234
   126  H    0.065115
   127  H    0.096975
   128  H    0.085187
   129  H    0.081088
   130  H    0.099975
   131  H    0.072021
   132  H    0.106065
   133  H    0.075952
   134  H    0.125999
   135  H    0.094463
   136  H    0.081998
   137  H    0.096857
 Sum of Mulliken charges =   0.00000

 Dipole moment (field-independent basis, Debye):
    X=              0.9512    Y=              3.2512    Z=             -0.3648  Tot=              3.4071
 Quadrupole moment (field-independent basis, Debye-Ang):
   XX=           -350.6312   YY=           -392.6841   ZZ=           -398.6216
   XY=            -13.9725   XZ=             13.8154   YZ=             -0.9404

 Normal termination of Gaussian 09 at Sat Jul  6 18:55:17 2019.
