 Gaussian 09, Revision D.01,
 Gaussian 09:  ES64L-G09RevD.01 24-Apr-2013

 -------------------------------------
 # td=(NStates=1) CAM-B3LYP/6-31G(d,p)
 -------------------------------------

 --
 TD
 --
 Symbolic Z-matrix:
 Charge =  0 Multiplicity = 1

                         Standard orientation:
 ---------------------------------------------------------------------
 Center     Atomic      Atomic             Coordinates (Angstroms)
 Number     Number       Type             X           Y           Z
 ---------------------------------------------------------------------
      1         12           0       -7.159259    0.640223    0.107071
      2          6           0       -4.942880   -1.918045    0.456305
      3          6           0       -4.840116    2.797340    1.072745
      4          6           0       -9.408372    3.111975   -0.381430
      5          6           0       -9.534487   -1.761484   -0.845568
      6          7           0       -5.091733    0.434492    0.596262
      7          6           0       -4.383579   -0.817260    0.758136
      8          6           0       -2.924234   -0.476077    1.172616
      9          6           0       -3.051180    1.032002    1.547203
     10          6           0       -4.375947    1.470939    1.094074
     11          6           0       -2.839569    1.302805    3.160702
     12          6           0       -1.941216   -0.760167   -0.077858
     13          6           0       -0.482240   -0.567583    0.400524
     14          6           0        0.587831   -0.808875   -0.632225
     15          8           0        0.304512   -1.178050   -1.708245
     16          8           0        1.835729   -0.519540   -0.038469
     17          7           0       -7.163931    2.631773    0.149998
     18          6           0       -6.048486    3.377545    0.661124
     19          6           0       -6.371167    4.825426    0.679583
     20          6           0       -7.666085    4.937050    0.266464
     21          6           0       -8.172111    3.535591   -0.054081
     22          6           0       -5.406493    5.914494    1.044391
     23          6           0       -8.548802    6.022251    0.160286
     24          6           0       -8.555451    7.098552    0.854784
     25          7           0       -9.127211    0.662146   -0.423109
     26          6           0       -9.868112    1.802983   -0.641219
     27          6           0      -11.257778    1.473536   -1.051955
     28          6           0      -11.332954    0.175606   -1.116400
     29          6           0       -9.973839   -0.393879   -0.780860
     30          6           0      -12.154332    2.559101   -1.297512
     31          6           0      -12.513791   -0.698997   -1.540595
     32          6           0      -12.451565   -1.076914   -3.018166
     33          7           0       -7.322590   -1.401548   -0.166880
     34          6           0       -8.234358   -2.271281   -0.628167
     35          6           0       -7.863113   -3.669618   -0.528425
     36          6           0       -6.536406   -3.592528   -0.084572
     37          6           0       -6.273030   -2.149238    0.044122
     38          6           0       -8.712761   -4.834333   -0.936141
     39          6           0       -5.326385   -4.395973    0.070533
     40          8           0       -5.073986   -5.574557   -0.009803
     41          6           0       -4.254187   -3.315237    0.570018
     42          6           0       -3.631671   -3.578473    1.891791
     43          8           0       -3.855760   -2.973686    2.926608
     44          8           0       -2.746480   -4.654838    1.855536
     45          6           0       -2.326748   -5.296140    3.063319
     46          6           0        2.916611   -0.692708   -1.201458
     47          6           0        4.188984   -0.455362   -0.500093
     48          6           0        5.095808    0.405850   -0.816199
     49          6           0        5.112069    1.250100   -2.051402
     50          6           0        6.445292    0.600916   -0.132467
     51          6           0        7.652467   -0.109351   -0.867296
     52          6           0        8.988670   -0.013208   -0.206530
     53          6           0       10.221080   -0.439215   -0.871741
     54          6           0       10.059682   -1.896165   -1.272084
     55          6           0       11.563516   -0.207110   -0.022994
     56          6           0       12.781678   -0.543629   -0.796301
     57          6           0       13.945479   -0.256490    0.165348
     58          6           0       15.397545   -0.361517   -0.404885
     59          6           0       15.653533   -1.801273   -0.761026
     60          6           0       16.484131    0.246165    0.551195
     61          6           0       17.814291    0.411303   -0.117511
     62          6           0       18.831333    1.195735    0.797645
     63          6           0       20.342468    1.417849    0.113268
     64          6           0       20.389657    2.263272   -1.082727
     65          6           0       21.210855    2.061627    1.177747
     66          1           0       -4.172684    3.530359    1.443293
     67          1           0      -10.115123    3.888805   -0.657620
     68          1           0      -10.339452   -2.498071   -1.283175
     69          1           0       -2.469270   -0.907102    2.094774
     70          1           0       -2.140900    1.817917    1.255088
     71          1           0       -2.056540    0.504784    3.293727
     72          1           0       -2.579017    2.498698    3.290397
     73          1           0       -3.866136    0.944096    3.539855
     74          1           0       -1.922586   -1.794787   -0.518905
     75          1           0       -2.052943   -0.084695   -0.770286
     76          1           0       -0.262117    0.455430    0.853276
     77          1           0       -0.295258   -1.210590    1.186336
     78          1           0       -5.615410    6.824800    0.530141
     79          1           0       -5.152153    6.129674    2.160257
     80          1           0       -4.390619    5.718053    0.677624
     81          1           0       -9.399487    5.836597   -0.686253
     82          1           0       -9.184316    7.895835    0.609124
     83          1           0       -7.984685    7.182111    1.848599
     84          1           0      -11.896186    3.325308   -1.962480
     85          1           0      -13.293089    2.205561   -1.271363
     86          1           0      -12.262333    3.067193   -0.431126
     87          1           0      -12.702215   -1.472339   -0.802064
     88          1           0      -13.405913   -0.218229   -1.202224
     89          1           0      -13.342695   -1.570474   -3.471628
     90          1           0      -12.230561   -0.149554   -3.691783
     91          1           0      -11.571924   -1.809827   -3.368896
     92          1           0       -8.917708   -4.654442   -1.917403
     93          1           0       -7.993238   -5.736348   -0.997324
     94          1           0       -9.446219   -5.018865   -0.247056
     95          1           0       -3.373590   -3.356679   -0.269154
     96          1           0       -1.753904   -4.466484    3.626566
     97          1           0       -3.368013   -5.528127    3.404182
     98          1           0       -1.766212   -6.247875    2.902317
     99          1           0        2.678752   -1.879995   -1.504164
    100          1           0        2.632946   -0.004986   -1.905042
    101          1           0        4.313026   -1.055572    0.610190
    102          1           0        4.082455    1.638521   -2.269485
    103          1           0        5.568871    2.205790   -1.825386
    104          1           0        5.540488    0.705485   -2.868339
    105          1           0        6.878149    1.636806    0.004193
    106          1           0        6.404041   -0.065994    0.819064
    107          1           0        7.327587   -1.056819   -1.182555
    108          1           0        7.966138    0.368096   -1.900801
    109          1           0        9.208791    0.909836    0.253232
    110          1           0        9.183889   -0.760188    0.786257
    111          1           0       10.111202    0.088417   -1.782092
    112          1           0        9.115174   -2.026194   -1.955575
    113          1           0       10.965290   -2.275308   -1.932086
    114          1           0        9.872939   -2.495169   -0.517608
    115          1           0       11.633698    0.786174    0.450668
    116          1           0       11.462258   -0.917115    0.854370
    117          1           0       12.983050   -1.339445   -1.336802
    118          1           0       12.798026    0.177694   -1.717840
    119          1           0       14.006158    0.801388    0.385128
    120          1           0       13.624807   -0.953582    0.972622
    121          1           0       15.488054    0.194038   -1.339037
    122          1           0       15.442157   -2.676333   -0.050885
    123          1           0       15.031761   -2.055156   -1.713573
    124          1           0       16.664676   -1.925576   -1.204053
    125          1           0       16.157582    1.134083    0.825076
    126          1           0       16.703663   -0.287576    1.506736
    127          1           0       18.424123   -0.365735   -0.280728
    128          1           0       17.808099    0.970814   -0.886690
    129          1           0       18.300636    2.100635    0.896386
    130          1           0       18.784630    0.864194    1.708048
    131          1           0       20.559426    0.465982   -0.141167
    132          1           0       19.908901    3.352302   -0.803751
    133          1           0       21.390446    2.303892   -1.357357
    134          1           0       19.906253    1.744063   -1.937209
    135          1           0       21.479472    1.617832    2.214118
    136          1           0       22.215609    2.296603    0.774241
    137          1           0       20.959306    3.120734    1.277088
 ---------------------------------------------------------------------

 SCF Done:  E(RCAM-B3LYP) =  -2932.62115716     A.U. after   18 cycles

 Excitation energies and oscillator strengths:

 Excited State   1:      Singlet-A      2.0644 eV  600.58 nm  f=0.2738  <S**2>=0.000
     240 -> 243       -0.20525
     241 -> 242        0.66368
 This state for optimization and/or second-order correction.
 Total Energy, E(TD-HF/TD-KS) =  -2932.54529103
 Copying the excited state density for this state as the 1-particle RhoCI density.

 The electronic state is 1-A.
 Alpha  occ. eigenvalues --  -46.84208 -19.25143 -19.23935 -19.21657 -19.20407
 Alpha  occ. eigenvalues --  -19.20050 -14.41443 -14.39600 -14.39497 -14.39320
 Alpha  occ. eigenvalues --  -10.38941 -10.38420 -10.34942 -10.33212 -10.31474
 Alpha  occ. eigenvalues --  -10.31378 -10.31185 -10.29458 -10.29271 -10.29148
 Alpha  occ. eigenvalues --  -10.28925 -10.28865 -10.28716 -10.28710 -10.28683
 Alpha  occ. eigenvalues --  -10.28422 -10.28283 -10.28279 -10.27865 -10.27668
 Alpha  occ. eigenvalues --  -10.27666 -10.27532 -10.27491 -10.27447 -10.27368
 Alpha  occ. eigenvalues --  -10.27070 -10.27026 -10.26579 -10.26340 -10.26191
 Alpha  occ. eigenvalues --  -10.26075 -10.26071 -10.25847 -10.25842 -10.25821
 Alpha  occ. eigenvalues --  -10.25753 -10.25687 -10.25687 -10.25638 -10.25509
 Alpha  occ. eigenvalues --  -10.25431 -10.25283 -10.25188 -10.25130 -10.25002
 Alpha  occ. eigenvalues --  -10.24905 -10.24843 -10.24785 -10.24728 -10.24660
 Alpha  occ. eigenvalues --  -10.24361 -10.24144 -10.23814 -10.22750 -10.21630
 Alpha  occ. eigenvalues --   -3.13283  -1.87983  -1.87510  -1.87480  -1.16795
 Alpha  occ. eigenvalues --   -1.15758  -1.10896  -1.08316  -1.07790  -1.05418
 Alpha  occ. eigenvalues --   -1.02693  -1.02199  -1.01117  -0.92195  -0.92150
 Alpha  occ. eigenvalues --   -0.91145  -0.90363  -0.90276  -0.89147  -0.88856
 Alpha  occ. eigenvalues --   -0.88738  -0.88489  -0.87554  -0.86469  -0.86417
 Alpha  occ. eigenvalues --   -0.85162  -0.84535  -0.83684  -0.83337  -0.82791
 Alpha  occ. eigenvalues --   -0.82110  -0.80949  -0.80356  -0.80115  -0.78467
 Alpha  occ. eigenvalues --   -0.77660  -0.77504  -0.76014  -0.75544  -0.75519
 Alpha  occ. eigenvalues --   -0.75144  -0.74937  -0.74397  -0.73104  -0.72657
 Alpha  occ. eigenvalues --   -0.71167  -0.70722  -0.70053  -0.69448  -0.68620
 Alpha  occ. eigenvalues --   -0.67719  -0.67326  -0.66434  -0.65266  -0.64804
 Alpha  occ. eigenvalues --   -0.64243  -0.63597  -0.62926  -0.62429  -0.61640
 Alpha  occ. eigenvalues --   -0.60742  -0.60210  -0.59557  -0.58894  -0.58554
 Alpha  occ. eigenvalues --   -0.58379  -0.57391  -0.57224  -0.56047  -0.55966
 Alpha  occ. eigenvalues --   -0.55649  -0.55473  -0.55188  -0.55149  -0.54686
 Alpha  occ. eigenvalues --   -0.54545  -0.53856  -0.53679  -0.53206  -0.52939
 Alpha  occ. eigenvalues --   -0.52823  -0.52586  -0.52490  -0.52315  -0.52198
 Alpha  occ. eigenvalues --   -0.51990  -0.51499  -0.51251  -0.51101  -0.50956
 Alpha  occ. eigenvalues --   -0.50492  -0.50176  -0.50089  -0.49971  -0.49741
 Alpha  occ. eigenvalues --   -0.49210  -0.49030  -0.48908  -0.48742  -0.48614
 Alpha  occ. eigenvalues --   -0.48232  -0.47992  -0.47959  -0.47535  -0.47309
 Alpha  occ. eigenvalues --   -0.47194  -0.46935  -0.46588  -0.46543  -0.45852
 Alpha  occ. eigenvalues --   -0.45686  -0.45636  -0.45496  -0.45282  -0.45127
 Alpha  occ. eigenvalues --   -0.44655  -0.44247  -0.44059  -0.43977  -0.43766
 Alpha  occ. eigenvalues --   -0.43744  -0.43692  -0.43518  -0.43179  -0.43007
 Alpha  occ. eigenvalues --   -0.42973  -0.42865  -0.42480  -0.42437  -0.42167
 Alpha  occ. eigenvalues --   -0.42147  -0.41858  -0.41624  -0.41421  -0.40881
 Alpha  occ. eigenvalues --   -0.40841  -0.40818  -0.40510  -0.40407  -0.40242
 Alpha  occ. eigenvalues --   -0.39816  -0.39785  -0.39412  -0.39213  -0.38899
 Alpha  occ. eigenvalues --   -0.38793  -0.38475  -0.38375  -0.38081  -0.37800
 Alpha  occ. eigenvalues --   -0.37675  -0.37451  -0.37149  -0.36959  -0.36325
 Alpha  occ. eigenvalues --   -0.36263  -0.36211  -0.35946  -0.35826  -0.35630
 Alpha  occ. eigenvalues --   -0.35015  -0.34119  -0.34067  -0.33850  -0.33526
 Alpha  occ. eigenvalues --   -0.33019  -0.32782  -0.32068  -0.30839  -0.30542
 Alpha  occ. eigenvalues --   -0.29882  -0.29535  -0.29161  -0.28247  -0.23486
 Alpha  occ. eigenvalues --   -0.20565
 Alpha virt. eigenvalues --   -0.05911  -0.02214   0.01706   0.03872   0.05112
 Alpha virt. eigenvalues --    0.05795   0.06120   0.06782   0.07448   0.08069
 Alpha virt. eigenvalues --    0.09029   0.10068   0.11285   0.11504   0.12010

 Mulliken charges:
               1
     1  Mg   0.816520
     2  C    0.083814
     3  C   -0.225691
     4  C   -0.196168
     5  C   -0.197655
     6  N   -0.667262
     7  C    0.263072
     8  C   -0.139911
     9  C   -0.203553
    10  C    0.438403
    11  C   -0.293203
    12  C   -0.149963
    13  C   -0.286984
    14  C    0.615013
    15  O   -0.443917
    16  O   -0.528338
    17  N   -0.727308
    18  C    0.302908
    19  C    0.045731
    20  C    0.049498
    21  C    0.321241
    22  C   -0.388436
    23  C   -0.076468
    24  C   -0.251369
    25  N   -0.671329
    26  C    0.286147
    27  C    0.104143
    28  C   -0.022761
    29  C    0.261186
    30  C   -0.399126
    31  C   -0.222961
    32  C   -0.303766
    33  N   -0.677512
    34  C    0.239881
    35  C    0.004642
    36  C   -0.018812
    37  C    0.313399
    38  C   -0.364351
    39  C    0.370975
    40  O   -0.450508
    41  C   -0.329498
    42  C    0.628584
    43  O   -0.473195
    44  O   -0.488611
    45  C   -0.064985
    46  C   -0.002610
    47  C   -0.115769
    48  C    0.127094
    49  C   -0.364308
    50  C   -0.225355
    51  C   -0.181222
    52  C   -0.135964
    53  C   -0.074494
    54  C   -0.295816
    55  C   -0.171863
    56  C   -0.165915
    57  C   -0.169891
    58  C   -0.071262
    59  C   -0.310524
    60  C   -0.171140
    61  C   -0.183283
    62  C   -0.210447
    63  C   -0.049941
    64  C   -0.299154
    65  C   -0.316906
    66  H    0.063683
    67  H    0.064508
    68  H    0.093477
    69  H    0.119684
    70  H    0.095123
    71  H    0.118625
    72  H    0.102683
    73  H    0.127927
    74  H    0.120138
    75  H    0.126246
    76  H    0.116443
    77  H    0.137803
    78  H    0.133245
    79  H    0.115556
    80  H    0.119873
    81  H    0.085298
    82  H    0.106097
    83  H    0.107393
    84  H    0.133572
    85  H    0.091842
    86  H    0.142318
    87  H    0.108693
    88  H    0.105108
    89  H    0.106156
    90  H    0.106742
    91  H    0.094586
    92  H    0.138869
    93  H    0.131214
    94  H    0.138943
    95  H    0.145841
    96  H    0.118838
    97  H    0.129892
    98  H    0.131116
    99  H    0.128658
   100  H    0.142271
   101  H    0.086105
   102  H    0.102183
   103  H    0.117837
   104  H    0.140533
   105  H    0.105287
   106  H    0.096181
   107  H    0.114062
   108  H    0.068814
   109  H    0.091395
   110  H    0.030913
   111  H    0.080509
   112  H    0.080864
   113  H    0.083242
   114  H    0.114417
   115  H    0.101736
   116  H    0.086160
   117  H    0.110408
   118  H    0.063439
   119  H    0.087712
   120  H    0.093975
   121  H    0.090843
   122  H    0.098990
   123  H    0.078121
   124  H    0.095872
   125  H    0.094463
   126  H    0.086092
   127  H    0.099659
   128  H    0.099872
   129  H    0.080665
   130  H    0.093933
   131  H    0.098780
   132  H    0.085491
   133  H    0.115631
   134  H    0.098521
   135  H    0.096508
   136  H    0.085996
   137  H    0.103581
 Sum of Mulliken charges =   0.00000

 Dipole moment (field-independent basis, Debye):
    X=              1.7969    Y=              5.9297    Z=             -0.2117  Tot=              6.1997
 Quadrupole moment (field-independent basis, Debye-Ang):
   XX=           -324.2017   YY=           -387.0415   ZZ=           -398.7859
   XY=            -22.6051   XZ=              0.2872   YZ=             -0.7132

 Normal termination of Gaussian 09 at Sat Jul  6 08:18:50 2019.
