 Gaussian 16, Revision A.03,
 Gaussian 16:  ES64L-G16RevA.03 25-Dec-2016

 ----------------------------------------------------------------------
 # td=(NStates=1) iop(3/107=0140000000,3/108=0140000000) CAM-B3LYP/6-31
 G(d,p)
 ----------------------------------------------------------------------

 --
 TD
 --
 Symbolic Z-matrix:
 Charge =  0 Multiplicity = 1

                         Standard orientation:
 ---------------------------------------------------------------------
 Center     Atomic      Atomic             Coordinates (Angstroms)
 Number     Number       Type             X           Y           Z
 ---------------------------------------------------------------------
      1         12           0       -7.206873    0.567430    0.091375
      2          6           0       -4.839951   -1.892396    0.531615
      3          6           0       -4.798360    2.985737    1.050652
      4          6           0       -9.474670    3.033471   -0.417826
      5          6           0       -9.521758   -1.776713   -0.898094
      6          7           0       -5.130486    0.474585    0.553950
      7          6           0       -4.309543   -0.674185    0.758755
      8          6           0       -2.875631   -0.359427    1.213721
      9          6           0       -2.976149    1.130864    1.557328
     10          6           0       -4.388501    1.538098    0.980243
     11          6           0       -2.986003    1.361420    3.020321
     12          6           0       -1.864703   -0.623490    0.051886
     13          6           0       -0.471083   -0.482181    0.569921
     14          6           0        0.622189   -0.671844   -0.429139
     15          8           0        0.329038   -1.011709   -1.627970
     16          8           0        1.810303   -0.449369   -0.032099
     17          7           0       -7.169625    2.627877    0.185035
     18          6           0       -6.052507    3.409907    0.678468
     19          6           0       -6.483502    4.759752    0.657627
     20          6           0       -7.763405    4.815010    0.304307
     21          6           0       -8.185637    3.492958   -0.052023
     22          6           0       -5.537520    5.925900    1.011214
     23          6           0       -8.599335    6.038990    0.041527
     24          6           0       -8.536658    7.259826    0.773621
     25          7           0       -9.154875    0.553056   -0.523997
     26          6           0       -9.820838    1.724287   -0.699244
     27          6           0      -11.196049    1.406198   -1.065614
     28          6           0      -11.303378    0.098790   -1.206298
     29          6           0       -9.964790   -0.420398   -0.978680
     30          6           0      -12.265584    2.305076   -1.264239
     31          6           0      -12.427021   -0.844504   -1.560801
     32          6           0      -12.353321   -1.283336   -3.046333
     33          7           0       -7.227690   -1.341513   -0.107008
     34          6           0       -8.289486   -2.228235   -0.575427
     35          6           0       -7.802695   -3.578267   -0.523536
     36          6           0       -6.451506   -3.447139   -0.131434
     37          6           0       -6.209507   -2.166688    0.156081
     38          6           0       -8.602371   -4.794047   -0.876408
     39          6           0       -5.407706   -4.298308    0.133417
     40          8           0       -5.257691   -5.569539    0.093371
     41          6           0       -4.189369   -3.253776    0.579590
     42          6           0       -3.521328   -3.637692    1.982279
     43          8           0       -3.690621   -2.977144    2.963215
     44          8           0       -2.782058   -4.677853    1.825879
     45          6           0       -1.999421   -5.148857    2.973624
     46          6           0        2.843070   -0.762536   -1.060266
     47          6           0        4.151995   -0.538470   -0.413505
     48          6           0        5.155612    0.279569   -0.933508
     49          6           0        5.039297    0.996849   -2.228650
     50          6           0        6.397359    0.396109   -0.079902
     51          6           0        7.626209   -0.136133   -0.771656
     52          6           0        8.965138   -0.178232    0.006858
     53          6           0       10.170146   -0.546657   -0.772788
     54          6           0       10.109298   -1.944852   -1.409456
     55          6           0       11.415830   -0.367542    0.011103
     56          6           0       12.861752   -0.559051   -0.723954
     57          6           0       13.983744   -0.188501    0.225269
     58          6           0       15.296169   -0.160348   -0.503979
     59          6           0       15.708740   -1.507360   -0.932250
     60          6           0       16.506508    0.477165    0.327553
     61          6           0       17.812950    0.648444   -0.337206
     62          6           0       18.797930    1.389403    0.670904
     63          6           0       20.250773    1.317535    0.247835
     64          6           0       20.473099    2.021661   -1.055887
     65          6           0       21.124048    1.927329    1.225657
     66          1           0       -4.176918    3.634268    1.671278
     67          1           0      -10.142218    3.767623   -0.740714
     68          1           0      -10.243145   -2.532951   -1.138117
     69          1           0       -2.657099   -1.155959    1.994221
     70          1           0       -2.359201    1.847896    1.084904
     71          1           0       -1.944445    1.186821    3.582821
     72          1           0       -3.257433    2.355002    3.519292
     73          1           0       -3.654860    0.749199    3.610282
     74          1           0       -2.011426   -1.553411   -0.485739
     75          1           0       -2.124381    0.123537   -0.920174
     76          1           0       -0.380199    0.489223    1.091902
     77          1           0       -0.179280   -1.215164    1.458781
     78          1           0       -5.902501    6.860599    0.372638
     79          1           0       -5.420726    6.141709    2.070258
     80          1           0       -4.447544    5.921288    0.780569
     81          1           0       -9.306430    6.052368   -0.767656
     82          1           0       -9.204105    8.113166    0.688015
     83          1           0       -7.791851    7.429986    1.601285
     84          1           0      -11.844186    3.089359   -1.814882
     85          1           0      -13.210809    1.853699   -1.763121
     86          1           0      -12.742720    2.784254   -0.275194
     87          1           0      -12.634149   -1.647356   -0.801443
     88          1           0      -13.354954   -0.314795   -1.559461
     89          1           0      -13.107939   -2.120475   -3.433706
     90          1           0      -12.289033   -0.398960   -3.768027
     91          1           0      -11.326476   -1.572533   -3.145412
     92          1           0       -8.943069   -4.621080   -1.933246
     93          1           0       -8.155981   -5.736793   -0.682637
     94          1           0       -9.403277   -4.858327   -0.125993
     95          1           0       -3.524488   -3.401340   -0.135222
     96          1           0       -1.363571   -4.374713    3.329182
     97          1           0       -2.684266   -5.580912    3.793958
     98          1           0       -1.335029   -6.024212    2.672198
     99          1           0        2.662672   -1.903332   -1.292018
    100          1           0        2.759410   -0.186701   -2.030740
    101          1           0        4.288868   -0.994548    0.507611
    102          1           0        4.187465    0.797420   -2.781321
    103          1           0        5.348340    2.014563   -2.062488
    104          1           0        5.873753    0.762224   -2.863819
    105          1           0        6.564775    1.403742    0.171215
    106          1           0        6.065351   -0.118345    0.825928
    107          1           0        7.411497   -1.420741   -1.053195
    108          1           0        7.782497    0.358627   -1.830605
    109          1           0        9.104856    0.806126    0.495216
    110          1           0        8.733519   -0.799618    0.844883
    111          1           0       10.003382    0.134980   -1.686480
    112          1           0        9.156204   -2.198422   -1.897854
    113          1           0       10.874749   -1.968091   -2.469820
    114          1           0       10.293326   -2.844336   -0.573044
    115          1           0       11.459702    0.818522    0.438263
    116          1           0       11.281434   -0.970961    0.963960
    117          1           0       13.006948   -1.590806   -0.971222
    118          1           0       12.891544    0.174817   -1.627578
    119          1           0       13.789692    0.795958    0.630467
    120          1           0       14.089517   -0.875531    1.117443
    121          1           0       15.218529    0.554510   -1.352715
    122          1           0       15.730605   -2.035594   -0.084756
    123          1           0       14.952951   -2.081337   -1.507519
    124          1           0       16.522481   -1.605703   -1.662611
    125          1           0       16.115113    1.507790    0.765206
    126          1           0       16.629853   -0.291910    1.304443
    127          1           0       18.305985   -0.305707   -0.387577
    128          1           0       17.656204    1.044365   -1.246379
    129          1           0       18.506634    2.460339    0.856737
    130          1           0       18.774618    0.918055    1.643945
    131          1           0       20.377180    0.138176    0.036300
    132          1           0       20.031507    3.010242   -0.759392
    133          1           0       21.596109    2.207480   -1.340145
    134          1           0       19.924186    1.597047   -1.844261
    135          1           0       20.996636    1.368894    2.253808
    136          1           0       22.130053    1.893818    0.836921
    137          1           0       20.959607    2.995572    1.411200
 ---------------------------------------------------------------------

 SCF Done:  E(RCAM-B3LYP) =  -2933.59972062     A.U. after   16 cycles

 Excitation energies and oscillator strengths:

 Excited State   1:      Singlet-A      1.9592 eV  632.83 nm  f=0.2786  <S**2>=0.000
     240 -> 243       -0.18715
     241 -> 242        0.67817
 This state for optimization and/or second-order correction.
 Total Energy, E(TD-HF/TD-DFT) =  -2933.52772071
 Copying the excited state density for this state as the 1-particle RhoCI density.

 The electronic state is 1-A.
 Alpha  occ. eigenvalues --  -46.78701 -19.23345 -19.22969 -19.15884 -19.14669
 Alpha  occ. eigenvalues --  -19.14363 -14.38359 -14.34816 -14.34673 -14.34518
 Alpha  occ. eigenvalues --  -10.34018 -10.33654 -10.29055 -10.28712 -10.28428
 Alpha  occ. eigenvalues --  -10.27964 -10.25598 -10.25144 -10.24786 -10.24429
 Alpha  occ. eigenvalues --  -10.24235 -10.24034 -10.24022 -10.24008 -10.23905
 Alpha  occ. eigenvalues --  -10.23793 -10.23771 -10.23750 -10.23568 -10.23530
 Alpha  occ. eigenvalues --  -10.23455 -10.23112 -10.23055 -10.22919 -10.22756
 Alpha  occ. eigenvalues --  -10.22498 -10.22426 -10.22409 -10.22354 -10.22256
 Alpha  occ. eigenvalues --  -10.22243 -10.22209 -10.22044 -10.21946 -10.21932
 Alpha  occ. eigenvalues --  -10.21930 -10.21836 -10.21727 -10.21585 -10.21568
 Alpha  occ. eigenvalues --  -10.21380 -10.21371 -10.21280 -10.21197 -10.21094
 Alpha  occ. eigenvalues --  -10.20981 -10.20821 -10.20651 -10.20497 -10.20431
 Alpha  occ. eigenvalues --  -10.20185 -10.20052 -10.19845 -10.19338 -10.18759
 Alpha  occ. eigenvalues --   -3.07533  -1.82454  -1.82023  -1.81945  -1.14791
 Alpha  occ. eigenvalues --   -1.14687  -1.05156  -1.01195  -1.00305  -0.99123
 Alpha  occ. eigenvalues --   -0.98100  -0.97549  -0.96788  -0.86933  -0.86830
 Alpha  occ. eigenvalues --   -0.86141  -0.85432  -0.85040  -0.84563  -0.84361
 Alpha  occ. eigenvalues --   -0.83778  -0.82821  -0.82352  -0.82163  -0.81380
 Alpha  occ. eigenvalues --   -0.80168  -0.79540  -0.79041  -0.78288  -0.77429
 Alpha  occ. eigenvalues --   -0.77077  -0.76854  -0.75910  -0.75849  -0.73808
 Alpha  occ. eigenvalues --   -0.72724  -0.72498  -0.72155  -0.71295  -0.70773
 Alpha  occ. eigenvalues --   -0.70329  -0.70184  -0.69413  -0.68906  -0.67971
 Alpha  occ. eigenvalues --   -0.66931  -0.65927  -0.65134  -0.64777  -0.63965
 Alpha  occ. eigenvalues --   -0.62386  -0.61812  -0.61011  -0.60744  -0.60303
 Alpha  occ. eigenvalues --   -0.59871  -0.59035  -0.58445  -0.58152  -0.57981
 Alpha  occ. eigenvalues --   -0.57042  -0.56844  -0.56735  -0.55885  -0.55118
 Alpha  occ. eigenvalues --   -0.54660  -0.54145  -0.53702  -0.53068  -0.53049
 Alpha  occ. eigenvalues --   -0.52321  -0.51838  -0.51712  -0.51293  -0.51140
 Alpha  occ. eigenvalues --   -0.50695  -0.50597  -0.50254  -0.49875  -0.49554
 Alpha  occ. eigenvalues --   -0.48885  -0.48730  -0.48224  -0.48141  -0.47766
 Alpha  occ. eigenvalues --   -0.47643  -0.47491  -0.47429  -0.47332  -0.47060
 Alpha  occ. eigenvalues --   -0.46635  -0.46407  -0.46241  -0.46060  -0.45899
 Alpha  occ. eigenvalues --   -0.45436  -0.45317  -0.45178  -0.45013  -0.44842
 Alpha  occ. eigenvalues --   -0.44333  -0.44210  -0.43940  -0.43754  -0.43572
 Alpha  occ. eigenvalues --   -0.43410  -0.42778  -0.42554  -0.42536  -0.42350
 Alpha  occ. eigenvalues --   -0.42250  -0.42105  -0.41861  -0.41775  -0.41645
 Alpha  occ. eigenvalues --   -0.41229  -0.40816  -0.40756  -0.40591  -0.40553
 Alpha  occ. eigenvalues --   -0.40301  -0.40175  -0.40000  -0.39943  -0.39898
 Alpha  occ. eigenvalues --   -0.39613  -0.39400  -0.39309  -0.39099  -0.38869
 Alpha  occ. eigenvalues --   -0.38744  -0.38236  -0.38119  -0.37991  -0.37933
 Alpha  occ. eigenvalues --   -0.37921  -0.37603  -0.37435  -0.37079  -0.37037
 Alpha  occ. eigenvalues --   -0.36848  -0.36338  -0.36324  -0.36082  -0.35946
 Alpha  occ. eigenvalues --   -0.35881  -0.35598  -0.35560  -0.34893  -0.34750
 Alpha  occ. eigenvalues --   -0.34546  -0.34369  -0.33807  -0.33614  -0.33466
 Alpha  occ. eigenvalues --   -0.33441  -0.33176  -0.33138  -0.32768  -0.32505
 Alpha  occ. eigenvalues --   -0.32410  -0.31989  -0.31567  -0.30531  -0.30412
 Alpha  occ. eigenvalues --   -0.30253  -0.29587  -0.28551  -0.27893  -0.26602
 Alpha  occ. eigenvalues --   -0.26499  -0.25817  -0.25344  -0.25138  -0.22349
 Alpha  occ. eigenvalues --   -0.19296
 Alpha virt. eigenvalues --   -0.06997  -0.03525  -0.00073   0.02035   0.02975
 Alpha virt. eigenvalues --    0.04305   0.04663   0.04956   0.05825   0.06186
 Alpha virt. eigenvalues --    0.07020   0.08397   0.09442   0.09681   0.10227

 Mulliken charges:
               1
     1  Mg   0.813113
     2  C    0.065644
     3  C   -0.201976
     4  C   -0.161165
     5  C   -0.190600
     6  N   -0.604615
     7  C    0.269595
     8  C   -0.137560
     9  C   -0.122224
    10  C    0.304445
    11  C   -0.317994
    12  C   -0.160714
    13  C   -0.256959
    14  C    0.607937
    15  O   -0.530277
    16  O   -0.427634
    17  N   -0.719026
    18  C    0.316999
    19  C    0.053640
    20  C    0.012226
    21  C    0.308758
    22  C   -0.392576
    23  C   -0.104010
    24  C   -0.248878
    25  N   -0.682254
    26  C    0.347281
    27  C    0.034843
    28  C    0.053396
    29  C    0.257192
    30  C   -0.393453
    31  C   -0.239816
    32  C   -0.314322
    33  N   -0.765554
    34  C    0.271935
    35  C    0.039734
    36  C    0.079173
    37  C    0.339137
    38  C   -0.377618
    39  C    0.288116
    40  O   -0.512394
    41  C   -0.326802
    42  C    0.600903
    43  O   -0.471223
    44  O   -0.402256
    45  C   -0.102279
    46  C   -0.001885
    47  C   -0.131900
    48  C    0.134828
    49  C   -0.373382
    50  C   -0.225873
    51  C   -0.155645
    52  C   -0.164262
    53  C   -0.026236
    54  C   -0.286594
    55  C   -0.161933
    56  C   -0.169469
    57  C   -0.164574
    58  C   -0.063561
    59  C   -0.304029
    60  C   -0.158831
    61  C   -0.162524
    62  C   -0.166220
    63  C   -0.050467
    64  C   -0.287114
    65  C   -0.295775
    66  H    0.094084
    67  H    0.070800
    68  H    0.086290
    69  H    0.134167
    70  H    0.119671
    71  H    0.085572
    72  H    0.099861
    73  H    0.137418
    74  H    0.129881
    75  H    0.090772
    76  H    0.131550
    77  H    0.111699
    78  H    0.110495
    79  H    0.124502
    80  H    0.112541
    81  H    0.100315
    82  H    0.109825
    83  H    0.104442
    84  H    0.122503
    85  H    0.106859
    86  H    0.101363
    87  H    0.109536
    88  H    0.103799
    89  H    0.094406
    90  H    0.103628
    91  H    0.113999
    92  H    0.127924
    93  H    0.151632
    94  H    0.125957
    95  H    0.151762
    96  H    0.137664
    97  H    0.134946
    98  H    0.129802
    99  H    0.124178
   100  H    0.129586
   101  H    0.087373
   102  H    0.120435
   103  H    0.122818
   104  H    0.127149
   105  H    0.109315
   106  H    0.105318
   107  H    0.043436
   108  H    0.077051
   109  H    0.086898
   110  H    0.095689
   111  H    0.075363
   112  H    0.111873
   113  H    0.065111
   114  H    0.074622
   115  H    0.048835
   116  H    0.088891
   117  H    0.113475
   118  H    0.087415
   119  H    0.090044
   120  H    0.081477
   121  H    0.069524
   122  H    0.110255
   123  H    0.088414
   124  H    0.101748
   125  H    0.066164
   126  H    0.043537
   127  H    0.104145
   128  H    0.102836
   129  H    0.077096
   130  H    0.094839
   131  H    0.057404
   132  H    0.088743
   133  H    0.083045
   134  H    0.105388
   135  H    0.080759
   136  H    0.102558
   137  H    0.103089
 Sum of Mulliken charges =  -0.00000

 Dipole moment (field-independent basis, Debye):
    X=              3.1434    Y=              4.2627    Z=              1.3885  Tot=              5.4753
 Quadrupole moment (field-independent basis, Debye-Ang):
   XX=           -354.5929   YY=           -393.6856   ZZ=           -394.4444
   XY=            -18.1605   XZ=              3.0197   YZ=             -5.9366

 Normal termination of Gaussian 16 at Sat Sep 14 06:22:14 2019.
