 Gaussian 16, Revision A.03,
 Gaussian 16:  ES64L-G16RevA.03 25-Dec-2016

 ----------------------------------------------------------------------
 # td=(NStates=1) iop(3/107=0140000000,3/108=0140000000) CAM-B3LYP/6-31
 G(d,p)
 ----------------------------------------------------------------------

 --
 TD
 --
 Symbolic Z-matrix:
 Charge =  0 Multiplicity = 1

                         Standard orientation:
 ---------------------------------------------------------------------
 Center     Atomic      Atomic             Coordinates (Angstroms)
 Number     Number       Type             X           Y           Z
 ---------------------------------------------------------------------
      1         12           0       -7.021077    0.609290    0.096312
      2          6           0       -4.840809   -2.052235    0.475559
      3          6           0       -4.586977    2.798932    0.993423
      4          6           0       -9.285506    3.114084   -0.435995
      5          6           0       -9.580736   -1.654307   -0.934600
      6          7           0       -5.093292    0.412583    0.721172
      7          6           0       -4.410147   -0.737002    0.759243
      8          6           0       -2.914500   -0.505857    1.211721
      9          6           0       -2.932277    0.960876    1.701500
     10          6           0       -4.300295    1.470815    1.111095
     11          6           0       -2.951746    1.115507    3.205832
     12          6           0       -1.850280   -0.724577    0.090486
     13          6           0       -0.420960   -0.488734    0.645607
     14          6           0        0.502287   -0.720945   -0.516637
     15          8           0        0.268967   -0.951351   -1.757364
     16          8           0        1.833757   -0.482380   -0.192395
     17          7           0       -6.945471    2.665723    0.450468
     18          6           0       -5.839313    3.409539    0.806177
     19          6           0       -6.228189    4.815994    0.796681
     20          6           0       -7.526084    4.883140    0.427265
     21          6           0       -7.983419    3.530001    0.080346
     22          6           0       -5.278994    5.898707    1.279974
     23          6           0       -8.378962    6.062284    0.293995
     24          6           0       -8.191245    7.306567    0.814131
     25          7           0       -9.018905    0.715252   -0.655148
     26          6           0       -9.840467    1.872465   -0.696342
     27          6           0      -11.176764    1.608993   -1.134709
     28          6           0      -11.203907    0.233934   -1.358690
     29          6           0       -9.922815   -0.312994   -0.910609
     30          6           0      -12.149122    2.676508   -1.443259
     31          6           0      -12.439478   -0.602794   -1.741108
     32          6           0      -12.361661   -1.107865   -3.187508
     33          7           0       -7.132941   -1.404320   -0.290301
     34          6           0       -8.240433   -2.185664   -0.680478
     35          6           0       -7.896774   -3.622380   -0.510286
     36          6           0       -6.562928   -3.576348   -0.131863
     37          6           0       -6.177291   -2.216495    0.045665
     38          6           0       -8.717981   -4.818073   -0.841457
     39          6           0       -5.421547   -4.372794    0.162988
     40          8           0       -5.342938   -5.563487    0.113367
     41          6           0       -4.305941   -3.443467    0.567600
     42          6           0       -3.628723   -3.777736    1.878724
     43          8           0       -3.798029   -3.128503    2.933132
     44          8           0       -2.817714   -4.801472    1.725815
     45          6           0       -2.300497   -5.235142    2.939386
     46          6           0        2.816283   -0.664874   -1.225250
     47          6           0        4.117239   -0.448486   -0.546892
     48          6           0        5.086528    0.356024   -0.890456
     49          6           0        4.935773    1.213099   -2.170521
     50          6           0        6.374073    0.324278   -0.051803
     51          6           0        7.582552   -0.266276   -0.849723
     52          6           0        8.845999   -0.131876   -0.087064
     53          6           0       10.124189   -0.632813   -0.791286
     54          6           0        9.960781   -2.182348   -1.069072
     55          6           0       11.389264   -0.251259   -0.059993
     56          6           0       12.703324   -0.555606   -0.751169
     57          6           0       13.921385   -0.284244    0.245959
     58          6           0       15.281086   -0.218020   -0.400781
     59          6           0       15.698121   -1.667146   -0.860039
     60          6           0       16.299295    0.400254    0.500562
     61          6           0       17.668116    0.676071   -0.168549
     62          6           0       18.739165    1.364338    0.649129
     63          6           0       20.054847    1.378503    0.061944
     64          6           0       20.110030    2.215730   -1.214082
     65          6           0       21.145221    1.940101    1.129157
     66          1           0       -3.660249    3.443073    1.332205
     67          1           0       -9.870241    3.931714   -0.555491
     68          1           0      -10.359352   -2.347059   -1.230508
     69          1           0       -2.617376   -0.950957    2.126999
     70          1           0       -2.223376    1.603594    1.090055
     71          1           0       -1.978939    0.896840    3.528553
     72          1           0       -3.184216    2.237120    3.446497
     73          1           0       -3.763472    0.564586    3.825108
     74          1           0       -1.921604   -1.719255   -0.175618
     75          1           0       -1.874750    0.062755   -0.773725
     76          1           0       -0.175305    0.580288    1.163928
     77          1           0       -0.208759   -1.240042    1.471463
     78          1           0       -5.355997    6.857619    0.559961
     79          1           0       -5.561239    6.472773    2.371754
     80          1           0       -4.245009    5.442837    1.102356
     81          1           0       -9.437964    6.101797   -0.232392
     82          1           0       -9.054533    8.018911    0.668454
     83          1           0       -7.222081    7.647002    1.384100
     84          1           0      -11.797311    3.115019   -2.416536
     85          1           0      -13.233847    2.336171   -1.699938
     86          1           0      -12.248994    3.474486   -0.543018
     87          1           0      -12.344711   -1.186567   -0.915190
     88          1           0      -13.543839   -0.062819   -1.624259
     89          1           0      -13.346332   -1.818988   -3.278194
     90          1           0      -12.767130   -0.192120   -3.766814
     91          1           0      -11.310635   -1.809921   -3.527909
     92          1           0       -9.219686   -4.724337   -1.865283
     93          1           0       -8.095630   -5.750310   -0.516533
     94          1           0       -9.585759   -4.940726   -0.000394
     95          1           0       -3.562256   -3.554745   -0.160514
     96          1           0       -1.799978   -4.236028    3.404660
     97          1           0       -3.131863   -5.711893    3.369173
     98          1           0       -1.681166   -6.095456    2.562580
     99          1           0        2.761757   -1.645663   -1.599559
    100          1           0        2.543460    0.056114   -1.992817
    101          1           0        4.148466   -1.132509    0.209862
    102          1           0        3.962973    1.413035   -2.551645
    103          1           0        5.301865    2.228060   -2.061072
    104          1           0        5.694197    0.832207   -2.996417
    105          1           0        6.587740    1.402784    0.286108
    106          1           0        6.204449   -0.315715    0.885807
    107          1           0        7.353569   -1.345921   -0.949361
    108          1           0        7.611089    0.482252   -1.841327
    109          1           0        9.009865    0.899300    0.132100
    110          1           0        8.935521   -0.543709    1.027068
    111          1           0       10.062739   -0.070294   -1.758865
    112          1           0        9.238207   -2.409735   -1.742392
    113          1           0       10.884425   -2.603813   -1.604922
    114          1           0        9.851206   -2.714034   -0.155516
    115          1           0       11.339582    0.785451    0.255871
    116          1           0       11.470572   -0.753264    0.865985
    117          1           0       12.872804   -1.597226   -1.036331
    118          1           0       12.774202    0.088773   -1.682707
    119          1           0       13.715152    0.621613    0.985291
    120          1           0       14.048303   -1.330106    0.768174
    121          1           0       15.337302    0.430593   -1.404239
    122          1           0       15.861601   -2.288990   -0.040814
    123          1           0       14.896057   -2.151065   -1.350048
    124          1           0       16.760459   -1.652087   -1.445619
    125          1           0       16.257196    1.377525    0.818648
    126          1           0       16.412241   -0.317749    1.404269
    127          1           0       18.161938   -0.235756   -0.717187
    128          1           0       17.498387    1.386068   -1.147458
    129          1           0       18.420284    2.508363    0.702917
    130          1           0       18.900799    0.793969    1.544001
    131          1           0       20.192779    0.321777    0.027200
    132          1           0       19.749279    3.187275   -0.947826
    133          1           0       21.207070    2.453285   -1.502561
    134          1           0       19.590826    1.879280   -2.017632
    135          1           0       20.810777    1.211928    1.891067
    136          1           0       22.229062    1.748516    0.750601
    137          1           0       21.107519    2.925190    1.262742
 ---------------------------------------------------------------------

 SCF Done:  E(RCAM-B3LYP) =  -2933.53497232     A.U. after   16 cycles

 Excitation energies and oscillator strengths:

 Excited State   1:      Singlet-A      1.9964 eV  621.04 nm  f=0.2949  <S**2>=0.000
     240 -> 243        0.23299
     241 -> 242        0.66574
 This state for optimization and/or second-order correction.
 Total Energy, E(TD-HF/TD-DFT) =  -2933.46160582
 Copying the excited state density for this state as the 1-particle RhoCI density.

 The electronic state is 1-A.
 Alpha  occ. eigenvalues --  -46.80296 -19.23162 -19.20777 -19.16733 -19.16557
 Alpha  occ. eigenvalues --  -19.15477 -14.37900 -14.35299 -14.35259 -14.35238
 Alpha  occ. eigenvalues --  -10.35103 -10.34797 -10.29322 -10.27616 -10.26906
 Alpha  occ. eigenvalues --  -10.26107 -10.25817 -10.25696 -10.25612 -10.25565
 Alpha  occ. eigenvalues --  -10.25540 -10.25024 -10.24717 -10.24654 -10.24537
 Alpha  occ. eigenvalues --  -10.24103 -10.23869 -10.23867 -10.23604 -10.23535
 Alpha  occ. eigenvalues --  -10.23442 -10.23414 -10.23363 -10.23158 -10.23044
 Alpha  occ. eigenvalues --  -10.22964 -10.22816 -10.22718 -10.22645 -10.22610
 Alpha  occ. eigenvalues --  -10.22584 -10.22564 -10.22440 -10.22405 -10.22403
 Alpha  occ. eigenvalues --  -10.22386 -10.22340 -10.22310 -10.22305 -10.22196
 Alpha  occ. eigenvalues --  -10.22112 -10.22038 -10.21672 -10.21247 -10.20858
 Alpha  occ. eigenvalues --  -10.20705 -10.20600 -10.20494 -10.20490 -10.20117
 Alpha  occ. eigenvalues --  -10.19963 -10.19903 -10.19623 -10.19557 -10.19320
 Alpha  occ. eigenvalues --   -3.08778  -1.83735  -1.83259  -1.83163  -1.15771
 Alpha  occ. eigenvalues --   -1.10613  -1.07178  -1.03738  -1.00874  -0.99582
 Alpha  occ. eigenvalues --   -0.98462  -0.97184  -0.96246  -0.88257  -0.86159
 Alpha  occ. eigenvalues --   -0.85849  -0.85229  -0.84708  -0.83923  -0.83708
 Alpha  occ. eigenvalues --   -0.83260  -0.83025  -0.82533  -0.82011  -0.81014
 Alpha  occ. eigenvalues --   -0.80182  -0.79677  -0.78644  -0.77803  -0.77406
 Alpha  occ. eigenvalues --   -0.76848  -0.76411  -0.75538  -0.74781  -0.73123
 Alpha  occ. eigenvalues --   -0.72754  -0.72367  -0.71588  -0.71559  -0.71418
 Alpha  occ. eigenvalues --   -0.70982  -0.70409  -0.69825  -0.68600  -0.67758
 Alpha  occ. eigenvalues --   -0.66780  -0.65948  -0.64738  -0.64369  -0.63654
 Alpha  occ. eigenvalues --   -0.61948  -0.61713  -0.60940  -0.60363  -0.59985
 Alpha  occ. eigenvalues --   -0.59544  -0.58517  -0.58495  -0.58339  -0.57861
 Alpha  occ. eigenvalues --   -0.56986  -0.56848  -0.55997  -0.55470  -0.55159
 Alpha  occ. eigenvalues --   -0.54932  -0.54430  -0.53855  -0.53536  -0.52896
 Alpha  occ. eigenvalues --   -0.52284  -0.52091  -0.51452  -0.51446  -0.51225
 Alpha  occ. eigenvalues --   -0.50741  -0.50567  -0.50109  -0.50041  -0.49796
 Alpha  occ. eigenvalues --   -0.49508  -0.48385  -0.48133  -0.48023  -0.47775
 Alpha  occ. eigenvalues --   -0.47607  -0.46925  -0.46828  -0.46613  -0.46417
 Alpha  occ. eigenvalues --   -0.46339  -0.46219  -0.46046  -0.45897  -0.45423
 Alpha  occ. eigenvalues --   -0.45339  -0.45211  -0.44888  -0.44758  -0.44503
 Alpha  occ. eigenvalues --   -0.44436  -0.44324  -0.44226  -0.44063  -0.43395
 Alpha  occ. eigenvalues --   -0.43074  -0.42976  -0.42431  -0.42315  -0.42180
 Alpha  occ. eigenvalues --   -0.42020  -0.41824  -0.41704  -0.41480  -0.41363
 Alpha  occ. eigenvalues --   -0.41106  -0.40996  -0.40807  -0.40695  -0.40455
 Alpha  occ. eigenvalues --   -0.40313  -0.40092  -0.39976  -0.39825  -0.39653
 Alpha  occ. eigenvalues --   -0.39594  -0.39496  -0.39422  -0.39149  -0.38909
 Alpha  occ. eigenvalues --   -0.38751  -0.38536  -0.38367  -0.38117  -0.38069
 Alpha  occ. eigenvalues --   -0.37860  -0.37764  -0.37443  -0.37296  -0.37038
 Alpha  occ. eigenvalues --   -0.36714  -0.36616  -0.36328  -0.36205  -0.36035
 Alpha  occ. eigenvalues --   -0.35238  -0.35106  -0.34720  -0.34610  -0.34357
 Alpha  occ. eigenvalues --   -0.34168  -0.34064  -0.33755  -0.33590  -0.33473
 Alpha  occ. eigenvalues --   -0.33343  -0.33112  -0.32890  -0.32878  -0.32528
 Alpha  occ. eigenvalues --   -0.32382  -0.31772  -0.31635  -0.30934  -0.30550
 Alpha  occ. eigenvalues --   -0.30352  -0.29737  -0.29262  -0.28580  -0.27219
 Alpha  occ. eigenvalues --   -0.27150  -0.26736  -0.25597  -0.24788  -0.21601
 Alpha  occ. eigenvalues --   -0.20024
 Alpha virt. eigenvalues --   -0.07395  -0.03740   0.00278   0.01706   0.02476
 Alpha virt. eigenvalues --    0.03450   0.04784   0.05228   0.05319   0.05476
 Alpha virt. eigenvalues --    0.06135   0.08062   0.08866   0.09239   0.09460

 Mulliken charges:
               1
     1  Mg   0.808705
     2  C    0.113145
     3  C   -0.197189
     4  C   -0.164767
     5  C   -0.181836
     6  N   -0.642949
     7  C    0.303072
     8  C   -0.153120
     9  C   -0.151159
    10  C    0.306707
    11  C   -0.308274
    12  C   -0.153322
    13  C   -0.275184
    14  C    0.609042
    15  O   -0.499665
    16  O   -0.489748
    17  N   -0.705105
    18  C    0.318805
    19  C    0.026785
    20  C    0.046846
    21  C    0.270278
    22  C   -0.366503
    23  C   -0.088079
    24  C   -0.243194
    25  N   -0.668200
    26  C    0.310198
    27  C    0.078326
    28  C   -0.014083
    29  C    0.320590
    30  C   -0.383067
    31  C   -0.227673
    32  C   -0.281217
    33  N   -0.729655
    34  C    0.226270
    35  C    0.039214
    36  C    0.040986
    37  C    0.306999
    38  C   -0.394772
    39  C    0.340054
    40  O   -0.458576
    41  C   -0.321524
    42  C    0.611649
    43  O   -0.500230
    44  O   -0.405364
    45  C   -0.087260
    46  C    0.029251
    47  C   -0.111334
    48  C    0.141653
    49  C   -0.382380
    50  C   -0.237056
    51  C   -0.158572
    52  C   -0.161200
    53  C   -0.052367
    54  C   -0.322456
    55  C   -0.170232
    56  C   -0.168184
    57  C   -0.182009
    58  C   -0.035036
    59  C   -0.327451
    60  C   -0.135031
    61  C   -0.193545
    62  C   -0.137537
    63  C   -0.070283
    64  C   -0.310720
    65  C   -0.299202
    66  H    0.076202
    67  H    0.059575
    68  H    0.088015
    69  H    0.119579
    70  H    0.099084
    71  H    0.116104
    72  H    0.097427
    73  H    0.130837
    74  H    0.124310
    75  H    0.122148
    76  H    0.135902
    77  H    0.135878
    78  H    0.107029
    79  H    0.105309
    80  H    0.109963
    81  H    0.087815
    82  H    0.095878
    83  H    0.088211
    84  H    0.134349
    85  H    0.104343
    86  H    0.108771
    87  H    0.126979
    88  H    0.081721
    89  H    0.082079
    90  H    0.119172
    91  H    0.095289
    92  H    0.130034
    93  H    0.149386
    94  H    0.105534
    95  H    0.167604
    96  H    0.126588
    97  H    0.143270
    98  H    0.119693
    99  H    0.124665
   100  H    0.111219
   101  H    0.082306
   102  H    0.125548
   103  H    0.111594
   104  H    0.106548
   105  H    0.090163
   106  H    0.097128
   107  H    0.108268
   108  H    0.076185
   109  H    0.089682
   110  H    0.065223
   111  H    0.072442
   112  H    0.116474
   113  H    0.083733
   114  H    0.106279
   115  H    0.090465
   116  H    0.093859
   117  H    0.097407
   118  H    0.084838
   119  H    0.079343
   120  H    0.079323
   121  H    0.062325
   122  H    0.109940
   123  H    0.110118
   124  H    0.088340
   125  H    0.105530
   126  H    0.072346
   127  H    0.066657
   128  H    0.063887
   129  H    0.065007
   130  H    0.086197
   131  H    0.085885
   132  H    0.101111
   133  H    0.082619
   134  H    0.114196
   135  H    0.094675
   136  H    0.085886
   137  H    0.116244
 Sum of Mulliken charges =  -0.00000

 Dipole moment (field-independent basis, Debye):
    X=              0.4712    Y=              2.7684    Z=              1.1089  Tot=              3.0193
 Quadrupole moment (field-independent basis, Debye-Ang):
   XX=           -349.8598   YY=           -393.7662   ZZ=           -402.8997
   XY=            -16.1826   XZ=             11.4506   YZ=             -5.7581

 Normal termination of Gaussian 16 at Wed Sep  4 04:39:38 2019.
