 Gaussian 09, Revision D.01,
 Gaussian 09:  ES64L-G09RevD.01 24-Apr-2013

 -------------------------------------
 # td=(NStates=1) CAM-B3LYP/6-31G(d,p)
 -------------------------------------

 --
 TD
 --
 Symbolic Z-matrix:
 Charge =  0 Multiplicity = 1

                         Standard orientation:
 ---------------------------------------------------------------------
 Center     Atomic      Atomic             Coordinates (Angstroms)
 Number     Number       Type             X           Y           Z
 ---------------------------------------------------------------------
      1         12           0       -7.117784    0.676135    0.121481
      2          6           0       -4.861089   -1.988893    0.331873
      3          6           0       -4.822678    2.878761    1.016768
      4          6           0       -9.461388    3.178541   -0.367157
      5          6           0       -9.606083   -1.743010   -0.755533
      6          7           0       -5.186646    0.445550    0.630284
      7          6           0       -4.433098   -0.710443    0.670662
      8          6           0       -2.945138   -0.402498    1.210651
      9          6           0       -3.105969    1.129572    1.699142
     10          6           0       -4.484159    1.534753    1.168534
     11          6           0       -2.902021    1.217133    3.169401
     12          6           0       -1.956252   -0.693408    0.044471
     13          6           0       -0.501273   -0.409552    0.578537
     14          6           0        0.485958   -0.721698   -0.497070
     15          8           0        0.101282   -1.026330   -1.608794
     16          8           0        1.709903   -0.635263   -0.037675
     17          7           0       -7.054599    2.683716    0.285688
     18          6           0       -6.089732    3.382386    0.682079
     19          6           0       -6.488419    4.754039    0.747625
     20          6           0       -7.796137    4.817421    0.353813
     21          6           0       -8.193915    3.507482    0.014582
     22          6           0       -5.563581    5.939836    0.972738
     23          6           0       -8.589475    5.978551    0.214803
     24          6           0       -8.500660    7.224465    0.824574
     25          7           0       -9.104619    0.680470   -0.394887
     26          6           0       -9.893317    1.789670   -0.663363
     27          6           0      -11.155059    1.546139   -1.196699
     28          6           0      -11.275511    0.175797   -1.179167
     29          6           0       -9.951269   -0.410951   -0.749077
     30          6           0      -12.233318    2.549825   -1.547799
     31          6           0      -12.358107   -0.720914   -1.651487
     32          6           0      -12.251959   -1.087253   -3.077057
     33          7           0       -7.230274   -1.363915   -0.199554
     34          6           0       -8.280151   -2.268951   -0.563973
     35          6           0       -7.879880   -3.603145   -0.553613
     36          6           0       -6.565488   -3.519889   -0.161881
     37          6           0       -6.275007   -2.175223   -0.021734
     38          6           0       -8.678591   -4.835474   -0.728064
     39          6           0       -5.364798   -4.242485    0.126464
     40          8           0       -5.104810   -5.509452    0.175717
     41          6           0       -4.278997   -3.313617    0.444256
     42          6           0       -3.572656   -3.613781    1.739422
     43          8           0       -3.781988   -3.035350    2.869092
     44          8           0       -2.662723   -4.687748    1.662853
     45          6           0       -2.109454   -5.098915    2.928243
     46          6           0        2.712286   -0.694844   -1.099164
     47          6           0        4.052981   -0.631217   -0.396443
     48          6           0        5.073737    0.046004   -0.918650
     49          6           0        5.029041    0.884975   -2.244553
     50          6           0        6.419336    0.191918   -0.149229
     51          6           0        7.660927   -0.274709   -0.834915
     52          6           0        8.913715   -0.265680   -0.046469
     53          6           0       10.214552   -0.705542   -0.718743
     54          6           0       10.157952   -2.210554   -1.085510
     55          6           0       11.472492   -0.304450    0.040632
     56          6           0       12.837386   -0.582290   -0.634246
     57          6           0       14.120789   -0.256416    0.255270
     58          6           0       15.525908   -0.092209   -0.522283
     59          6           0       15.921876   -1.571620   -0.894694
     60          6           0       16.461314    0.505841    0.439164
     61          6           0       17.856681    0.659083   -0.207410
     62          6           0       18.984402    1.456243    0.655627
     63          6           0       20.304707    1.582562    0.026962
     64          6           0       20.424327    2.533030   -1.124698
     65          6           0       21.350574    1.901649    1.141181
     66          1           0       -4.125411    3.499115    1.605780
     67          1           0      -10.063800    3.951927   -0.681166
     68          1           0      -10.332535   -2.351339   -1.108695
     69          1           0       -2.667033   -1.023775    2.184291
     70          1           0       -2.366574    1.791668    1.393687
     71          1           0       -1.883752    0.887025    3.468117
     72          1           0       -3.217937    2.283043    3.232199
     73          1           0       -3.597768    0.765711    3.643647
     74          1           0       -1.981088   -1.761247   -0.209721
     75          1           0       -1.906373    0.020325   -0.797340
     76          1           0       -0.490992    0.670573    0.606499
     77          1           0       -0.225704   -1.024271    1.678175
     78          1           0       -6.097897    6.827757    0.243489
     79          1           0       -5.360657    5.999606    2.151488
     80          1           0       -4.600706    5.622157    0.570293
     81          1           0       -9.385951    5.976935   -0.677145
     82          1           0       -9.217123    7.792753    0.615593
     83          1           0       -7.871953    7.230182    1.847364
     84          1           0      -11.939495    3.154919   -2.405230
     85          1           0      -13.186785    2.046477   -1.830358
     86          1           0      -12.376880    3.148079   -0.784360
     87          1           0      -12.470407   -1.594992   -0.970916
     88          1           0      -13.403799   -0.189009   -1.539474
     89          1           0      -12.985463   -1.836011   -3.624563
     90          1           0      -12.033862   -0.210834   -3.708969
     91          1           0      -11.162197   -1.685378   -3.273329
     92          1           0       -9.084114   -5.003486   -1.793502
     93          1           0       -8.175480   -5.761584   -0.523741
     94          1           0       -9.626144   -4.649680   -0.239225
     95          1           0       -3.511599   -3.685503   -0.386502
     96          1           0       -1.702230   -4.305888    3.140341
     97          1           0       -2.900057   -5.458956    3.713251
     98          1           0       -1.617567   -5.975570    2.851097
     99          1           0        2.567631   -1.905058   -1.494682
    100          1           0        2.726661    0.149324   -1.914092
    101          1           0        4.326016   -1.233113    0.418522
    102          1           0        3.870270    1.157050   -2.394047
    103          1           0        5.596551    1.862674   -2.164148
    104          1           0        5.381147    0.356298   -3.044628
    105          1           0        6.366809    1.079286    0.242638
    106          1           0        6.308133   -0.461141    0.757703
    107          1           0        7.436810   -1.219612   -1.379362
    108          1           0        7.871108    0.433076   -1.610627
    109          1           0        8.983301    0.590349    0.380691
    110          1           0        8.900116   -1.029252    0.860964
    111          1           0       10.059322   -0.159255   -1.851406
    112          1           0        9.192609   -2.511657   -1.716679
    113          1           0       11.195093   -2.547859   -1.708291
    114          1           0       10.083791   -2.784966   -0.094989
    115          1           0       11.411415    0.775933    0.250920
    116          1           0       11.595310   -0.705113    1.137199
    117          1           0       13.032190   -1.499110   -1.040224
    118          1           0       12.764245    0.026816   -1.542397
    119          1           0       13.851970    0.510055    0.641617
    120          1           0       14.253190   -1.014554    0.919890
    121          1           0       15.596580    0.421497   -1.406374
    122          1           0       15.607393   -2.095791    0.030093
    123          1           0       15.184104   -1.930693   -1.473453
    124          1           0       16.936482   -1.833081   -1.372835
    125          1           0       15.994671    1.491845    0.626903
    126          1           0       16.312571    0.003862    1.484735
    127          1           0       18.370926   -0.351184   -0.340033
    128          1           0       17.790874    1.140267   -1.228092
    129          1           0       18.465487    2.491844    0.596438
    130          1           0       18.973076    1.044460    1.622167
    131          1           0       20.598882    0.630114   -0.420995
    132          1           0       20.297348    3.615456   -0.552469
    133          1           0       21.336683    2.556368   -1.556163
    134          1           0       19.616551    2.549702   -1.954514
    135          1           0       21.450731    0.923141    1.881817
    136          1           0       22.337699    2.079231    0.618002
    137          1           0       20.940791    2.864577    1.760331
 ---------------------------------------------------------------------

 SCF Done:  E(RCAM-B3LYP) =  -2932.54047714     A.U. after   16 cycles

 Excitation energies and oscillator strengths:

 Excited State   1:      Singlet-A      2.1465 eV  577.61 nm  f=0.2999  <S**2>=0.000
     240 -> 242       -0.22032
     240 -> 243        0.18404
     241 -> 242        0.62333
     241 -> 243        0.13704
 This state for optimization and/or second-order correction.
 Total Energy, E(TD-HF/TD-KS) =  -2932.46159492
 Copying the excited state density for this state as the 1-particle RhoCI density.

 The electronic state is 1-A.
 Alpha  occ. eigenvalues --  -46.83818 -19.27118 -19.25181 -19.20389 -19.20080
 Alpha  occ. eigenvalues --  -19.17676 -14.41344 -14.40344 -14.39870 -14.39048
 Alpha  occ. eigenvalues --  -10.39742 -10.38206 -10.34419 -10.33444 -10.31786
 Alpha  occ. eigenvalues --  -10.30633 -10.30152 -10.30062 -10.29979 -10.29169
 Alpha  occ. eigenvalues --  -10.29038 -10.28725 -10.28478 -10.28400 -10.28324
 Alpha  occ. eigenvalues --  -10.28116 -10.27974 -10.27831 -10.27824 -10.27803
 Alpha  occ. eigenvalues --  -10.27674 -10.27666 -10.27626 -10.27624 -10.27589
 Alpha  occ. eigenvalues --  -10.27457 -10.27370 -10.27353 -10.27227 -10.26966
 Alpha  occ. eigenvalues --  -10.26712 -10.26672 -10.26664 -10.26572 -10.26482
 Alpha  occ. eigenvalues --  -10.26039 -10.26028 -10.25919 -10.25917 -10.25799
 Alpha  occ. eigenvalues --  -10.25794 -10.25570 -10.25454 -10.25345 -10.25317
 Alpha  occ. eigenvalues --  -10.25256 -10.25062 -10.25054 -10.24717 -10.24621
 Alpha  occ. eigenvalues --  -10.24401 -10.24045 -10.23639 -10.23507 -10.23061
 Alpha  occ. eigenvalues --   -3.13051  -1.87749  -1.87282  -1.87254  -1.19242
 Alpha  occ. eigenvalues --   -1.14620  -1.09359  -1.06673  -1.06370  -1.05352
 Alpha  occ. eigenvalues --   -1.04753  -1.02022  -1.01518  -0.92983  -0.91800
 Alpha  occ. eigenvalues --   -0.91226  -0.90693  -0.89737  -0.89554  -0.89259
 Alpha  occ. eigenvalues --   -0.89018  -0.88835  -0.88280  -0.87685  -0.86492
 Alpha  occ. eigenvalues --   -0.85816  -0.84247  -0.84074  -0.83466  -0.83093
 Alpha  occ. eigenvalues --   -0.81690  -0.81136  -0.80314  -0.79642  -0.78405
 Alpha  occ. eigenvalues --   -0.77966  -0.77547  -0.76905  -0.76710  -0.75812
 Alpha  occ. eigenvalues --   -0.75470  -0.74978  -0.74119  -0.73714  -0.72885
 Alpha  occ. eigenvalues --   -0.72072  -0.70363  -0.69827  -0.68966  -0.68583
 Alpha  occ. eigenvalues --   -0.67932  -0.67358  -0.66231  -0.65364  -0.64433
 Alpha  occ. eigenvalues --   -0.63959  -0.63185  -0.62218  -0.62034  -0.61972
 Alpha  occ. eigenvalues --   -0.61705  -0.60654  -0.59869  -0.59742  -0.59278
 Alpha  occ. eigenvalues --   -0.59068  -0.58301  -0.58174  -0.57386  -0.56433
 Alpha  occ. eigenvalues --   -0.56194  -0.55902  -0.55675  -0.55517  -0.54971
 Alpha  occ. eigenvalues --   -0.54867  -0.54186  -0.54145  -0.53786  -0.52973
 Alpha  occ. eigenvalues --   -0.52591  -0.52446  -0.52181  -0.52126  -0.51879
 Alpha  occ. eigenvalues --   -0.51732  -0.51276  -0.51154  -0.51054  -0.50860
 Alpha  occ. eigenvalues --   -0.50748  -0.50470  -0.50179  -0.50055  -0.49665
 Alpha  occ. eigenvalues --   -0.49427  -0.49401  -0.48826  -0.48637  -0.48468
 Alpha  occ. eigenvalues --   -0.48411  -0.47858  -0.47715  -0.47551  -0.47224
 Alpha  occ. eigenvalues --   -0.46826  -0.46735  -0.46714  -0.46468  -0.46247
 Alpha  occ. eigenvalues --   -0.45929  -0.45601  -0.45346  -0.45068  -0.44879
 Alpha  occ. eigenvalues --   -0.44643  -0.44586  -0.44538  -0.44336  -0.44212
 Alpha  occ. eigenvalues --   -0.43884  -0.43780  -0.43706  -0.43131  -0.43098
 Alpha  occ. eigenvalues --   -0.42801  -0.42598  -0.42497  -0.42399  -0.42293
 Alpha  occ. eigenvalues --   -0.41833  -0.41785  -0.41366  -0.41152  -0.41007
 Alpha  occ. eigenvalues --   -0.40810  -0.40694  -0.40557  -0.40354  -0.40259
 Alpha  occ. eigenvalues --   -0.40092  -0.39919  -0.39708  -0.39204  -0.38738
 Alpha  occ. eigenvalues --   -0.38699  -0.38359  -0.38122  -0.38047  -0.37700
 Alpha  occ. eigenvalues --   -0.37500  -0.37422  -0.37032  -0.36805  -0.36710
 Alpha  occ. eigenvalues --   -0.36612  -0.36201  -0.35990  -0.35900  -0.35278
 Alpha  occ. eigenvalues --   -0.35041  -0.34322  -0.34302  -0.33381  -0.33212
 Alpha  occ. eigenvalues --   -0.32877  -0.32478  -0.32357  -0.30802  -0.30243
 Alpha  occ. eigenvalues --   -0.29666  -0.28880  -0.28648  -0.27999  -0.23843
 Alpha  occ. eigenvalues --   -0.21753
 Alpha virt. eigenvalues --   -0.06983  -0.03264   0.01801   0.03012   0.04614
 Alpha virt. eigenvalues --    0.05778   0.06129   0.06508   0.06755   0.07262
 Alpha virt. eigenvalues --    0.08154   0.10602   0.10961   0.11327   0.11428

 Mulliken charges:
               1
     1  Mg   0.808713
     2  C    0.094847
     3  C   -0.201538
     4  C   -0.146432
     5  C   -0.140456
     6  N   -0.667488
     7  C    0.286200
     8  C   -0.158418
     9  C   -0.164067
    10  C    0.329120
    11  C   -0.287017
    12  C   -0.149955
    13  C   -0.280608
    14  C    0.622334
    15  O   -0.483470
    16  O   -0.450032
    17  N   -0.726092
    18  C    0.387322
    19  C   -0.028385
    20  C    0.070422
    21  C    0.290409
    22  C   -0.362750
    23  C   -0.137091
    24  C   -0.214608
    25  N   -0.672944
    26  C    0.269675
    27  C    0.041045
    28  C    0.009639
    29  C    0.272631
    30  C   -0.362202
    31  C   -0.244635
    32  C   -0.289964
    33  N   -0.700706
    34  C    0.177765
    35  C    0.077680
    36  C    0.034425
    37  C    0.326696
    38  C   -0.383952
    39  C    0.323317
    40  O   -0.529431
    41  C   -0.297368
    42  C    0.641265
    43  O   -0.510930
    44  O   -0.479967
    45  C   -0.034389
    46  C    0.013656
    47  C   -0.106041
    48  C    0.075267
    49  C   -0.355015
    50  C   -0.221468
    51  C   -0.180514
    52  C   -0.136013
    53  C   -0.046776
    54  C   -0.284657
    55  C   -0.181870
    56  C   -0.197991
    57  C   -0.175553
    58  C   -0.070983
    59  C   -0.315540
    60  C   -0.147936
    61  C   -0.201927
    62  C   -0.163186
    63  C   -0.043211
    64  C   -0.294666
    65  C   -0.290141
    66  H    0.077360
    67  H    0.088781
    68  H    0.087733
    69  H    0.123810
    70  H    0.111019
    71  H    0.114645
    72  H    0.083100
    73  H    0.133917
    74  H    0.122239
    75  H    0.124211
    76  H    0.133368
    77  H    0.095060
    78  H    0.120661
    79  H    0.111319
    80  H    0.124230
    81  H    0.082983
    82  H    0.097257
    83  H    0.109079
    84  H    0.121848
    85  H    0.115312
    86  H    0.137654
    87  H    0.111490
    88  H    0.090480
    89  H    0.103469
    90  H    0.118823
    91  H    0.067876
    92  H    0.113120
    93  H    0.159790
    94  H    0.125522
    95  H    0.173891
    96  H    0.122595
    97  H    0.107011
    98  H    0.127258
    99  H    0.110987
   100  H    0.118581
   101  H    0.096747
   102  H    0.087706
   103  H    0.110877
   104  H    0.145791
   105  H    0.119793
   106  H    0.085814
   107  H    0.097250
   108  H    0.095212
   109  H    0.096304
   110  H    0.060974
   111  H    0.043660
   112  H    0.091999
   113  H    0.081783
   114  H    0.094940
   115  H    0.097002
   116  H    0.078083
   117  H    0.101321
   118  H    0.091080
   119  H    0.088038
   120  H    0.105184
   121  H    0.090819
   122  H    0.086965
   123  H    0.108573
   124  H    0.097422
   125  H    0.087506
   126  H    0.074887
   127  H    0.089273
   128  H    0.088686
   129  H    0.076825
   130  H    0.100303
   131  H    0.085771
   132  H    0.063037
   133  H    0.115436
   134  H    0.095703
   135  H    0.082387
   136  H    0.097166
   137  H    0.089163
 Sum of Mulliken charges =   0.00000

 Dipole moment (field-independent basis, Debye):
    X=              0.1589    Y=              6.3557    Z=             -0.4166  Tot=              6.3714
 Quadrupole moment (field-independent basis, Debye-Ang):
   XX=           -317.7197   YY=           -402.8801   ZZ=           -397.0219
   XY=            -32.1851   XZ=             10.6840   YZ=             -3.0383

 Normal termination of Gaussian 09 at Fri Jul  5 19:18:18 2019.
