 Gaussian 09, Revision D.01,
 Gaussian 09:  ES64L-G09RevD.01 24-Apr-2013

 -------------------------------------
 # td=(NStates=1) CAM-B3LYP/6-31G(d,p)
 -------------------------------------

 --
 TD
 --
 Symbolic Z-matrix:
 Charge =  0 Multiplicity = 1

                         Standard orientation:
 ---------------------------------------------------------------------
 Center     Atomic      Atomic             Coordinates (Angstroms)
 Number     Number       Type             X           Y           Z
 ---------------------------------------------------------------------
      1         12           0       -7.082361    0.556458    0.129736
      2          6           0       -4.935792   -1.949572    0.509343
      3          6           0       -4.739857    2.840860    1.187595
      4          6           0       -9.339820    3.173434   -0.323687
      5          6           0       -9.511937   -1.648056   -0.930377
      6          7           0       -5.042053    0.491883    0.709073
      7          6           0       -4.358977   -0.731487    0.852110
      8          6           0       -3.040673   -0.490612    1.344852
      9          6           0       -3.032872    1.012063    1.830353
     10          6           0       -4.362230    1.473837    1.213448
     11          6           0       -2.995189    1.175413    3.373959
     12          6           0       -1.914017   -0.640423    0.270619
     13          6           0       -0.464428   -0.390727    0.658203
     14          6           0        0.422978   -0.673529   -0.534672
     15          8           0        0.196973   -1.080568   -1.625291
     16          8           0        1.790110   -0.474349   -0.146043
     17          7           0       -7.056031    2.543777    0.361691
     18          6           0       -5.953404    3.332911    0.768534
     19          6           0       -6.225509    4.726189    0.782745
     20          6           0       -7.559664    4.861545    0.405506
     21          6           0       -8.066069    3.486224    0.058634
     22          6           0       -5.347275    6.006650    1.064528
     23          6           0       -8.444549    6.057091    0.282216
     24          6           0       -8.401640    7.227962    0.813821
     25          7           0       -9.134450    0.740295   -0.423424
     26          6           0       -9.782771    1.784028   -0.601681
     27          6           0      -11.140328    1.493112   -1.117948
     28          6           0      -11.134466    0.117553   -1.322500
     29          6           0       -9.842165   -0.285307   -0.933108
     30          6           0      -12.159890    2.496260   -1.616839
     31          6           0      -12.240597   -0.708807   -2.009345
     32          6           0      -12.238133   -1.040768   -3.454662
     33          7           0       -7.306737   -1.445532   -0.250625
     34          6           0       -8.272064   -2.279545   -0.562614
     35          6           0       -7.807233   -3.709086   -0.488761
     36          6           0       -6.539388   -3.576513   -0.082515
     37          6           0       -6.227542   -2.158606    0.072042
     38          6           0       -8.818259   -4.880254   -0.765603
     39          6           0       -5.278123   -4.345048    0.197645
     40          8           0       -5.277616   -5.553090    0.235919
     41          6           0       -4.152786   -3.295247    0.538576
     42          6           0       -3.571657   -3.661838    1.890865
     43          8           0       -3.829149   -3.259116    2.936794
     44          8           0       -2.619652   -4.710905    1.699409
     45          6           0       -2.092542   -5.141473    3.035707
     46          6           0        2.669672   -0.769361   -1.149259
     47          6           0        4.088499   -0.478341   -0.548708
     48          6           0        5.036858    0.340307   -0.996491
     49          6           0        4.874027    1.084432   -2.239004
     50          6           0        6.376691    0.415569   -0.188521
     51          6           0        7.648560   -0.061044   -0.938612
     52          6           0        8.944440   -0.011110   -0.154148
     53          6           0       10.141823   -0.429113   -0.964767
     54          6           0       10.017937   -1.951714   -1.338730
     55          6           0       11.474652   -0.212772   -0.128898
     56          6           0       12.791998   -0.426086   -0.730218
     57          6           0       14.009414   -0.088544    0.276709
     58          6           0       15.342468   -0.265160   -0.509421
     59          6           0       15.602581   -1.657042   -0.992340
     60          6           0       16.453650    0.246293    0.411584
     61          6           0       17.791762    0.402798   -0.171427
     62          6           0       18.778596    1.266846    0.729454
     63          6           0       20.255385    1.266600    0.165980
     64          6           0       20.334410    2.229537   -1.123904
     65          6           0       21.060056    1.903940    1.314494
     66          1           0       -4.089441    3.604181    1.670646
     67          1           0      -10.092050    3.899298   -0.510371
     68          1           0      -10.335696   -2.349505   -1.133382
     69          1           0       -2.841974   -1.249735    2.092771
     70          1           0       -2.272046    1.487549    1.537363
     71          1           0       -1.986954    0.729509    3.859508
     72          1           0       -3.391041    2.229496    3.402672
     73          1           0       -3.934016    0.651721    3.900365
     74          1           0       -1.972247   -1.584745   -0.268510
     75          1           0       -2.081924   -0.105410   -0.540145
     76          1           0       -0.237356    0.456327    0.988650
     77          1           0       -0.247896   -1.026423    1.599445
     78          1           0       -5.506032    6.933257    0.253512
     79          1           0       -5.682473    6.138988    1.999745
     80          1           0       -4.345798    5.631268    1.031296
     81          1           0       -9.425649    6.009572   -0.431336
     82          1           0       -9.258991    8.014846    0.415066
     83          1           0       -7.682417    7.513013    1.482626
     84          1           0      -11.685816    3.073593   -2.459545
     85          1           0      -13.390360    2.168530   -1.873677
     86          1           0      -12.223952    3.246059   -0.715197
     87          1           0      -12.424755   -1.600588   -1.213192
     88          1           0      -13.184501   -0.165329   -1.983452
     89          1           0      -12.966944   -1.514167   -4.049624
     90          1           0      -11.857528   -0.083865   -4.031877
     91          1           0      -11.420485   -1.706807   -3.812059
     92          1           0       -9.025168   -4.797943   -1.886591
     93          1           0       -8.376122   -5.731301   -0.647569
     94          1           0       -9.820861   -4.820765   -0.389749
     95          1           0       -3.487976   -3.416195   -0.425034
     96          1           0       -1.743257   -4.292518    3.352652
     97          1           0       -3.132838   -5.195446    3.592582
     98          1           0       -1.488025   -5.966887    2.901898
     99          1           0        2.442904   -1.762527   -1.564076
    100          1           0        2.467323    0.048989   -1.926854
    101          1           0        4.399385   -1.147068    0.373279
    102          1           0        4.022271    1.177890   -2.713843
    103          1           0        5.439259    2.004705   -2.077719
    104          1           0        5.550683    0.509980   -2.821719
    105          1           0        6.530378    1.356127    0.171020
    106          1           0        6.121975   -0.159826    0.792403
    107          1           0        7.400545   -0.925948   -1.275006
    108          1           0        7.799436    0.546627   -1.883897
    109          1           0        9.051728    1.017987    0.157741
    110          1           0        8.909067   -0.622145    0.875880
    111          1           0       10.381677    0.229466   -1.845079
    112          1           0        9.203461   -2.346894   -2.078444
    113          1           0       10.879622   -2.244635   -1.846710
    114          1           0        9.933227   -2.616702   -0.472305
    115          1           0       11.293131    0.789295    0.314716
    116          1           0       11.345298   -0.793090    0.844656
    117          1           0       12.876000   -1.450520   -1.125414
    118          1           0       12.644656    0.402387   -1.719982
    119          1           0       14.059125    0.886062    0.627313
    120          1           0       13.795110   -0.806943    1.093362
    121          1           0       15.231689    0.595281   -1.391099
    122          1           0       15.516214   -2.409308   -0.203097
    123          1           0       14.815325   -1.968177   -1.832486
    124          1           0       16.691486   -1.827403   -1.503083
    125          1           0       16.201942    1.259413    0.609227
    126          1           0       16.283963   -0.091695    1.508162
    127          1           0       18.249349   -0.726962   -0.396562
    128          1           0       17.594928    0.876543   -1.151059
    129          1           0       18.381927    2.350294    0.697444
    130          1           0       18.726450    0.780584    1.806553
    131          1           0       20.358081    0.143958    0.058334
    132          1           0       20.218396    3.432303   -0.721745
    133          1           0       21.190061    2.159465   -1.638342
    134          1           0       19.524063    1.910587   -2.047379
    135          1           0       21.356620    0.955862    2.222909
    136          1           0       22.129282    2.437128    0.920405
    137          1           0       20.526805    2.697464    1.528301
 ---------------------------------------------------------------------

 SCF Done:  E(RCAM-B3LYP) =  -2932.52368319     A.U. after   17 cycles

 Excitation energies and oscillator strengths:

 Excited State   1:      Singlet-A      2.2025 eV  562.91 nm  f=0.1934  <S**2>=0.000
     240 -> 242       -0.17490
     240 -> 243        0.25280
     241 -> 242        0.60449
     241 -> 243        0.18485
 This state for optimization and/or second-order correction.
 Total Energy, E(TD-HF/TD-KS) =  -2932.44274110
 Copying the excited state density for this state as the 1-particle RhoCI density.

 The electronic state is 1-A.
 Alpha  occ. eigenvalues --  -46.85417 -19.24344 -19.24225 -19.23148 -19.22993
 Alpha  occ. eigenvalues --  -19.20802 -14.42196 -14.39829 -14.39593 -14.38933
 Alpha  occ. eigenvalues --  -10.39982 -10.39836 -10.35565 -10.31515 -10.30997
 Alpha  occ. eigenvalues --  -10.30485 -10.30440 -10.30259 -10.29842 -10.29547
 Alpha  occ. eigenvalues --  -10.28876 -10.28549 -10.28497 -10.28431 -10.28420
 Alpha  occ. eigenvalues --  -10.28301 -10.28108 -10.27991 -10.27810 -10.27753
 Alpha  occ. eigenvalues --  -10.27746 -10.27739 -10.27673 -10.27620 -10.27593
 Alpha  occ. eigenvalues --  -10.27454 -10.27445 -10.27210 -10.27161 -10.27132
 Alpha  occ. eigenvalues --  -10.27124 -10.26883 -10.26848 -10.26789 -10.26483
 Alpha  occ. eigenvalues --  -10.26453 -10.26388 -10.26301 -10.26178 -10.25961
 Alpha  occ. eigenvalues --  -10.25816 -10.25771 -10.25691 -10.25643 -10.25642
 Alpha  occ. eigenvalues --  -10.25575 -10.25400 -10.25377 -10.25237 -10.25021
 Alpha  occ. eigenvalues --  -10.24944 -10.24596 -10.24410 -10.24320 -10.23673
 Alpha  occ. eigenvalues --   -3.14346  -1.89058  -1.88608  -1.88497  -1.19647
 Alpha  occ. eigenvalues --   -1.18643  -1.11768  -1.10602  -1.08704  -1.06715
 Alpha  occ. eigenvalues --   -1.05737  -1.05003  -1.01552  -0.93083  -0.91285
 Alpha  occ. eigenvalues --   -0.90958  -0.90451  -0.89202  -0.89015  -0.88818
 Alpha  occ. eigenvalues --   -0.88114  -0.87678  -0.87218  -0.86858  -0.86138
 Alpha  occ. eigenvalues --   -0.85148  -0.84922  -0.83417  -0.82915  -0.82567
 Alpha  occ. eigenvalues --   -0.81804  -0.80666  -0.80313  -0.79849  -0.78580
 Alpha  occ. eigenvalues --   -0.78075  -0.77298  -0.76762  -0.76194  -0.75221
 Alpha  occ. eigenvalues --   -0.74876  -0.74556  -0.73916  -0.73245  -0.72265
 Alpha  occ. eigenvalues --   -0.71368  -0.71315  -0.70053  -0.69029  -0.68457
 Alpha  occ. eigenvalues --   -0.67093  -0.66424  -0.65861  -0.64745  -0.64183
 Alpha  occ. eigenvalues --   -0.64017  -0.62973  -0.62630  -0.62317  -0.61792
 Alpha  occ. eigenvalues --   -0.61276  -0.61214  -0.60250  -0.59821  -0.59444
 Alpha  occ. eigenvalues --   -0.58924  -0.58251  -0.58073  -0.57566  -0.57293
 Alpha  occ. eigenvalues --   -0.56621  -0.55920  -0.55422  -0.54986  -0.54952
 Alpha  occ. eigenvalues --   -0.54310  -0.54218  -0.54034  -0.53761  -0.53172
 Alpha  occ. eigenvalues --   -0.53032  -0.52505  -0.52345  -0.51966  -0.51805
 Alpha  occ. eigenvalues --   -0.51596  -0.51367  -0.51091  -0.50857  -0.50475
 Alpha  occ. eigenvalues --   -0.50414  -0.50087  -0.49809  -0.49544  -0.49437
 Alpha  occ. eigenvalues --   -0.49367  -0.49051  -0.48869  -0.48657  -0.48625
 Alpha  occ. eigenvalues --   -0.48329  -0.47988  -0.47885  -0.47713  -0.47424
 Alpha  occ. eigenvalues --   -0.47264  -0.46923  -0.46814  -0.46146  -0.45934
 Alpha  occ. eigenvalues --   -0.45747  -0.45652  -0.45610  -0.45409  -0.45164
 Alpha  occ. eigenvalues --   -0.45095  -0.44807  -0.44730  -0.44604  -0.44315
 Alpha  occ. eigenvalues --   -0.44123  -0.43924  -0.43838  -0.43525  -0.43216
 Alpha  occ. eigenvalues --   -0.42995  -0.42802  -0.42565  -0.42434  -0.42369
 Alpha  occ. eigenvalues --   -0.42018  -0.41825  -0.41706  -0.41452  -0.41193
 Alpha  occ. eigenvalues --   -0.41137  -0.40766  -0.40558  -0.40415  -0.40366
 Alpha  occ. eigenvalues --   -0.39870  -0.39591  -0.39281  -0.39140  -0.38699
 Alpha  occ. eigenvalues --   -0.38684  -0.38490  -0.37967  -0.37679  -0.37628
 Alpha  occ. eigenvalues --   -0.37379  -0.37218  -0.37137  -0.36870  -0.36636
 Alpha  occ. eigenvalues --   -0.36441  -0.36393  -0.36102  -0.35867  -0.35557
 Alpha  occ. eigenvalues --   -0.35528  -0.35135  -0.34868  -0.34826  -0.34280
 Alpha  occ. eigenvalues --   -0.33441  -0.33176  -0.32886  -0.31220  -0.30382
 Alpha  occ. eigenvalues --   -0.29775  -0.28991  -0.28255  -0.27963  -0.23268
 Alpha  occ. eigenvalues --   -0.20803
 Alpha virt. eigenvalues --   -0.05317  -0.03392   0.01526   0.04526   0.05121
 Alpha virt. eigenvalues --    0.05633   0.06226   0.06592   0.07839   0.08207
 Alpha virt. eigenvalues --    0.08561   0.10511   0.10516   0.10912   0.11356

 Mulliken charges:
               1
     1  Mg   0.817481
     2  C    0.033359
     3  C   -0.229676
     4  C   -0.171713
     5  C   -0.196036
     6  N   -0.647402
     7  C    0.319053
     8  C   -0.187797
     9  C   -0.110480
    10  C    0.342214
    11  C   -0.305321
    12  C   -0.197108
    13  C   -0.239332
    14  C    0.599742
    15  O   -0.438208
    16  O   -0.494221
    17  N   -0.727294
    18  C    0.332966
    19  C   -0.030984
    20  C    0.017921
    21  C    0.312663
    22  C   -0.335351
    23  C   -0.053683
    24  C   -0.244655
    25  N   -0.638819
    26  C    0.305952
    27  C   -0.021018
    28  C    0.030820
    29  C    0.281000
    30  C   -0.361806
    31  C   -0.212698
    32  C   -0.317929
    33  N   -0.704379
    34  C    0.233750
    35  C   -0.009687
    36  C   -0.015035
    37  C    0.328607
    38  C   -0.346498
    39  C    0.366561
    40  O   -0.437996
    41  C   -0.313032
    42  C    0.640796
    43  O   -0.427490
    44  O   -0.520668
    45  C   -0.071480
    46  C    0.028979
    47  C   -0.149384
    48  C    0.103343
    49  C   -0.346511
    50  C   -0.229973
    51  C   -0.169150
    52  C   -0.159222
    53  C   -0.059669
    54  C   -0.315824
    55  C   -0.176236
    56  C   -0.160255
    57  C   -0.172104
    58  C   -0.038763
    59  C   -0.301271
    60  C   -0.174214
    61  C   -0.166050
    62  C   -0.174007
    63  C   -0.055193
    64  C   -0.289571
    65  C   -0.259899
    66  H    0.080575
    67  H    0.083056
    68  H    0.090695
    69  H    0.117142
    70  H    0.106692
    71  H    0.108608
    72  H    0.109548
    73  H    0.106945
    74  H    0.116436
    75  H    0.123910
    76  H    0.141152
    77  H    0.132052
    78  H    0.120898
    79  H    0.151728
    80  H    0.117778
    81  H    0.082801
    82  H    0.089480
    83  H    0.097484
    84  H    0.127711
    85  H    0.094408
    86  H    0.103874
    87  H    0.080064
    88  H    0.111122
    89  H    0.123650
    90  H    0.095811
    91  H    0.096199
    92  H    0.113760
    93  H    0.144756
    94  H    0.131176
    95  H    0.177842
    96  H    0.133165
    97  H    0.129633
    98  H    0.133997
    99  H    0.120417
   100  H    0.087502
   101  H    0.066974
   102  H    0.119682
   103  H    0.106452
   104  H    0.130684
   105  H    0.106762
   106  H    0.087871
   107  H    0.116294
   108  H    0.082583
   109  H    0.090576
   110  H    0.075871
   111  H    0.082039
   112  H    0.086478
   113  H    0.105863
   114  H    0.104950
   115  H    0.084677
   116  H    0.065915
   117  H    0.107612
   118  H    0.039432
   119  H    0.104820
   120  H    0.097504
   121  H    0.064692
   122  H    0.109828
   123  H    0.088058
   124  H    0.086505
   125  H    0.093832
   126  H    0.075762
   127  H    0.055325
   128  H    0.097312
   129  H    0.083338
   130  H    0.086022
   131  H    0.095646
   132  H    0.073184
   133  H    0.129087
   134  H    0.074130
   135  H    0.067884
   136  H    0.059413
   137  H    0.124762
 Sum of Mulliken charges =   0.00000

 Dipole moment (field-independent basis, Debye):
    X=              1.8282    Y=              4.7406    Z=              0.4576  Tot=              5.1014
 Quadrupole moment (field-independent basis, Debye-Ang):
   XX=           -365.7698   YY=           -394.5037   ZZ=           -395.0496
   XY=            -17.5615   XZ=             11.9247   YZ=             -0.9528

 Normal termination of Gaussian 09 at Fri Jul  5 17:15:54 2019.
