 Gaussian 09, Revision D.01,
 Gaussian 09:  ES64L-G09RevD.01 24-Apr-2013

 -------------------------------------
 # td=(NStates=1) CAM-B3LYP/6-31G(d,p)
 -------------------------------------

 --
 TD
 --
 Symbolic Z-matrix:
 Charge =  0 Multiplicity = 1

                         Standard orientation:
 ---------------------------------------------------------------------
 Center     Atomic      Atomic             Coordinates (Angstroms)
 Number     Number       Type             X           Y           Z
 ---------------------------------------------------------------------
      1         12           0       -7.070572    0.549897    0.137191
      2          6           0       -4.896316   -2.012363    0.404876
      3          6           0       -4.658592    2.827106    1.090106
      4          6           0       -9.271258    3.155765   -0.421253
      5          6           0       -9.528926   -1.696036   -0.755410
      6          7           0       -5.015612    0.383017    0.617612
      7          6           0       -4.268259   -0.771382    0.698468
      8          6           0       -2.892555   -0.459908    1.183745
      9          6           0       -3.083787    1.000619    1.638304
     10          6           0       -4.337279    1.421866    1.219067
     11          6           0       -2.969918    1.133146    3.116407
     12          6           0       -1.833637   -0.706579   -0.005802
     13          6           0       -0.470370   -0.540484    0.492765
     14          6           0        0.587673   -0.763848   -0.575632
     15          8           0        0.317503   -0.986354   -1.735638
     16          8           0        1.817841   -0.387636   -0.145334
     17          7           0       -6.992365    2.547031    0.269834
     18          6           0       -5.883279    3.320919    0.647102
     19          6           0       -6.217166    4.768377    0.701686
     20          6           0       -7.512693    4.852385    0.317185
     21          6           0       -7.969534    3.471915    0.053723
     22          6           0       -5.307645    5.811667    1.268958
     23          6           0       -8.336357    6.046808    0.142427
     24          6           0       -8.107609    7.216756    0.867771
     25          7           0       -9.168761    0.690494   -0.414105
     26          6           0       -9.784339    1.889500   -0.682992
     27          6           0      -11.200220    1.626854   -1.030655
     28          6           0      -11.266511    0.243174   -1.194246
     29          6           0       -9.900960   -0.313112   -0.841353
     30          6           0      -12.191012    2.692345   -1.325830
     31          6           0      -12.383323   -0.563696   -1.592210
     32          6           0      -12.384360   -1.000732   -3.019137
     33          7           0       -7.244730   -1.427308   -0.134576
     34          6           0       -8.335701   -2.167955   -0.528920
     35          6           0       -7.964599   -3.593983   -0.547176
     36          6           0       -6.583923   -3.637700   -0.194206
     37          6           0       -6.221117   -2.238111    0.084900
     38          6           0       -8.774365   -4.790720   -0.909702
     39          6           0       -5.381171   -4.446109    0.098581
     40          8           0       -5.309735   -5.606861    0.112406
     41          6           0       -4.196996   -3.402286    0.485698
     42          6           0       -3.618210   -3.724039    1.784080
     43          8           0       -3.892225   -3.223984    2.828725
     44          8           0       -2.860548   -4.828986    1.674860
     45          6           0       -2.369764   -5.415837    2.960236
     46          6           0        2.765703   -0.535496   -1.156350
     47          6           0        4.117905   -0.133814   -0.397515
     48          6           0        5.039697    0.583741   -0.926528
     49          6           0        4.958222    1.413524   -2.189502
     50          6           0        6.359349    0.597013   -0.147117
     51          6           0        7.510894   -0.085438   -0.980441
     52          6           0        8.857150   -0.130986   -0.175819
     53          6           0       10.146198   -0.613764   -0.863583
     54          6           0        9.994438   -1.964702   -1.429314
     55          6           0       11.394727   -0.304627   -0.020208
     56          6           0       12.742693   -0.549750   -0.757110
     57          6           0       13.947352   -0.214400    0.228415
     58          6           0       15.335529   -0.207231   -0.514801
     59          6           0       15.601842   -1.603799   -1.038018
     60          6           0       16.425243    0.367255    0.385954
     61          6           0       17.827990    0.468104   -0.095344
     62          6           0       18.821922    1.126781    0.804447
     63          6           0       20.238989    1.240019    0.267072
     64          6           0       20.388570    1.918990   -1.047205
     65          6           0       21.067186    1.972983    1.412866
     66          1           0       -3.709955    3.493368    1.575147
     67          1           0       -9.728266    4.017966   -0.651907
     68          1           0      -10.347827   -2.595028   -0.918369
     69          1           0       -2.553677   -1.098942    1.987901
     70          1           0       -2.282558    1.441392    0.966495
     71          1           0       -2.061797    0.878810    3.457904
     72          1           0       -3.197306    2.092682    3.406351
     73          1           0       -3.725660    0.542371    3.479562
     74          1           0       -1.965311   -1.648175   -0.587574
     75          1           0       -2.013434   -0.084929   -1.039160
     76          1           0       -0.124129    0.427493    1.112782
     77          1           0       -0.126194   -1.474001    1.223054
     78          1           0       -5.724661    6.795956    1.006528
     79          1           0       -5.437516    5.958919    2.284583
     80          1           0       -4.080836    5.847339    0.932789
     81          1           0       -9.434203    6.099468   -0.428103
     82          1           0       -8.577270    8.219323    0.516251
     83          1           0       -7.459838    7.694807    1.593367
     84          1           0      -11.813933    3.228395   -2.032109
     85          1           0      -13.150089    2.280321   -1.510469
     86          1           0      -12.378309    3.284466   -0.578277
     87          1           0      -12.465814   -1.528463   -0.862013
     88          1           0      -13.109621    0.055959   -1.237549
     89          1           0      -13.381345   -1.542379   -3.166300
     90          1           0      -12.478252   -0.183458   -3.728075
     91          1           0      -11.603993   -1.526385   -3.473290
     92          1           0       -8.960010   -4.897558   -1.933669
     93          1           0       -8.332921   -5.545993   -0.634519
     94          1           0       -9.642812   -4.725889   -0.153863
     95          1           0       -3.474146   -3.582511   -0.241756
     96          1           0       -1.974742   -4.737498    3.699687
     97          1           0       -3.094486   -5.946221    3.498552
     98          1           0       -1.511384   -6.046247    2.396361
     99          1           0        2.958420   -1.506180   -1.685591
    100          1           0        2.586352    0.115652   -1.947460
    101          1           0        4.161840   -0.819737    0.606251
    102          1           0        3.912504    1.725934   -2.438204
    103          1           0        5.402912    2.578304   -2.030543
    104          1           0        5.698958    1.051718   -3.141717
    105          1           0        6.692360    1.510193    0.318838
    106          1           0        6.101185    0.104531    0.797629
    107          1           0        7.336427   -1.100938   -1.398234
    108          1           0        7.485095    0.322290   -1.990706
    109          1           0        9.156567    0.845167    0.339910
    110          1           0        8.551554   -0.634977    0.742023
    111          1           0       10.065952    0.102881   -1.716286
    112          1           0        9.079088   -2.036085   -2.133348
    113          1           0       10.760268   -2.428494   -1.959272
    114          1           0        9.904393   -2.714008   -0.517170
    115          1           0       11.336714    0.739310    0.351312
    116          1           0       11.252499   -0.745436    0.941982
    117          1           0       12.726648   -1.591845   -0.986473
    118          1           0       12.660452    0.098851   -1.614003
    119          1           0       13.909180    0.925207    0.435753
    120          1           0       13.824333   -0.822179    1.074826
    121          1           0       15.534505    0.522067   -1.488125
    122          1           0       15.407455   -2.346585   -0.247034
    123          1           0       14.749718   -1.736966   -1.619516
    124          1           0       16.523556   -1.759605   -1.464531
    125          1           0       16.037738    1.328330    0.832353
    126          1           0       16.526906   -0.417483    1.247299
    127          1           0       17.930280   -0.565256   -0.467258
    128          1           0       17.790598    1.044416   -0.995184
    129          1           0       18.419093    2.188243    1.216966
    130          1           0       18.921241    0.611334    1.945483
    131          1           0       20.585264    0.246261    0.099818
    132          1           0       20.096240    2.961417   -0.767227
    133          1           0       21.527311    1.790230   -1.268312
    134          1           0       19.728824    1.571078   -1.837748
    135          1           0       20.962389    1.351167    2.184906
    136          1           0       22.087781    1.931936    1.283142
    137          1           0       20.579024    3.210684    1.488587
 ---------------------------------------------------------------------

 SCF Done:  E(RCAM-B3LYP) =  -2932.57809661     A.U. after   17 cycles

 Excitation energies and oscillator strengths:

 Excited State   1:      Singlet-A      1.9682 eV  629.93 nm  f=0.2244  <S**2>=0.000
     240 -> 243        0.25504
     241 -> 242        0.64878
 This state for optimization and/or second-order correction.
 Total Energy, E(TD-HF/TD-KS) =  -2932.50576557
 Copying the excited state density for this state as the 1-particle RhoCI density.

 The electronic state is 1-A.
 Alpha  occ. eigenvalues --  -46.84285 -19.27320 -19.25795 -19.21641 -19.21264
 Alpha  occ. eigenvalues --  -19.20289 -14.41632 -14.39802 -14.38987 -14.38794
 Alpha  occ. eigenvalues --  -10.39566 -10.38042 -10.35643 -10.31939 -10.31324
 Alpha  occ. eigenvalues --  -10.30943 -10.30051 -10.29971 -10.29925 -10.29830
 Alpha  occ. eigenvalues --  -10.29272 -10.29004 -10.28872 -10.28806 -10.28474
 Alpha  occ. eigenvalues --  -10.28428 -10.28410 -10.28111 -10.27785 -10.27548
 Alpha  occ. eigenvalues --  -10.27527 -10.27419 -10.27387 -10.27028 -10.26964
 Alpha  occ. eigenvalues --  -10.26950 -10.26912 -10.26888 -10.26864 -10.26679
 Alpha  occ. eigenvalues --  -10.26651 -10.26352 -10.26178 -10.26031 -10.25829
 Alpha  occ. eigenvalues --  -10.25773 -10.25686 -10.25621 -10.25598 -10.25493
 Alpha  occ. eigenvalues --  -10.25374 -10.25337 -10.25299 -10.25121 -10.25086
 Alpha  occ. eigenvalues --  -10.24995 -10.24854 -10.24758 -10.24686 -10.24519
 Alpha  occ. eigenvalues --  -10.24472 -10.24380 -10.23319 -10.22851 -10.22741
 Alpha  occ. eigenvalues --   -3.13301  -1.88015  -1.87520  -1.87494  -1.19844
 Alpha  occ. eigenvalues --   -1.17938  -1.14702  -1.10453  -1.08938  -1.04665
 Alpha  occ. eigenvalues --   -1.03749  -1.02879  -1.01980  -0.92174  -0.91038
 Alpha  occ. eigenvalues --   -0.90739  -0.90412  -0.89793  -0.89018  -0.88856
 Alpha  occ. eigenvalues --   -0.88612  -0.88505  -0.88185  -0.87628  -0.86179
 Alpha  occ. eigenvalues --   -0.84898  -0.84641  -0.84061  -0.83032  -0.82177
 Alpha  occ. eigenvalues --   -0.81586  -0.81231  -0.80337  -0.79816  -0.78478
 Alpha  occ. eigenvalues --   -0.77879  -0.77450  -0.76642  -0.76166  -0.76027
 Alpha  occ. eigenvalues --   -0.75834  -0.75601  -0.74736  -0.73568  -0.72761
 Alpha  occ. eigenvalues --   -0.72040  -0.70742  -0.70233  -0.69253  -0.68247
 Alpha  occ. eigenvalues --   -0.67307  -0.66929  -0.65421  -0.65357  -0.64802
 Alpha  occ. eigenvalues --   -0.64002  -0.63857  -0.63335  -0.61949  -0.61864
 Alpha  occ. eigenvalues --   -0.61116  -0.60831  -0.60082  -0.59559  -0.58695
 Alpha  occ. eigenvalues --   -0.58585  -0.58313  -0.57760  -0.57436  -0.56929
 Alpha  occ. eigenvalues --   -0.56282  -0.55510  -0.55230  -0.54896  -0.54715
 Alpha  occ. eigenvalues --   -0.54244  -0.53976  -0.53809  -0.53490  -0.53398
 Alpha  occ. eigenvalues --   -0.52741  -0.52530  -0.52474  -0.52308  -0.51900
 Alpha  occ. eigenvalues --   -0.51890  -0.51575  -0.51229  -0.51121  -0.50720
 Alpha  occ. eigenvalues --   -0.50540  -0.50260  -0.50069  -0.49961  -0.49502
 Alpha  occ. eigenvalues --   -0.49414  -0.49010  -0.48727  -0.48639  -0.48444
 Alpha  occ. eigenvalues --   -0.48175  -0.47796  -0.47680  -0.47659  -0.47388
 Alpha  occ. eigenvalues --   -0.47066  -0.46788  -0.46617  -0.46377  -0.46181
 Alpha  occ. eigenvalues --   -0.46039  -0.45907  -0.45793  -0.45686  -0.45442
 Alpha  occ. eigenvalues --   -0.45202  -0.44862  -0.44695  -0.44519  -0.44322
 Alpha  occ. eigenvalues --   -0.44100  -0.43960  -0.43595  -0.43440  -0.43382
 Alpha  occ. eigenvalues --   -0.43251  -0.42960  -0.42909  -0.42633  -0.42575
 Alpha  occ. eigenvalues --   -0.42303  -0.42008  -0.41902  -0.41873  -0.41330
 Alpha  occ. eigenvalues --   -0.41143  -0.41006  -0.40814  -0.40598  -0.40448
 Alpha  occ. eigenvalues --   -0.40215  -0.39327  -0.39265  -0.38815  -0.38743
 Alpha  occ. eigenvalues --   -0.38491  -0.38403  -0.38037  -0.37980  -0.37539
 Alpha  occ. eigenvalues --   -0.37316  -0.36806  -0.36665  -0.36475  -0.36321
 Alpha  occ. eigenvalues --   -0.36098  -0.35935  -0.35875  -0.35821  -0.35406
 Alpha  occ. eigenvalues --   -0.35100  -0.34929  -0.34544  -0.34149  -0.33525
 Alpha  occ. eigenvalues --   -0.33515  -0.32550  -0.32246  -0.30717  -0.30309
 Alpha  occ. eigenvalues --   -0.30237  -0.29456  -0.27638  -0.27100  -0.23058
 Alpha  occ. eigenvalues --   -0.19772
 Alpha virt. eigenvalues --   -0.05436  -0.03115   0.01396   0.03597   0.05372
 Alpha virt. eigenvalues --    0.06057   0.06552   0.06878   0.07109   0.07381
 Alpha virt. eigenvalues --    0.08811   0.11420   0.11427   0.11495   0.11763

 Mulliken charges:
               1
     1  Mg   0.820970
     2  C    0.047873
     3  C   -0.194782
     4  C   -0.131879
     5  C   -0.205006
     6  N   -0.632078
     7  C    0.300527
     8  C   -0.151965
     9  C   -0.176555
    10  C    0.328882
    11  C   -0.298118
    12  C   -0.200694
    13  C   -0.251440
    14  C    0.608958
    15  O   -0.467526
    16  O   -0.456472
    17  N   -0.702914
    18  C    0.279824
    19  C    0.044067
    20  C    0.042478
    21  C    0.273500
    22  C   -0.375811
    23  C   -0.114672
    24  C   -0.248862
    25  N   -0.647178
    26  C    0.265021
    27  C    0.011313
    28  C   -0.020268
    29  C    0.293910
    30  C   -0.347495
    31  C   -0.223176
    32  C   -0.310466
    33  N   -0.753881
    34  C    0.352550
    35  C   -0.044706
    36  C    0.000222
    37  C    0.300610
    38  C   -0.334034
    39  C    0.361261
    40  O   -0.404054
    41  C   -0.321306
    42  C    0.622574
    43  O   -0.473446
    44  O   -0.469642
    45  C   -0.090986
    46  C    0.000664
    47  C   -0.145229
    48  C    0.141463
    49  C   -0.355154
    50  C   -0.221850
    51  C   -0.187812
    52  C   -0.179763
    53  C   -0.049850
    54  C   -0.296842
    55  C   -0.201686
    56  C   -0.188558
    57  C   -0.176878
    58  C   -0.060221
    59  C   -0.310078
    60  C   -0.161271
    61  C   -0.171537
    62  C   -0.140836
    63  C   -0.075353
    64  C   -0.284044
    65  C   -0.281372
    66  H    0.090163
    67  H    0.056315
    68  H    0.096771
    69  H    0.128776
    70  H    0.114211
    71  H    0.111358
    72  H    0.112605
    73  H    0.134166
    74  H    0.135329
    75  H    0.112433
    76  H    0.137057
    77  H    0.110298
    78  H    0.112615
    79  H    0.140138
    80  H    0.090244
    81  H    0.110453
    82  H    0.080420
    83  H    0.117115
    84  H    0.134076
    85  H    0.107381
    86  H    0.127639
    87  H    0.076126
    88  H    0.109483
    89  H    0.091014
    90  H    0.107113
    91  H    0.122697
    92  H    0.137239
    93  H    0.144482
    94  H    0.110480
    95  H    0.154960
    96  H    0.137370
    97  H    0.146312
    98  H    0.119419
    99  H    0.126689
   100  H    0.120485
   101  H    0.093242
   102  H    0.123998
   103  H    0.087368
   104  H    0.103305
   105  H    0.103139
   106  H    0.094627
   107  H    0.096554
   108  H    0.087957
   109  H    0.075098
   110  H    0.089475
   111  H    0.084591
   112  H    0.090539
   113  H    0.110174
   114  H    0.076313
   115  H    0.088207
   116  H    0.090879
   117  H    0.108546
   118  H    0.108160
   119  H    0.088198
   120  H    0.112076
   121  H    0.052468
   122  H    0.090104
   123  H    0.114398
   124  H    0.105239
   125  H    0.073621
   126  H    0.062748
   127  H    0.091820
   128  H    0.091192
   129  H    0.070320
   130  H    0.053218
   131  H    0.093818
   132  H    0.091333
   133  H    0.089951
   134  H    0.105240
   135  H    0.114631
   136  H    0.101659
   137  H    0.063439
 Sum of Mulliken charges =   0.00000

 Dipole moment (field-independent basis, Debye):
    X=              1.8690    Y=              2.4075    Z=              0.8691  Tot=              3.1693
 Quadrupole moment (field-independent basis, Debye-Ang):
   XX=           -366.8135   YY=           -389.0149   ZZ=           -394.5652
   XY=            -24.7076   XZ=              6.3517   YZ=              0.1387

 Normal termination of Gaussian 09 at Fri Jul  5 01:21:36 2019.
