 Gaussian 16, Revision A.03,
 Gaussian 16:  ES64L-G16RevA.03 25-Dec-2016

 ----------------------------------------------------------------------
 # td=(NStates=1) iop(3/107=0140000000,3/108=0140000000) CAM-B3LYP/6-31
 G(d,p)
 ----------------------------------------------------------------------

 --
 TD
 --
 Symbolic Z-matrix:
 Charge =  0 Multiplicity = 1

                         Standard orientation:
 ---------------------------------------------------------------------
 Center     Atomic      Atomic             Coordinates (Angstroms)
 Number     Number       Type             X           Y           Z
 ---------------------------------------------------------------------
      1         12           0       -7.166803    0.715328   -0.061395
      2          6           0       -4.843971   -1.909174    0.506529
      3          6           0       -4.879726    2.782262    1.118182
      4          6           0       -9.419506    3.112749   -0.469493
      5          6           0       -9.573295   -1.712443   -0.784383
      6          7           0       -5.106890    0.427931    0.619102
      7          6           0       -4.372308   -0.682266    0.703313
      8          6           0       -2.961796   -0.460186    1.271878
      9          6           0       -2.981202    1.095682    1.673167
     10          6           0       -4.407941    1.528394    1.102574
     11          6           0       -2.899402    1.297088    3.225284
     12          6           0       -1.861228   -0.564179    0.060392
     13          6           0       -0.494983   -0.428572    0.554741
     14          6           0        0.519389   -0.695666   -0.522218
     15          8           0        0.292110   -1.123965   -1.706525
     16          8           0        1.760186   -0.412458   -0.119805
     17          7           0       -7.104781    2.670581    0.328450
     18          6           0       -6.065867    3.429854    0.723265
     19          6           0       -6.323237    4.770866    0.747376
     20          6           0       -7.682351    4.853721    0.245694
     21          6           0       -8.086172    3.502504    0.002687
     22          6           0       -5.514123    5.843010    1.239814
     23          6           0       -8.400274    6.020996    0.151968
     24          6           0       -8.359768    7.213884    0.745566
     25          7           0       -9.058535    0.651531   -0.626482
     26          6           0       -9.844656    1.813886   -0.728636
     27          6           0      -11.259681    1.448082   -1.156201
     28          6           0      -11.276370    0.099243   -1.173320
     29          6           0       -9.945376   -0.358897   -0.862932
     30          6           0      -12.248239    2.443592   -1.400397
     31          6           0      -12.415371   -0.744183   -1.544315
     32          6           0      -12.396158   -1.049255   -3.047735
     33          7           0       -7.180485   -1.379342   -0.204279
     34          6           0       -8.266852   -2.205044   -0.567144
     35          6           0       -7.875932   -3.579904   -0.502937
     36          6           0       -6.534488   -3.537086   -0.141054
     37          6           0       -6.195317   -2.214117    0.107301
     38          6           0       -8.646417   -4.875869   -0.800941
     39          6           0       -5.289530   -4.372690    0.316259
     40          8           0       -5.173555   -5.512340    0.300818
     41          6           0       -4.062868   -3.218303    0.630758
     42          6           0       -3.492245   -3.641451    1.862826
     43          8           0       -3.800195   -3.197891    3.046171
     44          8           0       -2.710352   -4.720173    1.805587
     45          6           0       -2.085507   -5.170664    3.020853
     46          6           0        2.819932   -0.864488   -1.135624
     47          6           0        4.145619   -0.596116   -0.536649
     48          6           0        5.069453    0.237554   -1.017792
     49          6           0        5.007150    0.937976   -2.344568
     50          6           0        6.334128    0.334443   -0.257043
     51          6           0        7.582676   -0.201316   -1.034307
     52          6           0        8.959045   -0.065540   -0.259223
     53          6           0       10.246340   -0.637819   -0.949448
     54          6           0       10.231407   -2.086413   -1.345139
     55          6           0       11.476524   -0.373143   -0.161330
     56          6           0       12.869092   -0.539872   -0.925120
     57          6           0       13.926682   -0.156981    0.042313
     58          6           0       15.336403   -0.120947   -0.609702
     59          6           0       15.723918   -1.720150   -1.012095
     60          6           0       16.410292    0.402120    0.489319
     61          6           0       17.837662    0.556764   -0.119207
     62          6           0       18.739454    1.223964    0.877205
     63          6           0       20.193334    1.396072    0.372455
     64          6           0       20.203645    2.255197   -0.860036
     65          6           0       21.045121    2.179084    1.442179
     66          1           0       -4.183263    3.603078    1.464207
     67          1           0      -10.166910    4.034035   -0.561350
     68          1           0      -10.424994   -2.307452   -1.094991
     69          1           0       -2.835514   -1.184549    2.123703
     70          1           0       -2.233970    1.788475    1.256829
     71          1           0       -1.991070    1.050078    3.637965
     72          1           0       -2.997051    2.469496    3.583712
     73          1           0       -3.568521    0.651228    3.909120
     74          1           0       -1.960343   -1.610299   -0.540537
     75          1           0       -2.158223    0.245544   -0.584463
     76          1           0       -0.176449    0.602341    1.018851
     77          1           0       -0.250717   -1.217881    1.432212
     78          1           0       -5.734275    6.894963    0.628048
     79          1           0       -5.504999    6.118111    2.226587
     80          1           0       -4.560412    5.744501    0.892795
     81          1           0       -9.405843    5.878717   -0.367220
     82          1           0       -8.989202    7.994808    0.487346
     83          1           0       -7.455687    7.242901    1.310253
     84          1           0      -12.008760    2.981882   -2.226709
     85          1           0      -13.108190    1.970164   -1.730167
     86          1           0      -12.372934    3.120387   -0.468674
     87          1           0      -12.546963   -1.926300   -1.111049
     88          1           0      -13.447336   -0.397143   -1.345074
     89          1           0      -13.145807   -1.838714   -3.319624
     90          1           0      -12.416126   -0.046154   -3.634163
     91          1           0      -11.291161   -1.544955   -3.294418
     92          1           0       -9.433670   -4.695809   -1.773583
     93          1           0       -8.043459   -5.668029   -0.888405
     94          1           0       -9.232252   -5.019847    0.103997
     95          1           0       -3.362337   -3.369458   -0.221507
     96          1           0       -1.448615   -4.348787    3.447490
     97          1           0       -2.732004   -5.304440    3.823965
     98          1           0       -1.551618   -6.008789    2.715633
     99          1           0        2.739489   -1.904470   -1.325233
    100          1           0        2.939660   -0.411228   -2.230535
    101          1           0        4.254921   -0.965278    0.525396
    102          1           0        3.944511    1.035042   -2.762695
    103          1           0        5.220533    2.061974   -2.263623
    104          1           0        5.597248    0.512831   -3.040676
    105          1           0        6.364017    1.454953   -0.117234
    106          1           0        6.488403   -0.008998    0.851061
    107          1           0        7.403842   -1.118068   -1.410954
    108          1           0        7.702282    0.118755   -2.045233
    109          1           0        9.081176    1.055094   -0.089231
    110          1           0        8.705311   -0.554791    0.880263
    111          1           0       10.032120    0.017528   -1.897132
    112          1           0        9.534347   -2.345199   -2.133414
    113          1           0       11.005505   -2.510379   -1.635900
    114          1           0        9.686905   -2.727717   -0.500206
    115          1           0       11.435557    0.542310    0.128511
    116          1           0       11.650693   -0.953574    0.836107
    117          1           0       12.919865   -1.606598   -1.110757
    118          1           0       12.826353    0.064937   -1.729516
    119          1           0       13.666935    0.806628    0.588616
    120          1           0       14.061014   -1.004788    1.038219
    121          1           0       15.398283    0.464028   -1.493606
    122          1           0       15.772835   -2.353024   -0.220268
    123          1           0       14.989630   -2.174699   -1.703961
    124          1           0       16.660157   -1.711268   -1.646320
    125          1           0       16.043647    1.483821    0.805310
    126          1           0       16.331009   -0.306312    1.353466
    127          1           0       18.184028   -0.359822   -0.403333
    128          1           0       17.678385    1.366999   -1.080771
    129          1           0       18.348175    2.450852    0.988710
    130          1           0       18.848056    0.840984    1.898772
    131          1           0       20.563393    0.537305    0.112489
    132          1           0       19.863490    3.344275   -0.708009
    133          1           0       21.181867    2.575191   -1.192598
    134          1           0       19.742686    1.978914   -1.834929
    135          1           0       20.881385    1.789370    2.464509
    136          1           0       22.261366    1.974469    1.365419
    137          1           0       20.649870    3.216118    1.358285
 ---------------------------------------------------------------------

 SCF Done:  E(RCAM-B3LYP) =  -2933.45906748     A.U. after   16 cycles

 Excitation energies and oscillator strengths:

 Excited State   1:      Singlet-A      1.9945 eV  621.63 nm  f=0.2960  <S**2>=0.000
     240 -> 243       -0.20273
     241 -> 242        0.67459
 This state for optimization and/or second-order correction.
 Total Energy, E(TD-HF/TD-DFT) =  -2933.38577112
 Copying the excited state density for this state as the 1-particle RhoCI density.

 The electronic state is 1-A.
 Alpha  occ. eigenvalues --  -46.79840 -19.22608 -19.21946 -19.18646 -19.15430
 Alpha  occ. eigenvalues --  -19.14473 -14.36940 -14.35861 -14.34645 -14.34596
 Alpha  occ. eigenvalues --  -10.34159 -10.33815 -10.32288 -10.27508 -10.25790
 Alpha  occ. eigenvalues --  -10.25578 -10.25325 -10.25180 -10.25010 -10.24857
 Alpha  occ. eigenvalues --  -10.24823 -10.24738 -10.24616 -10.24267 -10.24139
 Alpha  occ. eigenvalues --  -10.24047 -10.23872 -10.23723 -10.23710 -10.23559
 Alpha  occ. eigenvalues --  -10.23452 -10.23279 -10.23192 -10.23178 -10.22742
 Alpha  occ. eigenvalues --  -10.22734 -10.22660 -10.22626 -10.22574 -10.22557
 Alpha  occ. eigenvalues --  -10.22406 -10.22230 -10.22170 -10.22088 -10.21930
 Alpha  occ. eigenvalues --  -10.21929 -10.21837 -10.21759 -10.21704 -10.21454
 Alpha  occ. eigenvalues --  -10.21345 -10.21251 -10.21164 -10.21162 -10.20986
 Alpha  occ. eigenvalues --  -10.20985 -10.20983 -10.20680 -10.20510 -10.20260
 Alpha  occ. eigenvalues --  -10.19818 -10.19753 -10.19750 -10.19546 -10.19087
 Alpha  occ. eigenvalues --   -3.08492  -1.83424  -1.82982  -1.82890  -1.12447
 Alpha  occ. eigenvalues --   -1.11632  -1.11353  -1.00274  -1.00051  -0.99249
 Alpha  occ. eigenvalues --   -0.98822  -0.97847  -0.97228  -0.86572  -0.86536
 Alpha  occ. eigenvalues --   -0.85344  -0.85287  -0.84693  -0.84458  -0.84011
 Alpha  occ. eigenvalues --   -0.83686  -0.82539  -0.82299  -0.81940  -0.80475
 Alpha  occ. eigenvalues --   -0.80062  -0.79577  -0.79170  -0.78353  -0.78281
 Alpha  occ. eigenvalues --   -0.76625  -0.76298  -0.75668  -0.74974  -0.73909
 Alpha  occ. eigenvalues --   -0.73546  -0.72838  -0.72407  -0.72194  -0.71194
 Alpha  occ. eigenvalues --   -0.70728  -0.69991  -0.69402  -0.68853  -0.67727
 Alpha  occ. eigenvalues --   -0.66423  -0.65939  -0.64587  -0.64150  -0.63724
 Alpha  occ. eigenvalues --   -0.63070  -0.62777  -0.61254  -0.60668  -0.60187
 Alpha  occ. eigenvalues --   -0.59612  -0.59168  -0.59145  -0.58141  -0.58013
 Alpha  occ. eigenvalues --   -0.57986  -0.56914  -0.55945  -0.55277  -0.54902
 Alpha  occ. eigenvalues --   -0.54721  -0.54098  -0.53724  -0.53353  -0.52227
 Alpha  occ. eigenvalues --   -0.51994  -0.51559  -0.51360  -0.51155  -0.50316
 Alpha  occ. eigenvalues --   -0.50235  -0.49973  -0.49743  -0.49361  -0.49189
 Alpha  occ. eigenvalues --   -0.49069  -0.48840  -0.48492  -0.48367  -0.48204
 Alpha  occ. eigenvalues --   -0.48112  -0.47781  -0.47529  -0.47215  -0.47042
 Alpha  occ. eigenvalues --   -0.46853  -0.46704  -0.46470  -0.46059  -0.45906
 Alpha  occ. eigenvalues --   -0.45618  -0.45356  -0.45212  -0.45093  -0.44820
 Alpha  occ. eigenvalues --   -0.44299  -0.44111  -0.43842  -0.43763  -0.43570
 Alpha  occ. eigenvalues --   -0.43502  -0.43424  -0.43347  -0.42918  -0.42506
 Alpha  occ. eigenvalues --   -0.42300  -0.41999  -0.41767  -0.41598  -0.41418
 Alpha  occ. eigenvalues --   -0.41193  -0.41170  -0.41035  -0.40810  -0.40530
 Alpha  occ. eigenvalues --   -0.40394  -0.40174  -0.39847  -0.39773  -0.39670
 Alpha  occ. eigenvalues --   -0.39501  -0.39190  -0.39122  -0.39042  -0.38547
 Alpha  occ. eigenvalues --   -0.38523  -0.38223  -0.38092  -0.37974  -0.37927
 Alpha  occ. eigenvalues --   -0.37810  -0.37672  -0.37614  -0.37115  -0.36894
 Alpha  occ. eigenvalues --   -0.36785  -0.36374  -0.36242  -0.36086  -0.35808
 Alpha  occ. eigenvalues --   -0.35603  -0.35482  -0.35041  -0.34885  -0.34740
 Alpha  occ. eigenvalues --   -0.34468  -0.34392  -0.33666  -0.33595  -0.33366
 Alpha  occ. eigenvalues --   -0.33260  -0.33143  -0.32730  -0.32507  -0.32397
 Alpha  occ. eigenvalues --   -0.32008  -0.31451  -0.31203  -0.30388  -0.29959
 Alpha  occ. eigenvalues --   -0.29582  -0.29075  -0.28854  -0.28228  -0.27288
 Alpha  occ. eigenvalues --   -0.27172  -0.27062  -0.26413  -0.24223  -0.21256
 Alpha  occ. eigenvalues --   -0.20205
 Alpha virt. eigenvalues --   -0.07751  -0.03168   0.01282   0.02317   0.03035
 Alpha virt. eigenvalues --    0.03343   0.03767   0.04499   0.05300   0.06259
 Alpha virt. eigenvalues --    0.06981   0.08061   0.09379   0.09402   0.09607

 Mulliken charges:
               1
     1  Mg   0.830101
     2  C    0.102477
     3  C   -0.208453
     4  C   -0.185406
     5  C   -0.154432
     6  N   -0.629248
     7  C    0.320746
     8  C   -0.183974
     9  C   -0.125549
    10  C    0.336651
    11  C   -0.314164
    12  C   -0.158080
    13  C   -0.251539
    14  C    0.618748
    15  O   -0.514083
    16  O   -0.465959
    17  N   -0.742038
    18  C    0.306520
    19  C    0.072004
    20  C    0.028934
    21  C    0.332520
    22  C   -0.403250
    23  C   -0.118368
    24  C   -0.227542
    25  N   -0.711307
    26  C    0.290772
    27  C    0.047407
    28  C    0.083500
    29  C    0.292971
    30  C   -0.376971
    31  C   -0.276097
    32  C   -0.285399
    33  N   -0.711007
    34  C    0.269725
    35  C   -0.013705
    36  C   -0.027850
    37  C    0.313309
    38  C   -0.348382
    39  C    0.379809
    40  O   -0.371428
    41  C   -0.342693
    42  C    0.624571
    43  O   -0.544742
    44  O   -0.439444
    45  C   -0.075161
    46  C    0.008923
    47  C   -0.131812
    48  C    0.126090
    49  C   -0.376199
    50  C   -0.208164
    51  C   -0.186497
    52  C   -0.171047
    53  C   -0.050974
    54  C   -0.294525
    55  C   -0.167566
    56  C   -0.169195
    57  C   -0.146825
    58  C   -0.061627
    59  C   -0.338740
    60  C   -0.164518
    61  C   -0.157565
    62  C   -0.137267
    63  C   -0.042846
    64  C   -0.320625
    65  C   -0.303742
    66  H    0.056455
    67  H    0.091548
    68  H    0.078990
    69  H    0.132538
    70  H    0.105150
    71  H    0.120374
    72  H    0.075954
    73  H    0.119062
    74  H    0.108171
    75  H    0.123899
    76  H    0.128702
    77  H    0.125532
    78  H    0.093148
    79  H    0.144122
    80  H    0.124208
    81  H    0.050155
    82  H    0.102482
    83  H    0.079963
    84  H    0.140742
    85  H    0.112148
    86  H    0.122811
    87  H    0.078147
    88  H    0.114365
    89  H    0.107008
    90  H    0.099394
    91  H    0.082916
    92  H    0.090863
    93  H    0.147038
    94  H    0.137334
    95  H    0.157807
    96  H    0.112398
    97  H    0.147721
    98  H    0.126937
    99  H    0.139325
   100  H    0.105968
   101  H    0.084944
   102  H    0.115676
   103  H    0.111153
   104  H    0.141003
   105  H    0.090232
   106  H    0.096274
   107  H    0.109003
   108  H    0.084446
   109  H    0.092771
   110  H    0.046417
   111  H    0.074541
   112  H    0.089369
   113  H    0.111733
   114  H    0.082156
   115  H    0.092398
   116  H    0.081529
   117  H    0.109292
   118  H    0.104340
   119  H    0.083290
   120  H    0.037476
   121  H    0.087828
   122  H    0.116009
   123  H    0.097866
   124  H    0.092996
   125  H    0.074783
   126  H    0.088885
   127  H    0.107656
   128  H    0.072692
   129  H    0.040887
   130  H    0.090868
   131  H    0.097428
   132  H    0.081602
   133  H    0.098417
   134  H    0.097559
   135  H    0.095964
   136  H    0.077948
   137  H    0.109420
 Sum of Mulliken charges =  -0.00000

 Dipole moment (field-independent basis, Debye):
    X=              1.3998    Y=              2.5149    Z=             -1.3014  Tot=              3.1588
 Quadrupole moment (field-independent basis, Debye-Ang):
   XX=           -327.4629   YY=           -392.5539   ZZ=           -399.1876
   XY=            -18.0430   XZ=             11.3810   YZ=             -2.7341

 Normal termination of Gaussian 16 at Sun Sep  8 03:29:58 2019.
