 Gaussian 09, Revision D.01,
 Gaussian 09:  ES64L-G09RevD.01 24-Apr-2013

 -------------------------------------
 # td=(NStates=1) CAM-B3LYP/6-31G(d,p)
 -------------------------------------

 --
 TD
 --
 Symbolic Z-matrix:
 Charge =  0 Multiplicity = 1

                         Standard orientation:
 ---------------------------------------------------------------------
 Center     Atomic      Atomic             Coordinates (Angstroms)
 Number     Number       Type             X           Y           Z
 ---------------------------------------------------------------------
      1         12           0       -7.118248    0.577623    0.015173
      2          6           0       -4.910132   -1.913514    0.510546
      3          6           0       -4.814890    2.846227    1.052777
      4          6           0       -9.349195    3.185854   -0.381448
      5          6           0       -9.540131   -1.635558   -0.795009
      6          7           0       -5.056487    0.453941    0.692578
      7          6           0       -4.343916   -0.679551    0.789365
      8          6           0       -2.895646   -0.338781    1.177928
      9          6           0       -2.937581    1.106530    1.556345
     10          6           0       -4.306685    1.540215    1.151071
     11          6           0       -2.854838    1.298900    3.052904
     12          6           0       -1.937983   -0.561066   -0.009664
     13          6           0       -0.431988   -0.438538    0.374349
     14          6           0        0.617112   -0.755911   -0.697162
     15          8           0        0.302808   -1.252613   -1.801846
     16          8           0        1.870472   -0.478099   -0.301870
     17          7           0       -7.025902    2.579701    0.258620
     18          6           0       -6.013950    3.334452    0.733791
     19          6           0       -6.416178    4.708069    0.738120
     20          6           0       -7.653307    4.887583    0.317471
     21          6           0       -8.102093    3.466046    0.047107
     22          6           0       -5.521830    5.845969    1.109329
     23          6           0       -8.503241    5.978687    0.115965
     24          6           0       -8.411093    7.164418    0.879236
     25          7           0       -9.075926    0.726404   -0.549139
     26          6           0       -9.799468    1.797019   -0.582571
     27          6           0      -11.267599    1.433270   -0.979387
     28          6           0      -11.225419    0.143517   -1.139903
     29          6           0       -9.906407   -0.334538   -0.843321
     30          6           0      -12.368738    2.405062   -1.291420
     31          6           0      -12.417314   -0.700512   -1.682886
     32          6           0      -12.530270   -0.883684   -3.142218
     33          7           0       -7.251109   -1.406333   -0.189032
     34          6           0       -8.342983   -2.250222   -0.492215
     35          6           0       -7.828485   -3.605151   -0.392759
     36          6           0       -6.484182   -3.568132   -0.076026
     37          6           0       -6.180981   -2.103125    0.065699
     38          6           0       -8.569165   -4.843289   -0.697830
     39          6           0       -5.335438   -4.306936    0.137071
     40          8           0       -5.127178   -5.547170    0.230681
     41          6           0       -4.124929   -3.273613    0.559701
     42          6           0       -3.529204   -3.638091    1.944693
     43          8           0       -3.697900   -2.992409    2.967248
     44          8           0       -2.717454   -4.692734    1.711861
     45          6           0       -2.258452   -5.268022    2.952672
     46          6           0        2.892913   -0.854109   -1.256300
     47          6           0        4.156067   -0.483701   -0.469394
     48          6           0        5.137655    0.229779   -0.943017
     49          6           0        5.104348    1.000703   -2.218361
     50          6           0        6.383420    0.374921   -0.164785
     51          6           0        7.633111   -0.121680   -1.015105
     52          6           0        8.947649   -0.211782   -0.100655
     53          6           0       10.215753   -0.689572   -0.785582
     54          6           0       10.114575   -2.160338   -1.229412
     55          6           0       11.466259   -0.365328   -0.000264
     56          6           0       12.774899   -0.657872   -0.653989
     57          6           0       13.977342   -0.253394    0.089107
     58          6           0       15.272193   -0.214603   -0.485184
     59          6           0       15.719053   -1.593718   -0.862584
     60          6           0       16.407611    0.332282    0.415380
     61          6           0       17.779071    0.584449   -0.197485
     62          6           0       18.599416    1.435075    0.726868
     63          6           0       20.109418    1.532600    0.250552
     64          6           0       20.273175    2.334871   -1.021850
     65          6           0       21.021533    2.228529    1.351297
     66          1           0       -4.009947    3.493392    1.437770
     67          1           0      -10.156450    3.947563   -0.444568
     68          1           0      -10.368211   -2.297449   -0.823474
     69          1           0       -2.551173   -1.071347    1.807503
     70          1           0       -2.246021    1.753066    1.046579
     71          1           0       -1.924987    0.721233    3.465995
     72          1           0       -3.004211    2.245225    3.482263
     73          1           0       -3.648900    0.654205    3.418677
     74          1           0       -2.379016   -1.414131   -0.349989
     75          1           0       -2.088033   -0.096884   -1.031880
     76          1           0       -0.336928    0.459497    0.816599
     77          1           0       -0.360632   -1.346056    0.946746
     78          1           0       -5.814485    6.795996    0.417108
     79          1           0       -5.402868    6.179600    2.265665
     80          1           0       -4.555097    5.677808    0.698014
     81          1           0       -9.367068    6.045495   -0.795830
     82          1           0       -9.035916    7.889181    0.666373
     83          1           0       -7.740808    7.356902    1.832189
     84          1           0      -12.224962    3.106421   -1.974656
     85          1           0      -13.187120    1.917685   -1.426960
     86          1           0      -12.593446    3.108940   -0.794239
     87          1           0      -12.521112   -1.616097   -1.310840
     88          1           0      -13.368116   -0.049159   -1.399596
     89          1           0      -13.466729   -1.471724   -3.349255
     90          1           0      -12.194878   -0.023651   -3.946917
     91          1           0      -11.674184   -1.687927   -3.538556
     92          1           0       -8.988319   -4.821755   -1.836798
     93          1           0       -7.951397   -5.590912   -0.431673
     94          1           0       -9.283417   -4.803477    0.089853
     95          1           0       -3.332167   -3.541530   -0.234720
     96          1           0       -1.510440   -4.667903    3.713198
     97          1           0       -3.027491   -5.253659    3.500533
     98          1           0       -1.865105   -6.475685    2.872760
     99          1           0        2.605407   -1.811523   -1.417368
    100          1           0        2.838408   -0.158581   -1.995311
    101          1           0        4.265083   -1.013924    0.343765
    102          1           0        4.148751    1.026331   -2.798974
    103          1           0        5.080338    2.146758   -2.047887
    104          1           0        5.941349    0.734056   -2.935014
    105          1           0        6.586506    1.432790    0.086526
    106          1           0        6.383507   -0.111755    0.790415
    107          1           0        7.398377   -1.101631   -1.661985
    108          1           0        7.615926    0.524921   -1.978271
    109          1           0        8.762424    0.725704    0.255280
    110          1           0        8.652664   -0.821351    0.653963
    111          1           0       10.277017   -0.096246   -1.668823
    112          1           0        9.128066   -2.537107   -1.746230
    113          1           0       10.861819   -2.394083   -1.953229
    114          1           0       10.336986   -3.047204   -0.472693
    115          1           0       11.503518    0.535956    0.557503
    116          1           0       11.450593   -0.966642    0.986035
    117          1           0       12.957868   -1.649392   -0.965399
    118          1           0       12.793040   -0.083813   -1.635742
    119          1           0       13.559658    0.769851    0.566800
    120          1           0       14.050156   -0.934524    0.978373
    121          1           0       15.332016    0.399803   -1.301376
    122          1           0       15.721181   -2.129155    0.105435
    123          1           0       14.882378   -2.083941   -1.380571
    124          1           0       16.574733   -1.753993   -1.455576
    125          1           0       16.179239    1.393164    0.857664
    126          1           0       16.623548   -0.068233    1.373108
    127          1           0       18.301536   -0.272372   -0.493301
    128          1           0       17.773107    0.984808   -1.236339
    129          1           0       17.916035    2.303151    0.784328
    130          1           0       18.596919    1.044029    1.869583
    131          1           0       20.482355    0.509079    0.227758
    132          1           0       20.088741    3.322325   -0.830417
    133          1           0       21.272778    2.538655   -1.374703
    134          1           0       19.716263    1.913739   -1.943003
    135          1           0       20.907103    1.612712    2.241720
    136          1           0       22.091057    2.059001    1.166285
    137          1           0       20.828985    3.288312    1.588603
 ---------------------------------------------------------------------

 SCF Done:  E(RCAM-B3LYP) =  -2932.55838274     A.U. after   17 cycles

 Excitation energies and oscillator strengths:

 Excited State   1:      Singlet-A      2.2143 eV  559.92 nm  f=0.2866  <S**2>=0.000
     240 -> 242       -0.15615
     240 -> 243        0.21153
     241 -> 242        0.63501
     241 -> 243        0.14203
 This state for optimization and/or second-order correction.
 Total Energy, E(TD-HF/TD-KS) =  -2932.47700785
 Copying the excited state density for this state as the 1-particle RhoCI density.

 The electronic state is 1-A.
 Alpha  occ. eigenvalues --  -46.84219 -19.27257 -19.25907 -19.21472 -19.19992
 Alpha  occ. eigenvalues --  -19.18383 -14.41442 -14.39892 -14.39809 -14.39089
 Alpha  occ. eigenvalues --  -10.39586 -10.39065 -10.33736 -10.31919 -10.31523
 Alpha  occ. eigenvalues --  -10.30050 -10.30028 -10.29960 -10.29937 -10.29908
 Alpha  occ. eigenvalues --  -10.29773 -10.28370 -10.28293 -10.28285 -10.27876
 Alpha  occ. eigenvalues --  -10.27817 -10.27609 -10.27459 -10.27371 -10.27357
 Alpha  occ. eigenvalues --  -10.27356 -10.27114 -10.27085 -10.27010 -10.26987
 Alpha  occ. eigenvalues --  -10.26818 -10.26765 -10.26726 -10.26652 -10.26642
 Alpha  occ. eigenvalues --  -10.26530 -10.26505 -10.26209 -10.26098 -10.26065
 Alpha  occ. eigenvalues --  -10.25982 -10.25891 -10.25681 -10.25540 -10.25481
 Alpha  occ. eigenvalues --  -10.25246 -10.25175 -10.24995 -10.24871 -10.24759
 Alpha  occ. eigenvalues --  -10.24609 -10.24487 -10.24383 -10.24367 -10.24302
 Alpha  occ. eigenvalues --  -10.24125 -10.23939 -10.23848 -10.23780 -10.21807
 Alpha  occ. eigenvalues --   -3.13354  -1.88059  -1.87612  -1.87519  -1.18195
 Alpha  occ. eigenvalues --   -1.17530  -1.09588  -1.07203  -1.06963  -1.05125
 Alpha  occ. eigenvalues --   -1.04379  -1.03788  -1.02867  -0.92579  -0.92048
 Alpha  occ. eigenvalues --   -0.91653  -0.90898  -0.90331  -0.90140  -0.89956
 Alpha  occ. eigenvalues --   -0.88728  -0.88632  -0.88081  -0.87787  -0.86531
 Alpha  occ. eigenvalues --   -0.85709  -0.84971  -0.84472  -0.83656  -0.82851
 Alpha  occ. eigenvalues --   -0.82568  -0.81476  -0.81044  -0.80666  -0.80069
 Alpha  occ. eigenvalues --   -0.78720  -0.77560  -0.76850  -0.75753  -0.75746
 Alpha  occ. eigenvalues --   -0.75429  -0.75285  -0.74580  -0.74162  -0.72652
 Alpha  occ. eigenvalues --   -0.71881  -0.70923  -0.70066  -0.69443  -0.68321
 Alpha  occ. eigenvalues --   -0.68039  -0.66996  -0.66242  -0.65910  -0.65598
 Alpha  occ. eigenvalues --   -0.64938  -0.64626  -0.64522  -0.63555  -0.63221
 Alpha  occ. eigenvalues --   -0.62916  -0.61472  -0.61303  -0.60300  -0.59831
 Alpha  occ. eigenvalues --   -0.59171  -0.59016  -0.58439  -0.57559  -0.56629
 Alpha  occ. eigenvalues --   -0.56077  -0.56061  -0.56011  -0.55165  -0.54716
 Alpha  occ. eigenvalues --   -0.54599  -0.54455  -0.53932  -0.53451  -0.53020
 Alpha  occ. eigenvalues --   -0.52897  -0.52586  -0.52530  -0.52296  -0.52125
 Alpha  occ. eigenvalues --   -0.51629  -0.51282  -0.51124  -0.51089  -0.50724
 Alpha  occ. eigenvalues --   -0.50581  -0.50330  -0.50246  -0.49990  -0.49737
 Alpha  occ. eigenvalues --   -0.49586  -0.49355  -0.48984  -0.48927  -0.48596
 Alpha  occ. eigenvalues --   -0.48397  -0.47910  -0.47594  -0.47519  -0.47141
 Alpha  occ. eigenvalues --   -0.47006  -0.46468  -0.46278  -0.46245  -0.45919
 Alpha  occ. eigenvalues --   -0.45876  -0.45750  -0.45574  -0.45279  -0.44869
 Alpha  occ. eigenvalues --   -0.44678  -0.44527  -0.44435  -0.44282  -0.44078
 Alpha  occ. eigenvalues --   -0.43972  -0.43958  -0.43818  -0.43737  -0.43230
 Alpha  occ. eigenvalues --   -0.43146  -0.42849  -0.42692  -0.42405  -0.42155
 Alpha  occ. eigenvalues --   -0.42085  -0.41891  -0.41829  -0.41758  -0.41661
 Alpha  occ. eigenvalues --   -0.41335  -0.40857  -0.40762  -0.40632  -0.40401
 Alpha  occ. eigenvalues --   -0.40206  -0.39890  -0.39732  -0.39446  -0.39427
 Alpha  occ. eigenvalues --   -0.39002  -0.38400  -0.38081  -0.37869  -0.37828
 Alpha  occ. eigenvalues --   -0.37481  -0.37260  -0.36597  -0.36469  -0.36270
 Alpha  occ. eigenvalues --   -0.36122  -0.35993  -0.35911  -0.35862  -0.35599
 Alpha  occ. eigenvalues --   -0.35302  -0.35160  -0.34842  -0.34249  -0.33824
 Alpha  occ. eigenvalues --   -0.33123  -0.32920  -0.32750  -0.31151  -0.30358
 Alpha  occ. eigenvalues --   -0.29769  -0.28960  -0.28336  -0.28257  -0.23664
 Alpha  occ. eigenvalues --   -0.20613
 Alpha virt. eigenvalues --   -0.05608  -0.02790   0.01192   0.03137   0.05734
 Alpha virt. eigenvalues --    0.05961   0.06430   0.06749   0.07061   0.07544
 Alpha virt. eigenvalues --    0.08778   0.11064   0.11274   0.11732   0.12258

 Mulliken charges:
               1
     1  Mg   0.813734
     2  C    0.047715
     3  C   -0.240067
     4  C   -0.187449
     5  C   -0.195194
     6  N   -0.639936
     7  C    0.312592
     8  C   -0.130123
     9  C   -0.135901
    10  C    0.315189
    11  C   -0.311872
    12  C   -0.208151
    13  C   -0.233832
    14  C    0.582003
    15  O   -0.499906
    16  O   -0.481294
    17  N   -0.732387
    18  C    0.420485
    19  C   -0.004377
    20  C    0.129785
    21  C    0.292654
    22  C   -0.381981
    23  C   -0.154956
    24  C   -0.212601
    25  N   -0.670797
    26  C    0.269386
    27  C   -0.021316
    28  C    0.049358
    29  C    0.282159
    30  C   -0.319180
    31  C   -0.205196
    32  C   -0.292586
    33  N   -0.768279
    34  C    0.278286
    35  C   -0.034838
    36  C    0.085517
    37  C    0.344537
    38  C   -0.347015
    39  C    0.288160
    40  O   -0.500952
    41  C   -0.326171
    42  C    0.646246
    43  O   -0.478703
    44  O   -0.430555
    45  C   -0.075292
    46  C    0.041889
    47  C   -0.130827
    48  C    0.161582
    49  C   -0.384738
    50  C   -0.236821
    51  C   -0.213267
    52  C   -0.169430
    53  C   -0.047118
    54  C   -0.324087
    55  C   -0.180032
    56  C   -0.162722
    57  C   -0.162930
    58  C   -0.047444
    59  C   -0.311751
    60  C   -0.178196
    61  C   -0.178674
    62  C   -0.170812
    63  C   -0.057250
    64  C   -0.304138
    65  C   -0.330019
    66  H    0.073756
    67  H    0.092844
    68  H    0.086416
    69  H    0.122140
    70  H    0.117322
    71  H    0.097990
    72  H    0.117127
    73  H    0.131630
    74  H    0.116218
    75  H    0.104460
    76  H    0.131070
    77  H    0.148383
    78  H    0.104581
    79  H    0.105337
    80  H    0.119990
    81  H    0.100619
    82  H    0.104151
    83  H    0.112798
    84  H    0.114271
    85  H    0.107999
    86  H    0.107717
    87  H    0.114921
    88  H    0.087586
    89  H    0.109409
    90  H    0.102418
    91  H    0.068260
    92  H    0.114396
    93  H    0.150771
    94  H    0.126613
    95  H    0.163009
    96  H    0.098734
    97  H    0.148223
    98  H    0.107433
    99  H    0.137770
   100  H    0.118480
   101  H    0.080701
   102  H    0.113415
   103  H    0.110943
   104  H    0.122792
   105  H    0.104655
   106  H    0.105398
   107  H    0.072181
   108  H    0.083690
   109  H    0.105505
   110  H    0.109085
   111  H    0.100196
   112  H    0.097691
   113  H    0.114919
   114  H    0.087737
   115  H    0.101589
   116  H    0.071470
   117  H    0.102775
   118  H    0.073345
   119  H    0.061088
   120  H    0.078970
   121  H    0.091639
   122  H    0.099425
   123  H    0.089305
   124  H    0.111760
   125  H    0.059066
   126  H    0.097507
   127  H    0.093109
   128  H    0.085848
   129  H    0.097561
   130  H    0.065162
   131  H    0.094993
   132  H    0.114515
   133  H    0.097671
   134  H    0.087024
   135  H    0.097214
   136  H    0.099637
   137  H    0.105458
 Sum of Mulliken charges =   0.00000

 Dipole moment (field-independent basis, Debye):
    X=              1.2576    Y=              6.4080    Z=              0.6525  Tot=              6.5628
 Quadrupole moment (field-independent basis, Debye-Ang):
   XX=           -322.5901   YY=           -390.8890   ZZ=           -396.4140
   XY=            -37.4606   XZ=              3.3375   YZ=             -4.0763

 Normal termination of Gaussian 09 at Tue Jul  2 20:48:37 2019.
