 Gaussian 09, Revision D.01,
 Gaussian 09:  ES64L-G09RevD.01 24-Apr-2013

 -------------------------------------
 # td=(NStates=1) CAM-B3LYP/6-31G(d,p)
 -------------------------------------

 --
 TD
 --
 Symbolic Z-matrix:
 Charge =  0 Multiplicity = 1

                         Standard orientation:
 ---------------------------------------------------------------------
 Center     Atomic      Atomic             Coordinates (Angstroms)
 Number     Number       Type             X           Y           Z
 ---------------------------------------------------------------------
      1         12           0       -7.200645    0.524435    0.100809
      2          6           0       -4.893367   -1.982201    0.547329
      3          6           0       -4.700746    2.808542    1.094058
      4          6           0       -9.339523    3.108396   -0.482451
      5          6           0       -9.492574   -1.701351   -0.914413
      6          7           0       -5.115820    0.511177    0.710047
      7          6           0       -4.412015   -0.641846    0.763868
      8          6           0       -3.012104   -0.449347    1.315518
      9          6           0       -2.999942    1.055564    1.713537
     10          6           0       -4.358221    1.542939    1.160599
     11          6           0       -2.859998    1.195778    3.208236
     12          6           0       -1.886474   -0.629333    0.121690
     13          6           0       -0.459537   -0.458886    0.688237
     14          6           0        0.499991   -0.709206   -0.445270
     15          8           0        0.184404   -1.197835   -1.496142
     16          8           0        1.741508   -0.285660   -0.169394
     17          7           0       -7.052257    2.586129    0.319883
     18          6           0       -5.991066    3.390299    0.703606
     19          6           0       -6.302322    4.766081    0.838992
     20          6           0       -7.687649    4.833327    0.283154
     21          6           0       -8.074214    3.429162    0.076618
     22          6           0       -5.495235    5.898939    1.335085
     23          6           0       -8.504359    6.071903    0.128885
     24          6           0       -8.427245    7.178687    0.896780
     25          7           0       -9.015736    0.700902   -0.595588
     26          6           0       -9.874481    1.860105   -0.754013
     27          6           0      -11.143391    1.567667   -1.242764
     28          6           0      -11.266509    0.187201   -1.325553
     29          6           0       -9.817696   -0.301315   -1.015827
     30          6           0      -12.269429    2.534383   -1.447942
     31          6           0      -12.381311   -0.683331   -1.760841
     32          6           0      -12.336649   -0.882660   -3.188811
     33          7           0       -7.214545   -1.406024   -0.039081
     34          6           0       -8.300381   -2.219632   -0.478992
     35          6           0       -7.797825   -3.597690   -0.553102
     36          6           0       -6.443765   -3.555977   -0.159515
     37          6           0       -6.235776   -2.279768    0.157453
     38          6           0       -8.758873   -4.772574   -0.837760
     39          6           0       -5.244578   -4.323295    0.152062
     40          8           0       -5.149652   -5.559333    0.078919
     41          6           0       -4.226058   -3.286671    0.590194
     42          6           0       -3.547362   -3.794006    1.796997
     43          8           0       -3.796873   -3.330099    2.948279
     44          8           0       -2.683243   -4.802528    1.677006
     45          6           0       -2.081117   -5.361270    2.807757
     46          6           0        2.746692   -0.513042   -1.228797
     47          6           0        4.074341   -0.443177   -0.531441
     48          6           0        5.128438    0.316977   -0.870031
     49          6           0        4.963263    1.060647   -2.181360
     50          6           0        6.411864    0.323121   -0.033995
     51          6           0        7.603815   -0.265387   -0.863282
     52          6           0        8.881679   -0.182438   -0.079648
     53          6           0       10.098112   -0.616051   -0.891805
     54          6           0       10.265165   -1.997625   -1.321314
     55          6           0       11.356359   -0.361111   -0.050543
     56          6           0       12.822165   -0.535622   -0.767492
     57          6           0       13.812456   -0.183814    0.122080
     58          6           0       15.302883   -0.073288   -0.506910
     59          6           0       15.688482   -1.452845   -0.927289
     60          6           0       16.354646    0.543233    0.457004
     61          6           0       17.793578    0.640323   -0.183008
     62          6           0       18.803193    1.276496    0.754853
     63          6           0       20.222171    1.319314    0.194015
     64          6           0       20.321114    2.169676   -1.151145
     65          6           0       21.170144    1.921101    1.215820
     66          1           0       -3.903499    3.593111    1.619896
     67          1           0      -10.030723    3.935053   -0.660365
     68          1           0      -10.436537   -2.598047   -1.159269
     69          1           0       -2.600224   -1.179067    2.092457
     70          1           0       -2.127969    1.651385    1.164417
     71          1           0       -1.959591    0.463156    3.236575
     72          1           0       -2.964455    2.325244    3.556619
     73          1           0       -3.697206    0.512503    3.851818
     74          1           0       -2.139734   -1.597200   -0.357282
     75          1           0       -2.072089   -0.027410   -0.600805
     76          1           0       -0.428121    0.566246    1.202332
     77          1           0       -0.255890   -1.133887    1.356808
     78          1           0       -5.854674    6.906158    0.740506
     79          1           0       -5.570194    5.973619    2.528316
     80          1           0       -4.375826    5.659741    1.142210
     81          1           0       -9.326109    5.924931   -0.705774
     82          1           0       -9.143303    7.937015    0.858087
     83          1           0       -7.809447    7.275306    1.718385
     84          1           0      -12.125113    2.926372   -2.400962
     85          1           0      -13.316016    2.001189   -1.528607
     86          1           0      -12.495232    3.345838   -0.728382
     87          1           0      -12.153974   -1.685779   -1.206427
     88          1           0      -13.345495   -0.174660   -1.553942
     89          1           0      -13.136816   -1.429601   -3.544654
     90          1           0      -12.491676    0.112283   -3.545886
     91          1           0      -11.580291   -1.286622   -3.656606
     92          1           0       -9.367862   -4.743926   -1.769339
     93          1           0       -8.232144   -5.668019   -0.819287
     94          1           0       -9.550759   -4.937973   -0.143381
     95          1           0       -3.561811   -3.400974   -0.219017
     96          1           0       -1.517709   -4.557095    3.464255
     97          1           0       -2.766226   -5.827623    3.554974
     98          1           0       -1.326803   -6.294696    2.601422
     99          1           0        2.561338   -1.560678   -1.511318
    100          1           0        2.706844    0.175659   -2.082485
    101          1           0        4.234879   -1.188130    0.278983
    102          1           0        3.846347    1.150447   -2.555166
    103          1           0        5.319902    2.106362   -2.097270
    104          1           0        5.526648    0.652835   -3.075149
    105          1           0        6.750580    1.456777   -0.052544
    106          1           0        6.300883   -0.149736    0.878165
    107          1           0        7.356984   -1.369688   -1.113252
    108          1           0        7.895414    0.494441   -1.725572
    109          1           0        9.091500    0.791793    0.000466
    110          1           0        9.134868   -0.636520    0.916058
    111          1           0       10.128653   -0.155740   -2.016476
    112          1           0        9.437239   -2.203166   -2.057803
    113          1           0       11.301572   -2.210284   -1.898991
    114          1           0       10.014226   -2.685883   -0.534382
    115          1           0       11.485703    0.615919    0.190428
    116          1           0       11.114228   -0.840004    1.035811
    117          1           0       12.806185   -1.485846   -1.049621
    118          1           0       13.009825    0.347573   -1.546400
    119          1           0       13.618733    0.820711    0.389857
    120          1           0       13.997981   -0.744147    1.142176
    121          1           0       15.400593    0.581428   -1.439249
    122          1           0       15.874331   -2.108100   -0.143187
    123          1           0       14.891743   -2.019882   -1.631890
    124          1           0       16.736465   -1.419760   -1.524963
    125          1           0       15.825122    1.601254    0.875610
    126          1           0       16.413888   -0.136940    1.312861
    127          1           0       18.092544   -0.391763   -0.467458
    128          1           0       17.826313    1.247928   -1.110091
    129          1           0       18.486020    2.302079    1.228641
    130          1           0       18.829123    0.564503    1.644957
    131          1           0       20.518960    0.429044   -0.146627
    132          1           0       19.994432    3.125697   -0.955257
    133          1           0       21.356604    2.207973   -1.498064
    134          1           0       19.668735    1.771158   -1.946025
    135          1           0       21.328666    1.284544    2.044888
    136          1           0       22.249737    1.923436    0.862717
    137          1           0       21.164235    2.982652    1.427986
 ---------------------------------------------------------------------

 SCF Done:  E(RCAM-B3LYP) =  -2932.62614373     A.U. after   18 cycles

 Excitation energies and oscillator strengths:

 Excited State   1:      Singlet-A      1.9451 eV  637.42 nm  f=0.2778  <S**2>=0.000
     240 -> 243       -0.22386
     241 -> 242        0.65469
 This state for optimization and/or second-order correction.
 Total Energy, E(TD-HF/TD-KS) =  -2932.55466234
 Copying the excited state density for this state as the 1-particle RhoCI density.

 The electronic state is 1-A.
 Alpha  occ. eigenvalues --  -46.83405 -19.27432 -19.25722 -19.21064 -19.20401
 Alpha  occ. eigenvalues --  -19.19770 -14.41237 -14.40550 -14.39130 -14.39085
 Alpha  occ. eigenvalues --  -10.39811 -10.38592 -10.36009 -10.33248 -10.31697
 Alpha  occ. eigenvalues --  -10.31556 -10.30832 -10.30328 -10.29973 -10.29900
 Alpha  occ. eigenvalues --  -10.29456 -10.28981 -10.28968 -10.28878 -10.28696
 Alpha  occ. eigenvalues --  -10.28467 -10.28439 -10.28252 -10.28083 -10.27870
 Alpha  occ. eigenvalues --  -10.27690 -10.27653 -10.27653 -10.27571 -10.27344
 Alpha  occ. eigenvalues --  -10.27274 -10.27263 -10.27144 -10.27078 -10.27060
 Alpha  occ. eigenvalues --  -10.27020 -10.26815 -10.26776 -10.26700 -10.26473
 Alpha  occ. eigenvalues --  -10.26181 -10.26114 -10.26004 -10.25875 -10.25658
 Alpha  occ. eigenvalues --  -10.25637 -10.25610 -10.25608 -10.25313 -10.25236
 Alpha  occ. eigenvalues --  -10.25229 -10.25071 -10.25063 -10.24974 -10.24733
 Alpha  occ. eigenvalues --  -10.24603 -10.24579 -10.23922 -10.23515 -10.22716
 Alpha  occ. eigenvalues --   -3.12758  -1.87429  -1.87023  -1.86957  -1.18986
 Alpha  occ. eigenvalues --   -1.17939  -1.10534  -1.09026  -1.06691  -1.04964
 Alpha  occ. eigenvalues --   -1.03637  -1.02853  -1.01814  -0.94526  -0.92076
 Alpha  occ. eigenvalues --   -0.90855  -0.90480  -0.89922  -0.89466  -0.88869
 Alpha  occ. eigenvalues --   -0.88861  -0.87792  -0.87441  -0.86795  -0.86084
 Alpha  occ. eigenvalues --   -0.85498  -0.85327  -0.84560  -0.83814  -0.82786
 Alpha  occ. eigenvalues --   -0.81534  -0.81018  -0.80460  -0.80189  -0.78206
 Alpha  occ. eigenvalues --   -0.77907  -0.76968  -0.76929  -0.76520  -0.75872
 Alpha  occ. eigenvalues --   -0.74985  -0.74625  -0.74008  -0.73310  -0.72550
 Alpha  occ. eigenvalues --   -0.71994  -0.70328  -0.69784  -0.69200  -0.68158
 Alpha  occ. eigenvalues --   -0.67049  -0.66583  -0.64976  -0.64727  -0.64236
 Alpha  occ. eigenvalues --   -0.64136  -0.63336  -0.63149  -0.62129  -0.61872
 Alpha  occ. eigenvalues --   -0.61229  -0.60736  -0.60444  -0.59842  -0.59346
 Alpha  occ. eigenvalues --   -0.58959  -0.58343  -0.57985  -0.57808  -0.57296
 Alpha  occ. eigenvalues --   -0.56666  -0.56271  -0.55650  -0.55285  -0.54859
 Alpha  occ. eigenvalues --   -0.54692  -0.54299  -0.54175  -0.53757  -0.53436
 Alpha  occ. eigenvalues --   -0.53381  -0.52857  -0.52039  -0.51719  -0.51346
 Alpha  occ. eigenvalues --   -0.51269  -0.51048  -0.50994  -0.50695  -0.50610
 Alpha  occ. eigenvalues --   -0.50361  -0.50157  -0.50013  -0.49709  -0.49625
 Alpha  occ. eigenvalues --   -0.49376  -0.48629  -0.48453  -0.48382  -0.48225
 Alpha  occ. eigenvalues --   -0.47931  -0.47699  -0.47471  -0.47154  -0.46991
 Alpha  occ. eigenvalues --   -0.46910  -0.46691  -0.46642  -0.46342  -0.46142
 Alpha  occ. eigenvalues --   -0.45909  -0.45700  -0.45520  -0.45471  -0.45128
 Alpha  occ. eigenvalues --   -0.44978  -0.44787  -0.44408  -0.44050  -0.43915
 Alpha  occ. eigenvalues --   -0.43728  -0.43617  -0.43438  -0.43290  -0.43187
 Alpha  occ. eigenvalues --   -0.42960  -0.42848  -0.42663  -0.42472  -0.42283
 Alpha  occ. eigenvalues --   -0.41973  -0.41680  -0.41526  -0.41401  -0.41154
 Alpha  occ. eigenvalues --   -0.40990  -0.40836  -0.40699  -0.40198  -0.40139
 Alpha  occ. eigenvalues --   -0.39987  -0.39857  -0.39475  -0.39344  -0.39085
 Alpha  occ. eigenvalues --   -0.38815  -0.38699  -0.38603  -0.38024  -0.37880
 Alpha  occ. eigenvalues --   -0.37410  -0.37147  -0.36933  -0.36621  -0.36510
 Alpha  occ. eigenvalues --   -0.36345  -0.36313  -0.35973  -0.35705  -0.35653
 Alpha  occ. eigenvalues --   -0.35328  -0.35280  -0.34969  -0.33889  -0.33296
 Alpha  occ. eigenvalues --   -0.32753  -0.32595  -0.32157  -0.31127  -0.31048
 Alpha  occ. eigenvalues --   -0.30026  -0.29273  -0.29062  -0.26150  -0.22709
 Alpha  occ. eigenvalues --   -0.21378
 Alpha virt. eigenvalues --   -0.07352  -0.03010   0.01528   0.04194   0.05371
 Alpha virt. eigenvalues --    0.05960   0.06039   0.06931   0.07244   0.07340
 Alpha virt. eigenvalues --    0.08454   0.09446   0.10129   0.10699   0.11024

 Mulliken charges:
               1
     1  Mg   0.836485
     2  C    0.079102
     3  C   -0.217478
     4  C   -0.172682
     5  C   -0.197551
     6  N   -0.636614
     7  C    0.330674
     8  C   -0.189103
     9  C   -0.137219
    10  C    0.362559
    11  C   -0.277032
    12  C   -0.180196
    13  C   -0.260118
    14  C    0.604088
    15  O   -0.469743
    16  O   -0.483305
    17  N   -0.680877
    18  C    0.275696
    19  C    0.047560
    20  C   -0.031147
    21  C    0.326201
    22  C   -0.376010
    23  C   -0.081718
    24  C   -0.250184
    25  N   -0.688671
    26  C    0.270673
    27  C    0.059040
    28  C    0.009550
    29  C    0.288288
    30  C   -0.384387
    31  C   -0.239059
    32  C   -0.288397
    33  N   -0.758890
    34  C    0.303018
    35  C   -0.021376
    36  C    0.062491
    37  C    0.305558
    38  C   -0.386198
    39  C    0.355609
    40  O   -0.468861
    41  C   -0.324534
    42  C    0.628072
    43  O   -0.508983
    44  O   -0.420260
    45  C   -0.079957
    46  C    0.018864
    47  C   -0.135971
    48  C    0.147077
    49  C   -0.378488
    50  C   -0.214580
    51  C   -0.184182
    52  C   -0.156723
    53  C   -0.064924
    54  C   -0.292293
    55  C   -0.184891
    56  C   -0.163583
    57  C   -0.163229
    58  C   -0.069081
    59  C   -0.295885
    60  C   -0.162222
    61  C   -0.186261
    62  C   -0.154832
    63  C   -0.046553
    64  C   -0.329654
    65  C   -0.324009
    66  H    0.066038
    67  H    0.086953
    68  H    0.084380
    69  H    0.123371
    70  H    0.097315
    71  H    0.101831
    72  H    0.104865
    73  H    0.101464
    74  H    0.109139
    75  H    0.124412
    76  H    0.130282
    77  H    0.144432
    78  H    0.114886
    79  H    0.111174
    80  H    0.106313
    81  H    0.084769
    82  H    0.105057
    83  H    0.114609
    84  H    0.140492
    85  H    0.098637
    86  H    0.128555
    87  H    0.089895
    88  H    0.107493
    89  H    0.103789
    90  H    0.102110
    91  H    0.121434
    92  H    0.118959
    93  H    0.148340
    94  H    0.136952
    95  H    0.181203
    96  H    0.111842
    97  H    0.133978
    98  H    0.111280
    99  H    0.134644
   100  H    0.116347
   101  H    0.080934
   102  H    0.101955
   103  H    0.105242
   104  H    0.123374
   105  H    0.090922
   106  H    0.115101
   107  H    0.097909
   108  H    0.096031
   109  H    0.114560
   110  H    0.084715
   111  H    0.055172
   112  H    0.082595
   113  H    0.095677
   114  H    0.093206
   115  H    0.093415
   116  H    0.068102
   117  H    0.108366
   118  H    0.091389
   119  H    0.092927
   120  H    0.072230
   121  H    0.075146
   122  H    0.110237
   123  H    0.081787
   124  H    0.073247
   125  H    0.059738
   126  H    0.091633
   127  H    0.100110
   128  H    0.094211
   129  H    0.081452
   130  H    0.078925
   131  H    0.098981
   132  H    0.109595
   133  H    0.099288
   134  H    0.094720
   135  H    0.107514
   136  H    0.079778
   137  H    0.109881
 Sum of Mulliken charges =   0.00000

 Dipole moment (field-independent basis, Debye):
    X=              0.5443    Y=              3.0336    Z=             -0.5441  Tot=              3.1297
 Quadrupole moment (field-independent basis, Debye-Ang):
   XX=           -311.6232   YY=           -397.2244   ZZ=           -400.0951
   XY=            -14.9359   XZ=             19.1938   YZ=             -2.0159

 Normal termination of Gaussian 09 at Tue Jul  2 19:25:39 2019.
