 Gaussian 16, Revision A.03,
 Gaussian 16:  ES64L-G16RevA.03 25-Dec-2016

 ----------------------------------------------------------------------
 # td=(NStates=1) iop(3/107=0140000000,3/108=0140000000) CAM-B3LYP/6-31
 G(d,p)
 ----------------------------------------------------------------------

 --
 TD
 --
 Symbolic Z-matrix:
 Charge =  0 Multiplicity = 1

                         Standard orientation:
 ---------------------------------------------------------------------
 Center     Atomic      Atomic             Coordinates (Angstroms)
 Number     Number       Type             X           Y           Z
 ---------------------------------------------------------------------
      1         12           0       -7.051576    0.599456    0.091457
      2          6           0       -4.847702   -1.963823    0.498994
      3          6           0       -4.706508    2.753721    1.219299
      4          6           0       -9.328317    3.135093   -0.255320
      5          6           0       -9.581826   -1.754441   -0.898027
      6          7           0       -5.047821    0.465140    0.723174
      7          6           0       -4.347776   -0.729439    0.663818
      8          6           0       -2.910218   -0.413714    1.110094
      9          6           0       -3.051675    1.099545    1.732068
     10          6           0       -4.340914    1.475787    1.150493
     11          6           0       -3.045260    1.018071    3.191489
     12          6           0       -1.975403   -0.558206   -0.151347
     13          6           0       -0.520324   -0.341724    0.301043
     14          6           0        0.489105   -0.564187   -0.823813
     15          8           0        0.314340   -0.867955   -1.955684
     16          8           0        1.697928   -0.214373   -0.368564
     17          7           0       -7.026374    2.664474    0.544667
     18          6           0       -5.921093    3.365828    0.882689
     19          6           0       -6.224599    4.733413    0.844591
     20          6           0       -7.596285    4.816909    0.338608
     21          6           0       -8.064910    3.462199    0.123041
     22          6           0       -5.279148    5.794822    1.164084
     23          6           0       -8.524210    6.015854    0.107132
     24          6           0       -8.266930    7.251291    0.686947
     25          7           0       -9.034260    0.679029   -0.504299
     26          6           0       -9.838282    1.876832   -0.683247
     27          6           0      -11.173429    1.536901   -1.152820
     28          6           0      -11.242304    0.170085   -1.210082
     29          6           0       -9.959321   -0.343182   -0.792481
     30          6           0      -12.270992    2.515657   -1.303005
     31          6           0      -12.395198   -0.697351   -1.763117
     32          6           0      -12.226096   -1.126298   -3.154085
     33          7           0       -7.208435   -1.373248   -0.139502
     34          6           0       -8.273632   -2.282150   -0.453259
     35          6           0       -7.844417   -3.601888   -0.645549
     36          6           0       -6.519964   -3.680633   -0.144042
     37          6           0       -6.240082   -2.306578    0.107562
     38          6           0       -8.646877   -4.831965   -0.841215
     39          6           0       -5.289879   -4.431894    0.082704
     40          8           0       -5.040924   -5.602061    0.202685
     41          6           0       -4.176752   -3.389921    0.583673
     42          6           0       -3.648064   -3.645575    1.934898
     43          8           0       -3.972759   -3.077816    2.949990
     44          8           0       -2.882552   -4.674601    1.869972
     45          6           0       -2.355481   -5.251849    3.112536
     46          6           0        2.824696   -0.544014   -1.235576
     47          6           0        4.081466   -0.362138   -0.552902
     48          6           0        5.086543    0.392831   -1.001025
     49          6           0        5.006885    1.257271   -2.159114
     50          6           0        6.389388    0.349286   -0.318679
     51          6           0        7.621366   -0.090283   -0.949370
     52          6           0        8.882861   -0.190096   -0.136328
     53          6           0       10.160304   -0.438156   -0.959174
     54          6           0       10.098524   -1.859420   -1.562135
     55          6           0       11.375945   -0.245373    0.025477
     56          6           0       12.790222   -0.556201   -0.655811
     57          6           0       13.948849   -0.304596    0.277782
     58          6           0       15.310823   -0.195683   -0.456752
     59          6           0       15.681844   -1.603420   -0.864586
     60          6           0       16.333679    0.349396    0.466293
     61          6           0       17.708115    0.607094   -0.165897
     62          6           0       18.664931    1.336534    0.846536
     63          6           0       20.199895    1.215551    0.370251
     64          6           0       20.423068    1.979518   -1.024066
     65          6           0       21.168293    1.852494    1.433942
     66          1           0       -3.847437    3.247362    1.424852
     67          1           0      -10.055402    3.992250   -0.550786
     68          1           0      -10.536289   -2.395566   -0.897632
     69          1           0       -2.583784   -1.179941    1.796134
     70          1           0       -2.280255    1.826096    1.228375
     71          1           0       -2.128633    0.529656    3.819610
     72          1           0       -2.929839    2.090470    3.840754
     73          1           0       -3.831899    0.608636    3.507504
     74          1           0       -2.195742   -1.616803   -0.410743
     75          1           0       -2.305997    0.010298   -1.017810
     76          1           0       -0.282384    0.545403    0.753105
     77          1           0       -0.108348   -0.994723    1.016527
     78          1           0       -5.558821    6.814239    0.564072
     79          1           0       -5.151083    6.145597    2.195055
     80          1           0       -4.207052    5.554143    0.896646
     81          1           0       -9.392445    5.924324   -0.621544
     82          1           0       -9.066257    7.991068    0.530484
     83          1           0       -7.435929    7.276492    1.454664
     84          1           0      -12.154927    3.272958   -2.088099
     85          1           0      -13.142259    1.971393   -1.337988
     86          1           0      -12.158140    3.136489   -0.371279
     87          1           0      -12.575137   -1.451825   -1.225646
     88          1           0      -13.277415   -0.140405   -1.627586
     89          1           0      -13.189180   -1.781059   -3.157344
     90          1           0      -12.105189   -0.428416   -3.734567
     91          1           0      -11.349132   -1.769302   -3.172278
     92          1           0       -9.072870   -4.863905   -1.731373
     93          1           0       -8.211290   -5.858540   -0.857138
     94          1           0       -9.510480   -5.132588   -0.242687
     95          1           0       -3.455091   -3.524335   -0.252797
     96          1           0       -1.855450   -4.527543    3.564750
     97          1           0       -3.302626   -5.535960    3.750580
     98          1           0       -1.814548   -6.187705    2.942168
     99          1           0        2.788543   -1.577246   -1.570691
    100          1           0        2.607549    0.162664   -1.945308
    101          1           0        4.540424   -1.078043    0.328123
    102          1           0        4.041535    1.280919   -2.594783
    103          1           0        5.203512    2.371437   -1.915519
    104          1           0        5.693820    0.932532   -3.106240
    105          1           0        6.362287    1.417325   -0.018806
    106          1           0        6.446880    0.079461    0.680382
    107          1           0        7.615336   -1.098843   -1.369024
    108          1           0        7.903981    0.666840   -1.864635
    109          1           0        9.045343    0.857337    0.349660
    110          1           0        8.572039   -1.016735    0.750771
    111          1           0       10.267269    0.352780   -1.852326
    112          1           0        9.388066   -2.141092   -2.138044
    113          1           0       10.885120   -2.014341   -2.365467
    114          1           0       10.365778   -2.588776   -0.664314
    115          1           0       11.330377    0.558090    0.379412
    116          1           0       11.244981   -1.131813    0.814877
    117          1           0       12.884570   -1.756924   -0.853351
    118          1           0       12.825851   -0.064607   -1.674391
    119          1           0       14.031030    0.576227    0.910207
    120          1           0       13.918639   -1.123629    1.135817
    121          1           0       15.165557    0.385266   -1.426261
    122          1           0       15.605043   -2.379106   -0.067896
    123          1           0       14.967223   -1.984438   -1.695324
    124          1           0       16.562805   -1.527333   -1.488588
    125          1           0       15.882704    1.336720    0.992295
    126          1           0       16.433473   -0.555043    1.312652
    127          1           0       18.090670   -0.381030   -0.485645
    128          1           0       17.631043    1.108048   -1.199624
    129          1           0       18.504507    2.468621    0.904137
    130          1           0       18.642445    1.002782    1.708451
    131          1           0       20.439166    0.218940    0.171906
    132          1           0       20.032641    2.911221   -0.840673
    133          1           0       21.392112    2.055719   -1.385881
    134          1           0       19.766332    1.464042   -1.756588
    135          1           0       21.266138    0.986794    2.297694
    136          1           0       22.047305    1.815351    1.146768
    137          1           0       20.910513    2.768122    1.695983
 ---------------------------------------------------------------------

 SCF Done:  E(RCAM-B3LYP) =  -2933.35517113     A.U. after   15 cycles

 Excitation energies and oscillator strengths:

 Excited State   1:      Singlet-A      2.0046 eV  618.49 nm  f=0.2454  <S**2>=0.000
     240 -> 243        0.22446
     241 -> 242        0.66246
 This state for optimization and/or second-order correction.
 Total Energy, E(TD-HF/TD-DFT) =  -2933.28150214
 Copying the excited state density for this state as the 1-particle RhoCI density.

 The electronic state is 1-A.
 Alpha  occ. eigenvalues --  -46.79784 -19.21748 -19.20007 -19.15979 -19.15652
 Alpha  occ. eigenvalues --  -19.15096 -14.36520 -14.35803 -14.35584 -14.34266
 Alpha  occ. eigenvalues --  -10.33153 -10.32943 -10.30669 -10.26965 -10.25984
 Alpha  occ. eigenvalues --  -10.25679 -10.25376 -10.25192 -10.25094 -10.24953
 Alpha  occ. eigenvalues --  -10.24922 -10.24870 -10.24742 -10.24636 -10.24117
 Alpha  occ. eigenvalues --  -10.24038 -10.23562 -10.23547 -10.23461 -10.23370
 Alpha  occ. eigenvalues --  -10.23302 -10.22842 -10.22621 -10.22597 -10.22544
 Alpha  occ. eigenvalues --  -10.22535 -10.22529 -10.22425 -10.22408 -10.22364
 Alpha  occ. eigenvalues --  -10.22339 -10.22237 -10.22216 -10.21963 -10.21729
 Alpha  occ. eigenvalues --  -10.21715 -10.21679 -10.21641 -10.21533 -10.21530
 Alpha  occ. eigenvalues --  -10.21500 -10.21210 -10.21200 -10.20832 -10.20315
 Alpha  occ. eigenvalues --  -10.20241 -10.20208 -10.20208 -10.20142 -10.20123
 Alpha  occ. eigenvalues --  -10.19961 -10.19674 -10.19436 -10.18543 -10.18416
 Alpha  occ. eigenvalues --   -3.08307  -1.83255  -1.82787  -1.82703  -1.14253
 Alpha  occ. eigenvalues --   -1.12974  -1.06733  -1.04026  -1.03738  -0.99570
 Alpha  occ. eigenvalues --   -0.97914  -0.97718  -0.95328  -0.87554  -0.86297
 Alpha  occ. eigenvalues --   -0.85562  -0.84927  -0.84513  -0.84211  -0.83903
 Alpha  occ. eigenvalues --   -0.82978  -0.82496  -0.82423  -0.81936  -0.81586
 Alpha  occ. eigenvalues --   -0.80942  -0.79737  -0.79142  -0.78248  -0.77929
 Alpha  occ. eigenvalues --   -0.76948  -0.76452  -0.76159  -0.75337  -0.73852
 Alpha  occ. eigenvalues --   -0.73553  -0.72228  -0.72087  -0.71731  -0.71675
 Alpha  occ. eigenvalues --   -0.71186  -0.70597  -0.70241  -0.69309  -0.68299
 Alpha  occ. eigenvalues --   -0.67610  -0.66637  -0.65724  -0.65109  -0.63834
 Alpha  occ. eigenvalues --   -0.62421  -0.61987  -0.61135  -0.60605  -0.59831
 Alpha  occ. eigenvalues --   -0.59552  -0.59319  -0.58293  -0.58024  -0.57923
 Alpha  occ. eigenvalues --   -0.57261  -0.56617  -0.55857  -0.55592  -0.55443
 Alpha  occ. eigenvalues --   -0.54930  -0.53938  -0.53799  -0.53664  -0.53420
 Alpha  occ. eigenvalues --   -0.52661  -0.51973  -0.51700  -0.51594  -0.51379
 Alpha  occ. eigenvalues --   -0.50690  -0.50054  -0.49983  -0.49757  -0.49519
 Alpha  occ. eigenvalues --   -0.49160  -0.49008  -0.48808  -0.48313  -0.48161
 Alpha  occ. eigenvalues --   -0.47787  -0.47662  -0.47278  -0.47096  -0.46862
 Alpha  occ. eigenvalues --   -0.46465  -0.46271  -0.45993  -0.45828  -0.45707
 Alpha  occ. eigenvalues --   -0.45422  -0.45193  -0.45032  -0.44860  -0.44713
 Alpha  occ. eigenvalues --   -0.44329  -0.44162  -0.44077  -0.43929  -0.43744
 Alpha  occ. eigenvalues --   -0.43568  -0.43429  -0.42929  -0.42761  -0.42689
 Alpha  occ. eigenvalues --   -0.42542  -0.42441  -0.42255  -0.42076  -0.41770
 Alpha  occ. eigenvalues --   -0.41350  -0.41151  -0.40946  -0.40801  -0.40679
 Alpha  occ. eigenvalues --   -0.40500  -0.40422  -0.40188  -0.40074  -0.39907
 Alpha  occ. eigenvalues --   -0.39794  -0.39655  -0.39350  -0.38972  -0.38919
 Alpha  occ. eigenvalues --   -0.38774  -0.38681  -0.38412  -0.38154  -0.38117
 Alpha  occ. eigenvalues --   -0.37805  -0.37489  -0.37319  -0.37028  -0.36952
 Alpha  occ. eigenvalues --   -0.36707  -0.36613  -0.36326  -0.36244  -0.35634
 Alpha  occ. eigenvalues --   -0.35533  -0.35504  -0.35134  -0.34811  -0.34048
 Alpha  occ. eigenvalues --   -0.33925  -0.33890  -0.33763  -0.33366  -0.33230
 Alpha  occ. eigenvalues --   -0.33026  -0.32579  -0.32317  -0.32082  -0.31927
 Alpha  occ. eigenvalues --   -0.31785  -0.31649  -0.31593  -0.30110  -0.30038
 Alpha  occ. eigenvalues --   -0.29613  -0.29514  -0.29210  -0.28456  -0.27255
 Alpha  occ. eigenvalues --   -0.26959  -0.26720  -0.25809  -0.23928  -0.21456
 Alpha  occ. eigenvalues --   -0.20685
 Alpha virt. eigenvalues --   -0.07920  -0.03984  -0.00024   0.02277   0.04019
 Alpha virt. eigenvalues --    0.04409   0.04951   0.05738   0.05949   0.06519
 Alpha virt. eigenvalues --    0.06761   0.09065   0.09329   0.09406   0.10275

 Mulliken charges:
               1
     1  Mg   0.805928
     2  C    0.074458
     3  C   -0.130257
     4  C   -0.166774
     5  C   -0.165995
     6  N   -0.654204
     7  C    0.269569
     8  C   -0.171699
     9  C   -0.148048
    10  C    0.343844
    11  C   -0.268471
    12  C   -0.175730
    13  C   -0.257879
    14  C    0.579645
    15  O   -0.468957
    16  O   -0.488404
    17  N   -0.728776
    18  C    0.355318
    19  C    0.049485
    20  C   -0.022772
    21  C    0.344552
    22  C   -0.412763
    23  C   -0.081263
    24  C   -0.244492
    25  N   -0.651974
    26  C    0.245202
    27  C    0.039271
    28  C    0.000076
    29  C    0.261231
    30  C   -0.375734
    31  C   -0.229448
    32  C   -0.267115
    33  N   -0.674366
    34  C    0.229099
    35  C    0.007424
    36  C    0.073650
    37  C    0.252763
    38  C   -0.396781
    39  C    0.329607
    40  O   -0.437715
    41  C   -0.324845
    42  C    0.637662
    43  O   -0.495823
    44  O   -0.420667
    45  C   -0.087193
    46  C    0.019564
    47  C   -0.125402
    48  C    0.149192
    49  C   -0.367015
    50  C   -0.223710
    51  C   -0.146579
    52  C   -0.154817
    53  C   -0.068296
    54  C   -0.293889
    55  C   -0.115257
    56  C   -0.180103
    57  C   -0.156102
    58  C   -0.048844
    59  C   -0.305470
    60  C   -0.149042
    61  C   -0.189104
    62  C   -0.138365
    63  C   -0.092181
    64  C   -0.318914
    65  C   -0.290325
    66  H    0.052818
    67  H    0.075952
    68  H    0.097709
    69  H    0.109042
    70  H    0.090690
    71  H    0.092805
    72  H    0.066893
    73  H    0.146040
    74  H    0.112490
    75  H    0.122046
    76  H    0.142424
    77  H    0.136605
    78  H    0.103000
    79  H    0.128464
    80  H    0.112320
    81  H    0.094526
    82  H    0.102665
    83  H    0.110377
    84  H    0.123426
    85  H    0.120140
    86  H    0.122166
    87  H    0.112326
    88  H    0.096129
    89  H    0.088187
    90  H    0.116644
    91  H    0.108129
    92  H    0.129666
    93  H    0.131846
    94  H    0.125016
    95  H    0.152525
    96  H    0.141686
    97  H    0.125100
    98  H    0.135096
    99  H    0.131210
   100  H    0.125664
   101  H    0.071018
   102  H    0.116959
   103  H    0.107033
   104  H    0.105761
   105  H    0.097428
   106  H    0.097720
   107  H    0.100713
   108  H    0.060013
   109  H    0.071718
   110  H    0.062005
   111  H    0.070226
   112  H    0.114546
   113  H    0.085790
   114  H    0.087147
   115  H    0.087215
   116  H    0.071810
   117  H    0.082330
   118  H    0.085437
   119  H    0.079085
   120  H    0.070071
   121  H    0.078654
   122  H    0.104331
   123  H    0.083221
   124  H    0.098631
   125  H    0.069103
   126  H    0.062644
   127  H    0.100771
   128  H    0.086559
   129  H    0.078645
   130  H    0.101568
   131  H    0.089782
   132  H    0.106039
   133  H    0.103633
   134  H    0.091318
   135  H    0.060760
   136  H    0.113869
   137  H    0.108645
 Sum of Mulliken charges =  -0.00000

 Dipole moment (field-independent basis, Debye):
    X=              1.2130    Y=              2.7412    Z=             -0.2601  Tot=              3.0088
 Quadrupole moment (field-independent basis, Debye-Ang):
   XX=           -323.2962   YY=           -389.7172   ZZ=           -398.6393
   XY=            -14.1827   XZ=             11.9832   YZ=             -4.9460

 Normal termination of Gaussian 16 at Tue Sep  3 19:19:20 2019.
