 Gaussian 09, Revision D.01,
 Gaussian 09:  ES64L-G09RevD.01 24-Apr-2013

 -------------------------------------
 # td=(NStates=1) CAM-B3LYP/6-31G(d,p)
 -------------------------------------

 --
 TD
 --
 Symbolic Z-matrix:
 Charge =  0 Multiplicity = 1

                         Standard orientation:
 ---------------------------------------------------------------------
 Center     Atomic      Atomic             Coordinates (Angstroms)
 Number     Number       Type             X           Y           Z
 ---------------------------------------------------------------------
      1         12           0       -7.143061    0.623132    0.107028
      2          6           0       -4.884064   -1.905034    0.505186
      3          6           0       -4.862090    2.899299    1.233959
      4          6           0       -9.388238    3.077385   -0.385384
      5          6           0       -9.554603   -1.728021   -0.882478
      6          7           0       -5.175474    0.487943    0.751623
      7          6           0       -4.340633   -0.701585    0.709606
      8          6           0       -2.957144   -0.374752    1.189146
      9          6           0       -2.959211    1.183553    1.642497
     10          6           0       -4.340017    1.583989    1.024751
     11          6           0       -2.850547    1.284245    3.163364
     12          6           0       -1.870209   -0.584448    0.073231
     13          6           0       -0.480566   -0.495088    0.606344
     14          6           0        0.558070   -0.797814   -0.557332
     15          8           0        0.311165   -1.172039   -1.693829
     16          8           0        1.846042   -0.545455   -0.090319
     17          7           0       -7.086843    2.636458    0.246589
     18          6           0       -6.074756    3.363470    0.696304
     19          6           0       -6.510088    4.837389    0.587527
     20          6           0       -7.752373    4.835519    0.215399
     21          6           0       -8.213010    3.471894    0.010309
     22          6           0       -5.535952    5.881343    1.040576
     23          6           0       -8.586296    6.054647    0.085285
     24          6           0       -8.422624    7.218041    0.656198
     25          7           0       -9.172760    0.640974   -0.519688
     26          6           0       -9.879647    1.737779   -0.695489
     27          6           0      -11.170538    1.469111   -1.175823
     28          6           0      -11.247155    0.051680   -1.169222
     29          6           0      -10.064260   -0.374755   -0.788149
     30          6           0      -12.232284    2.417281   -1.416252
     31          6           0      -12.437988   -0.809702   -1.597841
     32          6           0      -12.387799   -1.146401   -3.138827
     33          7           0       -7.311307   -1.376040   -0.222122
     34          6           0       -8.301573   -2.252165   -0.486075
     35          6           0       -7.853853   -3.625638   -0.460436
     36          6           0       -6.554257   -3.537842   -0.130267
     37          6           0       -6.228108   -2.160065    0.074500
     38          6           0       -8.666977   -4.915055   -0.647362
     39          6           0       -5.377947   -4.342207    0.105131
     40          8           0       -5.073232   -5.554483   -0.038075
     41          6           0       -4.274049   -3.256486    0.432436
     42          6           0       -3.587452   -3.563798    1.770583
     43          8           0       -3.770451   -2.984958    2.847373
     44          8           0       -2.805998   -4.615359    1.621590
     45          6           0       -2.046391   -5.022817    2.824949
     46          6           0        2.916825   -0.588150   -1.153335
     47          6           0        4.205355   -0.442960   -0.405192
     48          6           0        5.256620    0.307496   -0.797814
     49          6           0        5.232988    1.078646   -2.106926
     50          6           0        6.424193    0.430384   -0.012345
     51          6           0        7.642589   -0.188513   -0.686309
     52          6           0        8.976157   -0.194121    0.119531
     53          6           0       10.165217   -0.742772   -0.630104
     54          6           0        9.948356   -2.218216   -0.895333
     55          6           0       11.481841   -0.489864    0.109421
     56          6           0       12.785710   -0.435395   -0.548164
     57          6           0       13.985830   -0.077474    0.296510
     58          6           0       15.355200   -0.259731   -0.427878
     59          6           0       15.647867   -1.717121   -0.846147
     60          6           0       16.425535    0.430064    0.468269
     61          6           0       17.827826    0.580204   -0.215436
     62          6           0       18.807979    1.423667    0.584943
     63          6           0       20.217908    1.459428   -0.093221
     64          6           0       20.212281    2.267712   -1.369070
     65          6           0       21.316267    1.982894    0.923968
     66          1           0       -4.099683    3.894031    1.233904
     67          1           0      -10.307770    3.705479   -0.435280
     68          1           0      -10.271016   -2.434499   -1.351541
     69          1           0       -2.610782   -1.252257    2.017266
     70          1           0       -2.166164    1.740716    1.111210
     71          1           0       -1.735795    0.997903    3.376745
     72          1           0       -2.937740    2.421072    3.331428
     73          1           0       -3.520631    0.767013    3.765282
     74          1           0       -2.097818   -1.451611   -0.569048
     75          1           0       -2.032809   -0.009805   -0.778511
     76          1           0       -0.230873    0.400267    1.038222
     77          1           0       -0.157779   -1.216684    1.498408
     78          1           0       -5.642790    6.818301    0.599857
     79          1           0       -5.948680    5.941267    2.109785
     80          1           0       -4.351519    5.571086    1.094129
     81          1           0       -9.309837    6.028320   -0.604913
     82          1           0       -9.022584    8.082189    0.550166
     83          1           0       -7.415115    7.302888    1.313966
     84          1           0      -11.964660    2.862736   -2.325471
     85          1           0      -13.269866    1.885514   -1.461300
     86          1           0      -12.607139    3.096440   -0.677730
     87          1           0      -12.324150   -1.684863   -0.901680
     88          1           0      -13.304997   -0.280772   -1.454828
     89          1           0      -13.170799   -1.833304   -3.488487
     90          1           0      -12.350800   -0.198733   -3.662999
     91          1           0      -11.676889   -1.783703   -3.459975
     92          1           0       -8.978091   -5.025485   -1.580560
     93          1           0       -8.061557   -5.744497   -0.590418
     94          1           0       -9.446200   -4.737912    0.162563
     95          1           0       -3.425445   -3.424614   -0.370141
     96          1           0       -1.316921   -4.143348    3.041560
     97          1           0       -2.883303   -4.824116    3.576108
     98          1           0       -1.976335   -6.216295    2.536011
     99          1           0        2.809506   -1.703207   -1.604800
    100          1           0        2.672163    0.009555   -1.935026
    101          1           0        4.250318   -0.867327    0.580190
    102          1           0        4.298668    1.224822   -2.572027
    103          1           0        5.819364    1.952272   -2.078867
    104          1           0        5.786645    0.490201   -2.922492
    105          1           0        6.709174    1.499313    0.210934
    106          1           0        6.289294   -0.189817    1.072102
    107          1           0        7.524216   -1.209261   -0.980611
    108          1           0        7.954737    0.270275   -1.686908
    109          1           0        9.191516    0.889428    0.463499
    110          1           0        8.883494   -0.765556    0.996242
    111          1           0        9.891716   -0.090288   -1.670864
    112          1           0        9.025436   -2.503499   -1.396583
    113          1           0       10.956142   -2.610580   -1.636940
    114          1           0        9.733521   -2.631753    0.034806
    115          1           0       11.247745    0.533994    0.569154
    116          1           0       11.580382   -1.136277    0.984246
    117          1           0       13.083417   -1.542199   -0.826273
    118          1           0       12.796556   -0.035942   -1.624344
    119          1           0       13.972257    0.914200    0.825869
    120          1           0       13.911955   -0.541873    1.184934
    121          1           0       15.174217    0.229610   -1.213126
    122          1           0       15.658599   -2.598749   -0.137717
    123          1           0       14.996110   -2.154327   -1.522351
    124          1           0       16.646944   -1.819499   -1.523766
    125          1           0       16.000939    1.487244    0.625011
    126          1           0       16.365323   -0.237151    1.343526
    127          1           0       18.249271   -0.372797   -0.474243
    128          1           0       17.713967    0.958971   -1.264346
    129          1           0       18.383567    2.547068    0.594492
    130          1           0       18.838609    0.929160    1.664928
    131          1           0       20.567579    0.440029   -0.226157
    132          1           0       20.048219    3.326872   -1.127930
    133          1           0       21.226804    2.166525   -1.600935
    134          1           0       19.692910    2.010130   -2.253113
    135          1           0       21.182662    1.399051    1.951172
    136          1           0       22.352083    2.046660    0.589065
    137          1           0       21.024214    2.932661    1.102168
 ---------------------------------------------------------------------

 SCF Done:  E(RCAM-B3LYP) =  -2932.64641242     A.U. after   17 cycles

 Excitation energies and oscillator strengths:

 Excited State   1:      Singlet-A      2.3338 eV  531.25 nm  f=0.1799  <S**2>=0.000
     240 -> 243       -0.29736
     241 -> 242        0.62750
 This state for optimization and/or second-order correction.
 Total Energy, E(TD-HF/TD-KS) =  -2932.56064689
 Copying the excited state density for this state as the 1-particle RhoCI density.

 The electronic state is 1-A.
 Alpha  occ. eigenvalues --  -46.84104 -19.25732 -19.25625 -19.21686 -19.20366
 Alpha  occ. eigenvalues --  -19.20144 -14.41672 -14.39647 -14.39624 -14.37661
 Alpha  occ. eigenvalues --  -10.39761 -10.38648 -10.35245 -10.33290 -10.32535
 Alpha  occ. eigenvalues --  -10.32281 -10.30830 -10.30352 -10.29271 -10.29082
 Alpha  occ. eigenvalues --  -10.29030 -10.28901 -10.28648 -10.28528 -10.28394
 Alpha  occ. eigenvalues --  -10.28394 -10.28056 -10.27924 -10.27694 -10.27295
 Alpha  occ. eigenvalues --  -10.27244 -10.27228 -10.27185 -10.26577 -10.26532
 Alpha  occ. eigenvalues --  -10.26492 -10.26486 -10.26471 -10.26424 -10.26339
 Alpha  occ. eigenvalues --  -10.26127 -10.26054 -10.25987 -10.25947 -10.25937
 Alpha  occ. eigenvalues --  -10.25859 -10.25846 -10.25830 -10.25801 -10.25730
 Alpha  occ. eigenvalues --  -10.25632 -10.25478 -10.25216 -10.25119 -10.25111
 Alpha  occ. eigenvalues --  -10.25069 -10.24829 -10.24660 -10.24656 -10.24322
 Alpha  occ. eigenvalues --  -10.24310 -10.24249 -10.24173 -10.24036 -10.23473
 Alpha  occ. eigenvalues --   -3.13127  -1.87840  -1.87393  -1.87279  -1.17918
 Alpha  occ. eigenvalues --   -1.15856  -1.08429  -1.08098  -1.07821  -1.04754
 Alpha  occ. eigenvalues --   -1.04002  -1.03371  -1.00689  -0.92787  -0.92386
 Alpha  occ. eigenvalues --   -0.91021  -0.90407  -0.89689  -0.89295  -0.88955
 Alpha  occ. eigenvalues --   -0.88409  -0.88042  -0.87742  -0.86469  -0.85620
 Alpha  occ. eigenvalues --   -0.85165  -0.84250  -0.83607  -0.83277  -0.82928
 Alpha  occ. eigenvalues --   -0.81516  -0.81209  -0.80503  -0.80126  -0.78800
 Alpha  occ. eigenvalues --   -0.78023  -0.77889  -0.76872  -0.76094  -0.75949
 Alpha  occ. eigenvalues --   -0.75746  -0.74855  -0.74548  -0.73201  -0.72475
 Alpha  occ. eigenvalues --   -0.71612  -0.70957  -0.70518  -0.69161  -0.68198
 Alpha  occ. eigenvalues --   -0.67098  -0.66965  -0.65425  -0.65120  -0.64594
 Alpha  occ. eigenvalues --   -0.64300  -0.63456  -0.62966  -0.62468  -0.62312
 Alpha  occ. eigenvalues --   -0.61541  -0.60887  -0.60550  -0.59910  -0.59179
 Alpha  occ. eigenvalues --   -0.58323  -0.58049  -0.57758  -0.56473  -0.56037
 Alpha  occ. eigenvalues --   -0.55423  -0.54943  -0.54829  -0.54542  -0.54261
 Alpha  occ. eigenvalues --   -0.54052  -0.53676  -0.53523  -0.53255  -0.53143
 Alpha  occ. eigenvalues --   -0.52687  -0.52468  -0.52230  -0.51980  -0.51899
 Alpha  occ. eigenvalues --   -0.51736  -0.51602  -0.51328  -0.50816  -0.50661
 Alpha  occ. eigenvalues --   -0.50518  -0.50086  -0.49939  -0.49679  -0.49470
 Alpha  occ. eigenvalues --   -0.49309  -0.49018  -0.48939  -0.48635  -0.48475
 Alpha  occ. eigenvalues --   -0.48045  -0.47696  -0.47612  -0.47457  -0.47342
 Alpha  occ. eigenvalues --   -0.47128  -0.46770  -0.46579  -0.46383  -0.45954
 Alpha  occ. eigenvalues --   -0.45864  -0.45600  -0.45511  -0.45102  -0.44895
 Alpha  occ. eigenvalues --   -0.44774  -0.44756  -0.44588  -0.44234  -0.44000
 Alpha  occ. eigenvalues --   -0.43973  -0.43642  -0.43390  -0.43072  -0.42991
 Alpha  occ. eigenvalues --   -0.42800  -0.42658  -0.42498  -0.42229  -0.41922
 Alpha  occ. eigenvalues --   -0.41845  -0.41667  -0.41544  -0.41236  -0.41166
 Alpha  occ. eigenvalues --   -0.41023  -0.40803  -0.40742  -0.40559  -0.40318
 Alpha  occ. eigenvalues --   -0.39918  -0.39748  -0.39450  -0.39331  -0.38810
 Alpha  occ. eigenvalues --   -0.38702  -0.38328  -0.37948  -0.37852  -0.37615
 Alpha  occ. eigenvalues --   -0.37538  -0.37432  -0.36938  -0.36870  -0.36803
 Alpha  occ. eigenvalues --   -0.36551  -0.36268  -0.35946  -0.35707  -0.35585
 Alpha  occ. eigenvalues --   -0.35303  -0.34876  -0.34348  -0.33908  -0.33585
 Alpha  occ. eigenvalues --   -0.33292  -0.33197  -0.32031  -0.31056  -0.30156
 Alpha  occ. eigenvalues --   -0.29955  -0.29190  -0.28742  -0.26941  -0.23541
 Alpha  occ. eigenvalues --   -0.21950
 Alpha virt. eigenvalues --   -0.05329  -0.03103   0.01195   0.04036   0.05470
 Alpha virt. eigenvalues --    0.05794   0.06268   0.06598   0.06725   0.07216
 Alpha virt. eigenvalues --    0.08144   0.10303   0.10565   0.11101   0.11629

 Mulliken charges:
               1
     1  Mg   0.818472
     2  C    0.130535
     3  C   -0.197440
     4  C   -0.192952
     5  C   -0.168382
     6  N   -0.625628
     7  C    0.309575
     8  C   -0.175432
     9  C   -0.125355
    10  C    0.289374
    11  C   -0.279981
    12  C   -0.194165
    13  C   -0.245709
    14  C    0.605652
    15  O   -0.470997
    16  O   -0.514191
    17  N   -0.721101
    18  C    0.325223
    19  C   -0.003796
    20  C    0.034064
    21  C    0.343136
    22  C   -0.380468
    23  C   -0.031748
    24  C   -0.246878
    25  N   -0.670818
    26  C    0.293516
    27  C   -0.013394
    28  C    0.021674
    29  C    0.254526
    30  C   -0.389927
    31  C   -0.218587
    32  C   -0.314257
    33  N   -0.693163
    34  C    0.236353
    35  C   -0.009357
    36  C    0.038769
    37  C    0.251717
    38  C   -0.342292
    39  C    0.373946
    40  O   -0.487518
    41  C   -0.359904
    42  C    0.621718
    43  O   -0.504001
    44  O   -0.443481
    45  C   -0.111010
    46  C    0.025538
    47  C   -0.145986
    48  C    0.174981
    49  C   -0.372719
    50  C   -0.236957
    51  C   -0.181860
    52  C   -0.178205
    53  C   -0.047790
    54  C   -0.289956
    55  C   -0.161015
    56  C   -0.176221
    57  C   -0.183884
    58  C   -0.034473
    59  C   -0.330526
    60  C   -0.173115
    61  C   -0.182069
    62  C   -0.148485
    63  C   -0.073138
    64  C   -0.310695
    65  C   -0.317646
    66  H    0.048973
    67  H    0.095871
    68  H    0.098641
    69  H    0.114565
    70  H    0.112574
    71  H    0.094662
    72  H    0.101176
    73  H    0.145088
    74  H    0.117477
    75  H    0.121510
    76  H    0.142862
    77  H    0.117698
    78  H    0.137781
    79  H    0.140360
    80  H    0.104109
    81  H    0.086119
    82  H    0.112020
    83  H    0.070032
    84  H    0.131935
    85  H    0.092763
    86  H    0.125365
    87  H    0.096498
    88  H    0.109621
    89  H    0.093356
    90  H    0.115484
    91  H    0.115434
    92  H    0.133282
    93  H    0.148188
    94  H    0.127703
    95  H    0.163282
    96  H    0.138389
    97  H    0.151280
    98  H    0.148556
    99  H    0.113905
   100  H    0.132821
   101  H    0.098501
   102  H    0.117933
   103  H    0.120929
   104  H    0.113548
   105  H    0.104602
   106  H    0.075196
   107  H    0.104528
   108  H    0.085061
   109  H    0.075944
   110  H    0.090543
   111  H    0.047717
   112  H    0.104411
   113  H    0.071340
   114  H    0.108835
   115  H    0.078672
   116  H    0.096250
   117  H    0.076461
   118  H    0.085365
   119  H    0.072398
   120  H    0.095527
   121  H    0.100281
   122  H    0.096549
   123  H    0.116361
   124  H    0.073944
   125  H    0.086800
   126  H    0.096128
   127  H    0.098712
   128  H    0.083805
   129  H    0.067456
   130  H    0.074016
   131  H    0.091936
   132  H    0.099207
   133  H    0.108037
   134  H    0.111520
   135  H    0.084923
   136  H    0.100849
   137  H    0.114234
 Sum of Mulliken charges =   0.00000

 Dipole moment (field-independent basis, Debye):
    X=              1.6465    Y=              4.4344    Z=             -0.1341  Tot=              4.7321
 Quadrupole moment (field-independent basis, Debye-Ang):
   XX=           -349.9054   YY=           -389.9945   ZZ=           -397.4512
   XY=            -20.2361   XZ=              4.5236   YZ=             -4.2948

 Normal termination of Gaussian 09 at Fri Jul  5 21:01:14 2019.
