 Gaussian 16, Revision A.03,
 Gaussian 16:  ES64L-G16RevA.03 25-Dec-2016

 ----------------------------------------------------------------------
 # td=(NStates=1) iop(3/107=0140000000,3/108=0140000000) CAM-B3LYP/6-31
 G(d,p)
 ----------------------------------------------------------------------

 --
 TD
 --
 Symbolic Z-matrix:
 Charge =  0 Multiplicity = 1

                         Standard orientation:
 ---------------------------------------------------------------------
 Center     Atomic      Atomic             Coordinates (Angstroms)
 Number     Number       Type             X           Y           Z
 ---------------------------------------------------------------------
      1         12           0       -7.134858    0.656708   -0.015306
      2          6           0       -4.808968   -1.943693    0.425088
      3          6           0       -4.872587    2.807108    1.045923
      4          6           0       -9.464216    3.052875   -0.297383
      5          6           0       -9.561974   -1.798508   -0.935859
      6          7           0       -5.055536    0.440069    0.661645
      7          6           0       -4.323085   -0.723343    0.666241
      8          6           0       -2.947400   -0.408941    1.176515
      9          6           0       -3.035553    1.088529    1.679180
     10          6           0       -4.317058    1.519067    1.125056
     11          6           0       -2.931876    1.180616    3.166407
     12          6           0       -1.914647   -0.526333    0.011855
     13          6           0       -0.491516   -0.182237    0.476196
     14          6           0        0.545819   -0.725279   -0.600171
     15          8           0        0.261101   -1.094387   -1.695295
     16          8           0        1.758067   -0.534014   -0.203683
     17          7           0       -7.207687    2.647975    0.384621
     18          6           0       -6.116063    3.354666    0.722525
     19          6           0       -6.439814    4.737047    0.756676
     20          6           0       -7.730343    4.880916    0.343555
     21          6           0       -8.179043    3.526051    0.042339
     22          6           0       -5.613397    5.892873    1.206621
     23          6           0       -8.628664    6.053328    0.165357
     24          6           0       -8.483686    7.291680    0.540572
     25          7           0       -9.161590    0.568477   -0.499073
     26          6           0       -9.915676    1.758087   -0.658291
     27          6           0      -11.188090    1.402260   -1.030860
     28          6           0      -11.216647    0.028611   -1.362441
     29          6           0       -9.904152   -0.436788   -0.966513
     30          6           0      -12.360056    2.362492   -1.342800
     31          6           0      -12.354518   -0.877976   -1.764860
     32          6           0      -12.148020   -1.227922   -3.171426
     33          7           0       -7.206009   -1.411295   -0.240142
     34          6           0       -8.270828   -2.326293   -0.629159
     35          6           0       -7.773222   -3.529158   -0.504505
     36          6           0       -6.458087   -3.572317   -0.097602
     37          6           0       -6.149446   -2.198423    0.121028
     38          6           0       -8.713247   -4.701092   -0.765468
     39          6           0       -5.260873   -4.368844    0.239266
     40          8           0       -5.122144   -5.594151    0.289924
     41          6           0       -4.170620   -3.332011    0.620707
     42          6           0       -3.682933   -3.637118    2.049749
     43          8           0       -3.963080   -3.004918    2.997895
     44          8           0       -2.600760   -4.517039    1.923725
     45          6           0       -2.192768   -5.014706    3.143956
     46          6           0        2.781957   -0.813343   -1.164411
     47          6           0        4.184772   -0.579673   -0.626814
     48          6           0        5.180489    0.256709   -0.931695
     49          6           0        5.100178    1.079524   -2.227146
     50          6           0        6.425415    0.324203   -0.120765
     51          6           0        7.640908   -0.119033   -0.881103
     52          6           0        8.962312   -0.087747   -0.023341
     53          6           0       10.142285   -0.456779   -0.844466
     54          6           0       10.074286   -1.883252   -1.314988
     55          6           0       11.437466   -0.170834    0.032060
     56          6           0       12.744878   -0.384762   -0.786945
     57          6           0       13.988938    0.055201    0.063468
     58          6           0       15.361013   -0.095439   -0.670556
     59          6           0       15.676160   -1.492786   -1.042059
     60          6           0       16.376395    0.487816    0.321962
     61          6           0       17.880063    0.526705   -0.185981
     62          6           0       18.812379    1.229530    0.740987
     63          6           0       20.280465    1.137423    0.299048
     64          6           0       20.557590    1.901699   -1.008144
     65          6           0       21.165276    1.790215    1.425115
     66          1           0       -4.185895    3.325717    1.539899
     67          1           0      -10.211077    3.691175   -0.329495
     68          1           0      -10.420885   -2.492040   -1.376582
     69          1           0       -2.460925   -0.984732    1.904393
     70          1           0       -2.222231    1.704737    1.119817
     71          1           0       -1.948939    0.759193    3.831716
     72          1           0       -2.995226    2.257015    3.440385
     73          1           0       -3.723688    0.623352    3.599904
     74          1           0       -1.883884   -1.589213   -0.428085
     75          1           0       -2.343683    0.284579   -0.667139
     76          1           0       -0.186678    0.736971    0.847066
     77          1           0       -0.298829   -1.128642    1.174558
     78          1           0       -5.835835    6.896902    0.912650
     79          1           0       -5.678924    6.086642    2.518237
     80          1           0       -4.647807    5.760124    1.102303
     81          1           0       -9.428200    5.806162   -0.449073
     82          1           0       -9.177123    7.999863    0.344956
     83          1           0       -7.524500    7.426672    1.228152
     84          1           0      -11.939510    2.952882   -2.420972
     85          1           0      -13.297957    2.030967   -1.563475
     86          1           0      -12.860058    2.972789   -0.516418
     87          1           0      -12.485791   -1.816333   -1.277756
     88          1           0      -13.370882   -0.530810   -1.691977
     89          1           0      -13.062901   -1.825495   -3.621407
     90          1           0      -12.129930   -0.260802   -3.724362
     91          1           0      -11.298325   -2.020122   -3.484188
     92          1           0       -9.265186   -4.790476   -1.856369
     93          1           0       -8.269287   -5.617147   -0.560891
     94          1           0       -9.617238   -4.764235   -0.108452
     95          1           0       -3.323716   -3.523140    0.022794
     96          1           0       -1.825875   -4.100614    3.739334
     97          1           0       -2.958996   -5.512828    3.747939
     98          1           0       -1.199347   -5.674416    2.841173
     99          1           0        2.683404   -1.846589   -1.479115
    100          1           0        2.599238   -0.258760   -2.084283
    101          1           0        4.202669   -0.957572    0.327208
    102          1           0        4.038204    1.379777   -2.481940
    103          1           0        5.436188    2.155478   -2.095687
    104          1           0        5.601184    0.463237   -3.168980
    105          1           0        6.476157    1.403749    0.221342
    106          1           0        6.065943   -0.310304    0.769029
    107          1           0        7.645039   -1.144754   -1.106884
    108          1           0        7.716628    0.649389   -1.749050
    109          1           0        9.040392    0.868866    0.488457
    110          1           0        9.011578   -0.824294    0.907365
    111          1           0       10.149891    0.232692   -1.601156
    112          1           0        9.163830   -1.969532   -1.983654
    113          1           0       11.072298   -2.040763   -1.686681
    114          1           0        9.838757   -2.428247   -0.483390
    115          1           0       11.473591    0.965952    0.280703
    116          1           0       11.674854   -0.719735    0.993321
    117          1           0       12.828426   -1.469994   -1.145193
    118          1           0       12.909540    0.246006   -1.647273
    119          1           0       13.724886    0.903415    0.511907
    120          1           0       13.911277   -0.528279    0.993957
    121          1           0       15.272878    0.520053   -1.509382
    122          1           0       15.614216   -2.313248   -0.309770
    123          1           0       15.128275   -1.785618   -1.893542
    124          1           0       16.755749   -1.356204   -1.500686
    125          1           0       16.027730    1.531217    0.522512
    126          1           0       16.398746   -0.043618    1.231808
    127          1           0       18.416112   -0.555275   -0.387199
    128          1           0       17.957263    0.969224   -1.154585
    129          1           0       18.615638    2.359559    0.976113
    130          1           0       18.684575    0.826348    1.887600
    131          1           0       20.852702    0.195973    0.343792
    132          1           0       20.436425    3.015556   -1.033878
    133          1           0       21.780501    1.750289   -1.307602
    134          1           0       20.011165    1.348064   -1.860487
    135          1           0       21.243220    1.205509    2.377671
    136          1           0       22.115589    1.790856    1.165024
    137          1           0       20.673309    2.782273    1.457558
 ---------------------------------------------------------------------

 SCF Done:  E(RCAM-B3LYP) =  -2933.48643420     A.U. after   15 cycles

 Excitation energies and oscillator strengths:

 Excited State   1:      Singlet-A      2.0924 eV  592.55 nm  f=0.1957  <S**2>=0.000
     240 -> 243        0.26606
     241 -> 242        0.64951
 This state for optimization and/or second-order correction.
 Total Energy, E(TD-HF/TD-DFT) =  -2933.40954073
 Copying the excited state density for this state as the 1-particle RhoCI density.

 The electronic state is 1-A.
 Alpha  occ. eigenvalues --  -46.80484 -19.22556 -19.21683 -19.18258 -19.15709
 Alpha  occ. eigenvalues --  -19.15599 -14.37381 -14.35513 -14.34660 -14.34389
 Alpha  occ. eigenvalues --  -10.34805 -10.33811 -10.30365 -10.27622 -10.27264
 Alpha  occ. eigenvalues --  -10.26679 -10.25809 -10.25598 -10.25263 -10.24699
 Alpha  occ. eigenvalues --  -10.24592 -10.24336 -10.24173 -10.23863 -10.23830
 Alpha  occ. eigenvalues --  -10.23820 -10.23559 -10.23461 -10.23439 -10.23200
 Alpha  occ. eigenvalues --  -10.23162 -10.22890 -10.22706 -10.22633 -10.22628
 Alpha  occ. eigenvalues --  -10.22529 -10.22486 -10.22404 -10.22350 -10.22298
 Alpha  occ. eigenvalues --  -10.22289 -10.22273 -10.22273 -10.22190 -10.22105
 Alpha  occ. eigenvalues --  -10.22008 -10.21987 -10.21978 -10.21715 -10.21647
 Alpha  occ. eigenvalues --  -10.21443 -10.21400 -10.21320 -10.21030 -10.20972
 Alpha  occ. eigenvalues --  -10.20937 -10.20707 -10.20672 -10.20620 -10.20572
 Alpha  occ. eigenvalues --  -10.20519 -10.20073 -10.19490 -10.19151 -10.18835
 Alpha  occ. eigenvalues --   -3.08846  -1.83808  -1.83302  -1.83242  -1.15682
 Alpha  occ. eigenvalues --   -1.13983  -1.06940  -1.05084  -1.04603  -1.00201
 Alpha  occ. eigenvalues --   -0.98599  -0.98119  -0.97023  -0.87554  -0.86704
 Alpha  occ. eigenvalues --   -0.85500  -0.84928  -0.84705  -0.84584  -0.84350
 Alpha  occ. eigenvalues --   -0.83730  -0.83393  -0.83141  -0.81752  -0.81219
 Alpha  occ. eigenvalues --   -0.80464  -0.79448  -0.78751  -0.78533  -0.78209
 Alpha  occ. eigenvalues --   -0.76890  -0.76429  -0.76128  -0.75519  -0.73761
 Alpha  occ. eigenvalues --   -0.73100  -0.72156  -0.71466  -0.71216  -0.71004
 Alpha  occ. eigenvalues --   -0.70775  -0.70233  -0.69741  -0.69093  -0.68630
 Alpha  occ. eigenvalues --   -0.67766  -0.65754  -0.64799  -0.63966  -0.63632
 Alpha  occ. eigenvalues --   -0.63208  -0.62411  -0.61804  -0.60978  -0.60476
 Alpha  occ. eigenvalues --   -0.59957  -0.59765  -0.59593  -0.58959  -0.58445
 Alpha  occ. eigenvalues --   -0.57851  -0.57714  -0.56789  -0.56256  -0.55627
 Alpha  occ. eigenvalues --   -0.55341  -0.54830  -0.54004  -0.53800  -0.53330
 Alpha  occ. eigenvalues --   -0.53205  -0.52229  -0.51945  -0.51593  -0.51156
 Alpha  occ. eigenvalues --   -0.50480  -0.50403  -0.50086  -0.49902  -0.49771
 Alpha  occ. eigenvalues --   -0.49732  -0.49538  -0.48880  -0.48628  -0.48588
 Alpha  occ. eigenvalues --   -0.47645  -0.47558  -0.47252  -0.47007  -0.46949
 Alpha  occ. eigenvalues --   -0.46939  -0.46401  -0.46317  -0.46200  -0.46035
 Alpha  occ. eigenvalues --   -0.45937  -0.45452  -0.45066  -0.44965  -0.44720
 Alpha  occ. eigenvalues --   -0.44672  -0.44483  -0.44363  -0.44103  -0.43851
 Alpha  occ. eigenvalues --   -0.43767  -0.43101  -0.42685  -0.42611  -0.42385
 Alpha  occ. eigenvalues --   -0.42081  -0.41977  -0.41777  -0.41669  -0.41353
 Alpha  occ. eigenvalues --   -0.41223  -0.41170  -0.40843  -0.40777  -0.40697
 Alpha  occ. eigenvalues --   -0.40573  -0.40059  -0.39888  -0.39857  -0.39760
 Alpha  occ. eigenvalues --   -0.39326  -0.39256  -0.39164  -0.38987  -0.38797
 Alpha  occ. eigenvalues --   -0.38445  -0.38174  -0.37954  -0.37827  -0.37751
 Alpha  occ. eigenvalues --   -0.37505  -0.37406  -0.36982  -0.36919  -0.36813
 Alpha  occ. eigenvalues --   -0.36718  -0.36623  -0.36263  -0.36163  -0.36061
 Alpha  occ. eigenvalues --   -0.35554  -0.35491  -0.35124  -0.35057  -0.34884
 Alpha  occ. eigenvalues --   -0.34703  -0.34560  -0.34122  -0.33956  -0.33835
 Alpha  occ. eigenvalues --   -0.33561  -0.33409  -0.33264  -0.32958  -0.32802
 Alpha  occ. eigenvalues --   -0.32669  -0.32152  -0.31595  -0.31187  -0.30326
 Alpha  occ. eigenvalues --   -0.29761  -0.29722  -0.29421  -0.29126  -0.27268
 Alpha  occ. eigenvalues --   -0.26669  -0.26206  -0.25747  -0.25258  -0.21686
 Alpha  occ. eigenvalues --   -0.21021
 Alpha virt. eigenvalues --   -0.07706  -0.04487  -0.00069   0.02298   0.03373
 Alpha virt. eigenvalues --    0.03737   0.04154   0.04980   0.05514   0.06346
 Alpha virt. eigenvalues --    0.06666   0.08512   0.08989   0.09643   0.09877

 Mulliken charges:
               1
     1  Mg   0.810078
     2  C    0.084176
     3  C   -0.171096
     4  C   -0.148115
     5  C   -0.158314
     6  N   -0.642995
     7  C    0.328194
     8  C   -0.165693
     9  C   -0.151203
    10  C    0.310773
    11  C   -0.299219
    12  C   -0.165030
    13  C   -0.252652
    14  C    0.570295
    15  O   -0.463406
    16  O   -0.431620
    17  N   -0.706228
    18  C    0.363287
    19  C    0.016605
    20  C    0.031450
    21  C    0.265003
    22  C   -0.362262
    23  C   -0.025645
    24  C   -0.239048
    25  N   -0.691412
    26  C    0.283222
    27  C    0.006482
    28  C    0.032301
    29  C    0.328682
    30  C   -0.360672
    31  C   -0.240250
    32  C   -0.302993
    33  N   -0.736309
    34  C    0.316669
    35  C   -0.028327
    36  C    0.064878
    37  C    0.282760
    38  C   -0.384238
    39  C    0.351290
    40  O   -0.472720
    41  C   -0.313201
    42  C    0.615358
    43  O   -0.417081
    44  O   -0.440439
    45  C   -0.082150
    46  C    0.006440
    47  C   -0.134622
    48  C    0.127433
    49  C   -0.366354
    50  C   -0.221612
    51  C   -0.165040
    52  C   -0.177240
    53  C   -0.043245
    54  C   -0.305574
    55  C   -0.189623
    56  C   -0.192906
    57  C   -0.187032
    58  C   -0.054781
    59  C   -0.301462
    60  C   -0.165314
    61  C   -0.181383
    62  C   -0.138857
    63  C   -0.070930
    64  C   -0.291513
    65  C   -0.302802
    66  H    0.054426
    67  H    0.069888
    68  H    0.094041
    69  H    0.105623
    70  H    0.096850
    71  H    0.086041
    72  H    0.106701
    73  H    0.142493
    74  H    0.120337
    75  H    0.101056
    76  H    0.135663
    77  H    0.113613
    78  H    0.132467
    79  H    0.063262
    80  H    0.122523
    81  H    0.081543
    82  H    0.102474
    83  H    0.084320
    84  H    0.089168
    85  H    0.121914
    86  H    0.105377
    87  H    0.115679
    88  H    0.113084
    89  H    0.075327
    90  H    0.112584
    91  H    0.096620
    92  H    0.090712
    93  H    0.138313
    94  H    0.117063
    95  H    0.162377
    96  H    0.105763
    97  H    0.132621
    98  H    0.102192
    99  H    0.129128
   100  H    0.117714
   101  H    0.081014
   102  H    0.110047
   103  H    0.104615
   104  H    0.109543
   105  H    0.097482
   106  H    0.089842
   107  H    0.113355
   108  H    0.095488
   109  H    0.084528
   110  H    0.066485
   111  H    0.092553
   112  H    0.097691
   113  H    0.105766
   114  H    0.112605
   115  H    0.078442
   116  H    0.090873
   117  H    0.084923
   118  H    0.090482
   119  H    0.092258
   120  H    0.072195
   121  H    0.091018
   122  H    0.106935
   123  H    0.106755
   124  H    0.084597
   125  H    0.086704
   126  H    0.101663
   127  H    0.074395
   128  H    0.098773
   129  H    0.074968
   130  H    0.062913
   131  H    0.095413
   132  H    0.108404
   133  H    0.061376
   134  H    0.099429
   135  H    0.088982
   136  H    0.105248
   137  H    0.090509
 Sum of Mulliken charges =  -0.00000

 Dipole moment (field-independent basis, Debye):
    X=              1.5397    Y=              5.4189    Z=              0.4315  Tot=              5.6499
 Quadrupole moment (field-independent basis, Debye-Ang):
   XX=           -336.4365   YY=           -399.8093   ZZ=           -400.1538
   XY=            -23.7699   XZ=              7.7345   YZ=             -4.5291

 Normal termination of Gaussian 16 at Wed Sep 18 13:51:44 2019.
