 Gaussian 16, Revision A.03,
 Gaussian 16:  ES64L-G16RevA.03 25-Dec-2016

 -------------------------------------
 # td=(NStates=1) CAM-B3LYP/6-31G(d,p)
 -------------------------------------

 --
 TD
 --
 Symbolic Z-matrix:
 Charge =  0 Multiplicity = 1

                         Standard orientation:
 ---------------------------------------------------------------------
 Center     Atomic      Atomic             Coordinates (Angstroms)
 Number     Number       Type             X           Y           Z
 ---------------------------------------------------------------------
      1         12           0       -7.078773    0.599273    0.118087
      2          6           0       -4.831439   -1.948602    0.444877
      3          6           0       -4.933113    2.766533    1.357907
      4          6           0       -9.503681    3.112528   -0.368690
      5          6           0       -9.540518   -1.681618   -0.870957
      6          7           0       -5.072217    0.363120    0.653284
      7          6           0       -4.279521   -0.723461    0.811928
      8          6           0       -2.905573   -0.349409    1.222218
      9          6           0       -3.064762    1.127429    1.664396
     10          6           0       -4.501285    1.503626    1.241348
     11          6           0       -2.771121    1.381675    3.128791
     12          6           0       -1.944122   -0.672324    0.128614
     13          6           0       -0.510961   -0.637479    0.529177
     14          6           0        0.508137   -0.710976   -0.548261
     15          8           0        0.146788   -0.956772   -1.721134
     16          8           0        1.728361   -0.479234   -0.178004
     17          7           0       -7.142029    2.661320    0.321074
     18          6           0       -6.113824    3.376626    0.787305
     19          6           0       -6.490755    4.811561    0.859320
     20          6           0       -7.817300    4.822113    0.439055
     21          6           0       -8.222585    3.498896    0.103125
     22          6           0       -5.520988    5.941171    1.226206
     23          6           0       -8.565669    6.007473    0.146221
     24          6           0       -8.452749    7.239951    0.689375
     25          7           0       -9.115805    0.657206   -0.428810
     26          6           0       -9.839855    1.805931   -0.677682
     27          6           0      -11.153235    1.459919   -1.156047
     28          6           0      -11.128855    0.084122   -1.368613
     29          6           0       -9.839363   -0.397977   -0.850408
     30          6           0      -12.174027    2.353495   -1.565124
     31          6           0      -12.369216   -0.726374   -1.825970
     32          6           0      -12.283102   -1.068540   -3.338447
     33          7           0       -7.216751   -1.387654   -0.184399
     34          6           0       -8.272479   -2.226262   -0.480157
     35          6           0       -7.882824   -3.626287   -0.428517
     36          6           0       -6.527249   -3.588910   -0.069849
     37          6           0       -6.213623   -2.177607   -0.004324
     38          6           0       -8.695664   -4.866950   -0.641200
     39          6           0       -5.325552   -4.395085    0.281358
     40          8           0       -5.115859   -5.576514    0.580304
     41          6           0       -4.228503   -3.345169    0.515158
     42          6           0       -3.536445   -3.616225    1.865113
     43          8           0       -3.633597   -3.136344    2.939372
     44          8           0       -2.643074   -4.731870    1.709454
     45          6           0       -1.947614   -5.198504    2.977297
     46          6           0        2.693880   -0.692895   -1.247049
     47          6           0        4.040063   -0.448393   -0.586761
     48          6           0        5.111053    0.284703   -1.087541
     49          6           0        5.069283    1.020918   -2.376735
     50          6           0        6.470142    0.210793   -0.239072
     51          6           0        7.671291   -0.281516   -1.072543
     52          6           0        9.002139   -0.120608   -0.280226
     53          6           0       10.337126   -0.470994   -1.072458
     54          6           0       10.244305   -2.040553   -1.439236
     55          6           0       11.453216   -0.218556   -0.099754
     56          6           0       12.850549   -0.400826   -0.783462
     57          6           0       13.912796   -0.077466    0.192810
     58          6           0       15.367351   -0.120523   -0.383095
     59          6           0       15.636659   -1.571045   -0.892455
     60          6           0       16.413312    0.488173    0.495528
     61          6           0       17.789820    0.592198   -0.166413
     62          6           0       18.780351    1.286159    0.850723
     63          6           0       20.231420    1.344774    0.277749
     64          6           0       20.423216    2.043868   -1.003288
     65          6           0       20.987628    1.983164    1.412163
     66          1           0       -4.333592    3.476584    1.881724
     67          1           0      -10.285501    3.904503   -0.524391
     68          1           0      -10.374041   -2.453626   -0.957628
     69          1           0       -2.886177   -1.057441    2.066021
     70          1           0       -2.162347    1.891286    1.098914
     71          1           0       -1.860293    1.018947    3.691524
     72          1           0       -2.777311    2.568808    3.397039
     73          1           0       -3.558323    0.994878    3.687505
     74          1           0       -2.145976   -1.657489   -0.398949
     75          1           0       -2.137690   -0.188206   -0.826754
     76          1           0       -0.261994    0.466343    1.047886
     77          1           0       -0.407159   -1.409714    1.093905
     78          1           0       -5.828597    6.761229    0.384386
     79          1           0       -5.616967    6.344116    2.346822
     80          1           0       -4.472078    5.744918    0.863944
     81          1           0       -9.353378    5.761815   -0.542490
     82          1           0       -9.137671    8.093770    0.380222
     83          1           0       -7.857519    7.437615    1.638121
     84          1           0      -12.060596    3.136120   -2.339742
     85          1           0      -13.188848    1.941518   -1.817167
     86          1           0      -12.409190    2.963085   -0.731071
     87          1           0      -12.366795   -1.531078   -0.994776
     88          1           0      -13.368505   -0.243011   -1.642104
     89          1           0      -13.008402   -1.849496   -3.525024
     90          1           0      -12.568643   -0.161936   -3.796759
     91          1           0      -11.389534   -1.550018   -3.738409
     92          1           0       -9.208531   -4.879193   -1.480028
     93          1           0       -8.104794   -5.699346   -0.677427
     94          1           0       -9.737277   -4.974179   -0.046200
     95          1           0       -3.484552   -3.288597   -0.333985
     96          1           0       -1.657802   -4.283341    3.489262
     97          1           0       -2.906098   -5.702300    3.647372
     98          1           0       -1.049699   -5.939506    2.840594
     99          1           0        2.697933   -1.754143   -1.694549
    100          1           0        2.463957   -0.030756   -2.102344
    101          1           0        3.997954   -1.000214    0.295841
    102          1           0        4.021931    1.019394   -2.767171
    103          1           0        5.309561    2.166310   -2.305952
    104          1           0        5.719517    0.765871   -3.141661
    105          1           0        6.646442    1.358487   -0.202330
    106          1           0        6.290419   -0.329662    0.637665
    107          1           0        7.578473   -1.099197   -1.496559
    108          1           0        7.633712    0.329489   -1.926944
    109          1           0        8.982491    0.825649    0.233028
    110          1           0        8.884714   -0.632019    0.662894
    111          1           0       10.191310    0.171478   -1.964166
    112          1           0        9.227687   -2.070908   -2.066025
    113          1           0       11.072232   -2.171099   -2.117119
    114          1           0       10.169101   -2.679417   -0.573206
    115          1           0       11.326878    0.779687    0.154157
    116          1           0       11.589817   -0.835013    0.760751
    117          1           0       12.910730   -1.478653   -1.145038
    118          1           0       12.888668    0.222321   -1.552116
    119          1           0       13.808792    1.008401    0.614921
    120          1           0       13.799871   -0.767430    1.062933
    121          1           0       15.289156    0.567853   -1.328160
    122          1           0       15.674884   -2.119805   -0.042135
    123          1           0       14.919072   -1.853674   -1.857390
    124          1           0       16.651000   -1.559560   -1.154959
    125          1           0       15.993908    1.292822    1.041823
    126          1           0       16.512618   -0.289657    1.384309
    127          1           0       18.315366   -0.267296   -0.429327
    128          1           0       17.857696    1.217830   -1.023108
    129          1           0       18.331383    2.339182    0.758993
    130          1           0       18.694465    0.833956    1.883599
    131          1           0       20.592585    0.308638    0.319743
    132          1           0       19.932543    3.006194   -1.103706
    133          1           0       21.533478    2.121330   -1.283177
    134          1           0       20.018119    1.299198   -1.846397
    135          1           0       20.934474    1.414166    2.343084
    136          1           0       22.048903    2.215053    1.112906
    137          1           0       20.728979    2.954785    1.748988
 ---------------------------------------------------------------------

 SCF Done:  E(RCAM-B3LYP) =  -2932.70031838     A.U. after   18 cycles

 Excitation energies and oscillator strengths:

 Excited State   1:      Singlet-A      1.9678 eV  630.07 nm  f=0.3398  <S**2>=0.000
     240 -> 242       -0.10179
     240 -> 243        0.20700
     241 -> 242        0.66247
 This state for optimization and/or second-order correction.
 Total Energy, E(TD-HF/TD-DFT) =  -2932.62800406
 Copying the excited state density for this state as the 1-particle RhoCI density.

 The electronic state is 1-A.
 Alpha  occ. eigenvalues --  -46.84859 -19.27804 -19.23340 -19.21876 -19.20319
 Alpha  occ. eigenvalues --  -19.19512 -14.41396 -14.39822 -14.39664 -14.39471
 Alpha  occ. eigenvalues --  -10.39287 -10.38610 -10.35556 -10.32581 -10.32455
 Alpha  occ. eigenvalues --  -10.30873 -10.30516 -10.30242 -10.29684 -10.29621
 Alpha  occ. eigenvalues --  -10.29310 -10.29201 -10.28987 -10.28827 -10.28751
 Alpha  occ. eigenvalues --  -10.28746 -10.28513 -10.28246 -10.28170 -10.27725
 Alpha  occ. eigenvalues --  -10.27554 -10.27359 -10.27175 -10.27143 -10.26922
 Alpha  occ. eigenvalues --  -10.26786 -10.26756 -10.26564 -10.26556 -10.26489
 Alpha  occ. eigenvalues --  -10.26484 -10.26251 -10.26170 -10.26098 -10.26042
 Alpha  occ. eigenvalues --  -10.25964 -10.25867 -10.25666 -10.25663 -10.25624
 Alpha  occ. eigenvalues --  -10.25544 -10.25494 -10.25423 -10.25388 -10.25376
 Alpha  occ. eigenvalues --  -10.25349 -10.25018 -10.24965 -10.24324 -10.24104
 Alpha  occ. eigenvalues --  -10.24020 -10.23721 -10.23447 -10.23412 -10.23208
 Alpha  occ. eigenvalues --   -3.13826  -1.88544  -1.88057  -1.88003  -1.19969
 Alpha  occ. eigenvalues --   -1.16586  -1.09876  -1.07310  -1.06148  -1.05561
 Alpha  occ. eigenvalues --   -1.04143  -1.03430  -1.02793  -0.92139  -0.90895
 Alpha  occ. eigenvalues --   -0.90695  -0.90230  -0.89708  -0.89542  -0.89048
 Alpha  occ. eigenvalues --   -0.88553  -0.88227  -0.87939  -0.87409  -0.86338
 Alpha  occ. eigenvalues --   -0.85367  -0.84380  -0.83714  -0.83211  -0.82236
 Alpha  occ. eigenvalues --   -0.81850  -0.80820  -0.80126  -0.79535  -0.78846
 Alpha  occ. eigenvalues --   -0.77922  -0.77160  -0.76135  -0.75946  -0.75494
 Alpha  occ. eigenvalues --   -0.75158  -0.74641  -0.74461  -0.73251  -0.72942
 Alpha  occ. eigenvalues --   -0.71140  -0.70758  -0.69575  -0.68866  -0.68439
 Alpha  occ. eigenvalues --   -0.67882  -0.67428  -0.65658  -0.65256  -0.64540
 Alpha  occ. eigenvalues --   -0.64153  -0.64028  -0.63711  -0.63044  -0.61545
 Alpha  occ. eigenvalues --   -0.61285  -0.61130  -0.59897  -0.59762  -0.59418
 Alpha  occ. eigenvalues --   -0.58887  -0.58421  -0.58175  -0.57434  -0.56761
 Alpha  occ. eigenvalues --   -0.56054  -0.55225  -0.54775  -0.54561  -0.54400
 Alpha  occ. eigenvalues --   -0.54155  -0.54082  -0.53634  -0.53549  -0.53229
 Alpha  occ. eigenvalues --   -0.52721  -0.52530  -0.52044  -0.51829  -0.51715
 Alpha  occ. eigenvalues --   -0.51029  -0.50901  -0.50691  -0.50648  -0.50569
 Alpha  occ. eigenvalues --   -0.50042  -0.49880  -0.49837  -0.49617  -0.49493
 Alpha  occ. eigenvalues --   -0.49446  -0.49072  -0.48694  -0.48465  -0.48444
 Alpha  occ. eigenvalues --   -0.48239  -0.48031  -0.47925  -0.47580  -0.47400
 Alpha  occ. eigenvalues --   -0.47350  -0.47183  -0.46739  -0.46469  -0.46203
 Alpha  occ. eigenvalues --   -0.45878  -0.45694  -0.45480  -0.45182  -0.44981
 Alpha  occ. eigenvalues --   -0.44601  -0.44525  -0.44408  -0.44218  -0.44121
 Alpha  occ. eigenvalues --   -0.43953  -0.43872  -0.43824  -0.43534  -0.43408
 Alpha  occ. eigenvalues --   -0.43180  -0.43080  -0.42846  -0.42784  -0.42661
 Alpha  occ. eigenvalues --   -0.42308  -0.41782  -0.41769  -0.41437  -0.41203
 Alpha  occ. eigenvalues --   -0.41129  -0.40959  -0.40683  -0.40617  -0.40458
 Alpha  occ. eigenvalues --   -0.40378  -0.40091  -0.39745  -0.39460  -0.39304
 Alpha  occ. eigenvalues --   -0.39299  -0.38125  -0.38044  -0.37900  -0.37716
 Alpha  occ. eigenvalues --   -0.37589  -0.37402  -0.36841  -0.36560  -0.36449
 Alpha  occ. eigenvalues --   -0.36116  -0.36075  -0.35957  -0.35552  -0.35440
 Alpha  occ. eigenvalues --   -0.35120  -0.34109  -0.33817  -0.33648  -0.33414
 Alpha  occ. eigenvalues --   -0.32379  -0.32202  -0.31752  -0.30952  -0.30194
 Alpha  occ. eigenvalues --   -0.29939  -0.28957  -0.28027  -0.27258  -0.23024
 Alpha  occ. eigenvalues --   -0.21394
 Alpha virt. eigenvalues --   -0.07396  -0.02335   0.01512   0.03742   0.05649
 Alpha virt. eigenvalues --    0.05866   0.06194   0.06508   0.06628   0.07190
 Alpha virt. eigenvalues --    0.08298   0.10930   0.11255   0.11562   0.11677

 Mulliken charges:
               1
     1  Mg   0.817663
     2  C   -0.001097
     3  C   -0.186760
     4  C   -0.169430
     5  C   -0.171276
     6  N   -0.659086
     7  C    0.292381
     8  C   -0.122106
     9  C   -0.138222
    10  C    0.365793
    11  C   -0.308506
    12  C   -0.196548
    13  C   -0.226796
    14  C    0.604913
    15  O   -0.514040
    16  O   -0.443494
    17  N   -0.698134
    18  C    0.291571
    19  C    0.012910
    20  C    0.005714
    21  C    0.299767
    22  C   -0.374053
    23  C   -0.061764
    24  C   -0.265795
    25  N   -0.702966
    26  C    0.301528
    27  C    0.057426
    28  C   -0.008942
    29  C    0.346298
    30  C   -0.407604
    31  C   -0.247003
    32  C   -0.310204
    33  N   -0.700711
    34  C    0.223988
    35  C    0.023993
    36  C   -0.012895
    37  C    0.312007
    38  C   -0.366607
    39  C    0.383710
    40  O   -0.458542
    41  C   -0.306172
    42  C    0.622404
    43  O   -0.443031
    44  O   -0.503203
    45  C   -0.070972
    46  C   -0.006314
    47  C   -0.139812
    48  C    0.107379
    49  C   -0.377132
    50  C   -0.218157
    51  C   -0.164727
    52  C   -0.190533
    53  C   -0.076645
    54  C   -0.303704
    55  C   -0.161753
    56  C   -0.179642
    57  C   -0.170265
    58  C   -0.057799
    59  C   -0.302496
    60  C   -0.169273
    61  C   -0.186358
    62  C   -0.180283
    63  C   -0.046540
    64  C   -0.306803
    65  C   -0.309475
    66  H    0.087281
    67  H    0.106458
    68  H    0.099935
    69  H    0.140811
    70  H    0.072836
    71  H    0.113957
    72  H    0.080460
    73  H    0.128829
    74  H    0.109438
    75  H    0.131828
    76  H    0.103906
    77  H    0.144615
    78  H    0.114656
    79  H    0.118343
    80  H    0.122860
    81  H    0.085450
    82  H    0.101915
    83  H    0.107725
    84  H    0.122986
    85  H    0.107277
    86  H    0.121419
    87  H    0.093488
    88  H    0.106638
    89  H    0.104518
    90  H    0.124266
    91  H    0.117993
    92  H    0.136816
    93  H    0.147587
    94  H    0.103750
    95  H    0.172574
    96  H    0.134935
    97  H    0.106270
    98  H    0.124673
    99  H    0.133218
   100  H    0.131660
   101  H    0.099507
   102  H    0.110523
   103  H    0.101216
   104  H    0.136133
   105  H    0.095726
   106  H    0.105277
   107  H    0.102925
   108  H    0.083854
   109  H    0.082294
   110  H    0.085074
   111  H    0.092473
   112  H    0.077684
   113  H    0.110021
   114  H    0.115263
   115  H    0.096723
   116  H    0.097746
   117  H    0.089858
   118  H    0.098116
   119  H    0.065763
   120  H    0.076952
   121  H    0.057237
   122  H    0.108704
   123  H    0.091218
   124  H    0.102199
   125  H    0.103016
   126  H    0.061596
   127  H    0.102844
   128  H    0.102360
   129  H    0.081587
   130  H    0.090093
   131  H    0.093636
   132  H    0.114215
   133  H    0.101102
   134  H    0.084082
   135  H    0.096309
   136  H    0.076305
   137  H    0.103222
 Sum of Mulliken charges =  -0.00000

 Dipole moment (field-independent basis, Debye):
    X=              1.0258    Y=              4.7970    Z=             -0.5496  Tot=              4.9362
 Quadrupole moment (field-independent basis, Debye-Ang):
   XX=           -316.6565   YY=           -400.2300   ZZ=           -395.2451
   XY=            -19.7260   XZ=             13.8207   YZ=              1.8306

 Normal termination of Gaussian 16 at Sat Jun 29 04:41:22 2019.
