 Gaussian 16, Revision A.03,
 Gaussian 16:  ES64L-G16RevA.03 25-Dec-2016

 ----------------------------------------------------------------------
 # td=(NStates=1) iop(3/107=0140000000,3/108=0140000000) CAM-B3LYP/6-31
 G(d,p)
 ----------------------------------------------------------------------

 --
 TD
 --
 Symbolic Z-matrix:
 Charge =  0 Multiplicity = 1

                         Standard orientation:
 ---------------------------------------------------------------------
 Center     Atomic      Atomic             Coordinates (Angstroms)
 Number     Number       Type             X           Y           Z
 ---------------------------------------------------------------------
      1         12           0       -7.120089    0.568479    0.081510
      2          6           0       -4.744553   -1.953981    0.537786
      3          6           0       -4.802190    2.828092    1.173601
      4          6           0       -9.469393    3.016907   -0.256355
      5          6           0       -9.570815   -1.749661   -0.718400
      6          7           0       -5.039580    0.406983    0.694718
      7          6           0       -4.359476   -0.672337    0.686491
      8          6           0       -2.896392   -0.350481    1.085729
      9          6           0       -2.969233    1.104316    1.609511
     10          6           0       -4.351288    1.584695    1.170587
     11          6           0       -2.908192    1.228051    3.089830
     12          6           0       -1.850920   -0.515543   -0.124737
     13          6           0       -0.414624   -0.383448    0.331819
     14          6           0        0.580209   -0.690493   -0.801601
     15          8           0        0.309056   -1.038766   -1.861495
     16          8           0        1.785413   -0.286669   -0.323635
     17          7           0       -7.156351    2.641277    0.325754
     18          6           0       -6.058100    3.413688    0.838611
     19          6           0       -6.463637    4.741288    0.856993
     20          6           0       -7.776808    4.762086    0.431309
     21          6           0       -8.204791    3.385702   -0.024807
     22          6           0       -5.549014    5.947556    0.996316
     23          6           0       -8.659550    5.967641    0.101464
     24          6           0       -8.430878    7.204043    0.669825
     25          7           0       -9.112140    0.613515   -0.451528
     26          6           0       -9.874802    1.709564   -0.644559
     27          6           0      -11.201913    1.505105   -1.047488
     28          6           0      -11.193904    0.063094   -1.262665
     29          6           0       -9.935378   -0.425366   -0.820218
     30          6           0      -12.342893    2.479538   -1.333326
     31          6           0      -12.309878   -0.854959   -1.601308
     32          6           0      -12.290007   -1.305661   -3.034027
     33          7           0       -7.197492   -1.432358   -0.061103
     34          6           0       -8.215929   -2.204114   -0.451062
     35          6           0       -7.806449   -3.672352   -0.413512
     36          6           0       -6.511644   -3.626751    0.076160
     37          6           0       -6.174011   -2.224213    0.280752
     38          6           0       -8.589305   -4.770611   -0.975099
     39          6           0       -5.321689   -4.402082    0.355944
     40          8           0       -5.167101   -5.583693    0.407976
     41          6           0       -4.122601   -3.340383    0.558610
     42          6           0       -3.455828   -3.623766    1.886431
     43          8           0       -3.751170   -3.046249    2.905011
     44          8           0       -2.614396   -4.631920    1.753416
     45          6           0       -2.155752   -5.120141    3.009011
     46          6           0        2.912379   -0.617787   -1.298937
     47          6           0        4.173329   -0.436677   -0.639281
     48          6           0        5.224292    0.407098   -1.005765
     49          6           0        5.060126    1.423909   -2.157677
     50          6           0        6.464471    0.414550   -0.252042
     51          6           0        7.610886   -0.086451   -1.087490
     52          6           0        8.880348   -0.192001   -0.242499
     53          6           0       10.197372   -0.646829   -0.925433
     54          6           0        9.983263   -2.036277   -1.536655
     55          6           0       11.468462   -0.467146   -0.042798
     56          6           0       12.836198   -0.528423   -0.737169
     57          6           0       13.964629   -0.166349    0.240328
     58          6           0       15.233465   -0.151307   -0.394524
     59          6           0       15.586752   -1.631105   -0.898210
     60          6           0       16.355477    0.355799    0.585250
     61          6           0       17.748030    0.609856   -0.099348
     62          6           0       18.758490    1.187519    0.832660
     63          6           0       20.167162    1.328757    0.340691
     64          6           0       20.270456    2.125413   -1.000236
     65          6           0       21.038866    1.857081    1.463552
     66          1           0       -4.090312    3.473757    1.665660
     67          1           0      -10.256462    3.689865   -0.574469
     68          1           0      -10.225177   -2.598656   -1.045630
     69          1           0       -2.552528   -0.851874    2.142239
     70          1           0       -2.121458    1.901679    1.081648
     71          1           0       -1.935986    1.108181    3.329841
     72          1           0       -2.903427    2.367802    3.224351
     73          1           0       -3.621856    0.533651    3.621813
     74          1           0       -1.868905   -1.469199   -0.650219
     75          1           0       -2.061544    0.230515   -1.030883
     76          1           0       -0.172843    0.430814    0.931876
     77          1           0       -0.482198   -1.244617    1.178987
     78          1           0       -5.676990    6.804431    0.481245
     79          1           0       -5.529335    6.177822    2.063992
     80          1           0       -4.348777    5.828727    0.786949
     81          1           0       -9.610691    6.005114   -0.626629
     82          1           0       -9.066665    8.256834    0.444372
     83          1           0       -7.624055    7.243347    1.395344
     84          1           0      -11.812291    3.276482   -1.906502
     85          1           0      -13.344841    1.731010   -1.961813
     86          1           0      -12.517658    2.922398   -0.412893
     87          1           0      -12.200802   -1.790929   -1.075947
     88          1           0      -13.495353   -0.434013   -1.329128
     89          1           0      -13.259454   -1.942752   -3.420632
     90          1           0      -12.198285   -0.275877   -3.774140
     91          1           0      -11.321121   -1.892169   -3.438495
     92          1           0       -8.855051   -4.437505   -2.017180
     93          1           0       -7.883644   -5.711464   -0.816241
     94          1           0       -9.711244   -4.978596   -0.559888
     95          1           0       -3.480105   -3.245129   -0.413164
     96          1           0       -1.590992   -4.489379    3.593025
     97          1           0       -3.082542   -5.423029    3.611216
     98          1           0       -1.285642   -5.952496    2.810328
     99          1           0        2.695921   -1.483638   -1.959179
    100          1           0        2.751584    0.156006   -2.300690
    101          1           0        4.297605   -0.947104    0.347703
    102          1           0        4.127105    1.282473   -2.689719
    103          1           0        5.228165    2.652211   -1.840478
    104          1           0        6.083049    1.337998   -2.976477
    105          1           0        6.408377    1.500224    0.123683
    106          1           0        6.320609   -0.113784    0.594503
    107          1           0        7.258929   -1.070793   -1.718362
    108          1           0        7.628346    0.870892   -1.821862
    109          1           0        9.047588    0.910812    0.295077
    110          1           0        8.649897   -0.939142    0.688734
    111          1           0       10.349485   -0.006140   -1.797153
    112          1           0        9.194750   -1.788480   -2.285269
    113          1           0       10.600137   -2.535157   -2.339215
    114          1           0        9.786174   -2.873344   -0.936684
    115          1           0       11.166332    0.693602    0.398026
    116          1           0       11.305712   -1.312730    0.804931
    117          1           0       12.782606   -1.495955   -0.987436
    118          1           0       13.020180   -0.018720   -1.589564
    119          1           0       13.779508    0.825137    0.552425
    120          1           0       14.176465   -0.773568    1.082951
    121          1           0       15.304098    0.478261   -1.386708
    122          1           0       15.364201   -2.348656   -0.066440
    123          1           0       14.913719   -1.877565   -1.640243
    124          1           0       16.724771   -1.852097   -1.411096
    125          1           0       15.964761    1.389832    1.057151
    126          1           0       16.518262   -0.302265    1.462004
    127          1           0       18.258022   -0.333892   -0.594294
    128          1           0       17.801832    1.310542   -0.900941
    129          1           0       18.653280    2.320633    1.093071
    130          1           0       18.684566    1.024113    1.917823
    131          1           0       20.482254    0.277189    0.355910
    132          1           0       19.822619    3.037763   -0.748272
    133          1           0       21.243261    2.341534   -1.236611
    134          1           0       19.880493    1.557920   -1.819686
    135          1           0       20.644379    1.492563    2.429352
    136          1           0       22.050398    1.955448    1.210405
    137          1           0       20.507435    2.855918    1.448200
 ---------------------------------------------------------------------

 SCF Done:  E(RCAM-B3LYP) =  -2933.32768169     A.U. after   16 cycles

 Excitation energies and oscillator strengths:

 Excited State   1:      Singlet-A      2.0103 eV  616.74 nm  f=0.2877  <S**2>=0.000
     240 -> 243       -0.23439
     241 -> 242        0.65296
 This state for optimization and/or second-order correction.
 Total Energy, E(TD-HF/TD-DFT) =  -2933.25380418
 Copying the excited state density for this state as the 1-particle RhoCI density.

 The electronic state is 1-A.
 Alpha  occ. eigenvalues --  -46.79930 -19.23060 -19.21876 -19.17784 -19.16822
 Alpha  occ. eigenvalues --  -19.16683 -14.36626 -14.35534 -14.34912 -14.34564
 Alpha  occ. eigenvalues --  -10.34375 -10.34157 -10.30908 -10.28960 -10.27671
 Alpha  occ. eigenvalues --  -10.25883 -10.25762 -10.25416 -10.25335 -10.25256
 Alpha  occ. eigenvalues --  -10.24878 -10.24627 -10.24596 -10.24594 -10.24287
 Alpha  occ. eigenvalues --  -10.24257 -10.24191 -10.24175 -10.24158 -10.24146
 Alpha  occ. eigenvalues --  -10.24108 -10.24021 -10.23993 -10.23801 -10.23795
 Alpha  occ. eigenvalues --  -10.23533 -10.23488 -10.23474 -10.23372 -10.23032
 Alpha  occ. eigenvalues --  -10.22870 -10.22654 -10.22601 -10.22459 -10.22457
 Alpha  occ. eigenvalues --  -10.22365 -10.22343 -10.22196 -10.22137 -10.22100
 Alpha  occ. eigenvalues --  -10.22041 -10.21830 -10.21589 -10.21406 -10.21209
 Alpha  occ. eigenvalues --  -10.21161 -10.21094 -10.21037 -10.20607 -10.20287
 Alpha  occ. eigenvalues --  -10.20034 -10.19636 -10.19577 -10.19349 -10.19208
 Alpha  occ. eigenvalues --   -3.08440  -1.83400  -1.82888  -1.82852  -1.14768
 Alpha  occ. eigenvalues --   -1.14286  -1.07940  -1.05938  -1.05269  -0.99841
 Alpha  occ. eigenvalues --   -0.98546  -0.98412  -0.97180  -0.87036  -0.86949
 Alpha  occ. eigenvalues --   -0.86387  -0.85134  -0.84850  -0.84223  -0.83688
 Alpha  occ. eigenvalues --   -0.83170  -0.82988  -0.82645  -0.82314  -0.81192
 Alpha  occ. eigenvalues --   -0.80167  -0.79064  -0.78743  -0.78443  -0.77037
 Alpha  occ. eigenvalues --   -0.76706  -0.76400  -0.75631  -0.74791  -0.72694
 Alpha  occ. eigenvalues --   -0.72507  -0.72469  -0.72097  -0.71653  -0.71020
 Alpha  occ. eigenvalues --   -0.70986  -0.70407  -0.69715  -0.68346  -0.67837
 Alpha  occ. eigenvalues --   -0.66841  -0.66200  -0.64346  -0.63883  -0.63114
 Alpha  occ. eigenvalues --   -0.62296  -0.61249  -0.60976  -0.60702  -0.60458
 Alpha  occ. eigenvalues --   -0.59184  -0.58786  -0.58607  -0.58417  -0.58322
 Alpha  occ. eigenvalues --   -0.57320  -0.56325  -0.56038  -0.55506  -0.55017
 Alpha  occ. eigenvalues --   -0.54560  -0.54052  -0.53777  -0.53420  -0.52799
 Alpha  occ. eigenvalues --   -0.52451  -0.51876  -0.51779  -0.51409  -0.51257
 Alpha  occ. eigenvalues --   -0.50750  -0.50574  -0.50356  -0.49813  -0.49719
 Alpha  occ. eigenvalues --   -0.49495  -0.49090  -0.48405  -0.48286  -0.47760
 Alpha  occ. eigenvalues --   -0.47395  -0.47022  -0.46977  -0.46912  -0.46569
 Alpha  occ. eigenvalues --   -0.46426  -0.46230  -0.45907  -0.45761  -0.45583
 Alpha  occ. eigenvalues --   -0.45415  -0.45252  -0.45061  -0.44896  -0.44847
 Alpha  occ. eigenvalues --   -0.44282  -0.44127  -0.43876  -0.43754  -0.43480
 Alpha  occ. eigenvalues --   -0.43107  -0.42886  -0.42809  -0.42525  -0.42407
 Alpha  occ. eigenvalues --   -0.42208  -0.41855  -0.41764  -0.41719  -0.41466
 Alpha  occ. eigenvalues --   -0.41275  -0.41099  -0.41044  -0.40942  -0.40739
 Alpha  occ. eigenvalues --   -0.40595  -0.40499  -0.40236  -0.40212  -0.40036
 Alpha  occ. eigenvalues --   -0.39933  -0.39302  -0.39099  -0.38849  -0.38830
 Alpha  occ. eigenvalues --   -0.38693  -0.38431  -0.38339  -0.38059  -0.37794
 Alpha  occ. eigenvalues --   -0.37625  -0.37565  -0.37115  -0.36975  -0.36951
 Alpha  occ. eigenvalues --   -0.36889  -0.36272  -0.36128  -0.35767  -0.35609
 Alpha  occ. eigenvalues --   -0.35510  -0.35110  -0.34962  -0.34765  -0.34346
 Alpha  occ. eigenvalues --   -0.34231  -0.34118  -0.33728  -0.33533  -0.33165
 Alpha  occ. eigenvalues --   -0.32818  -0.32751  -0.32628  -0.32215  -0.32156
 Alpha  occ. eigenvalues --   -0.32112  -0.31782  -0.31212  -0.31107  -0.30763
 Alpha  occ. eigenvalues --   -0.30049  -0.29838  -0.29288  -0.28536  -0.27542
 Alpha  occ. eigenvalues --   -0.27367  -0.26215  -0.25202  -0.24529  -0.21712
 Alpha  occ. eigenvalues --   -0.19891
 Alpha virt. eigenvalues --   -0.07222  -0.04503   0.00240   0.01810   0.02477
 Alpha virt. eigenvalues --    0.04264   0.04527   0.04841   0.05049   0.05854
 Alpha virt. eigenvalues --    0.06199   0.07040   0.08169   0.08933   0.09133

 Mulliken charges:
               1
     1  Mg   0.808824
     2  C    0.101863
     3  C   -0.171190
     4  C   -0.109623
     5  C   -0.166351
     6  N   -0.660325
     7  C    0.346289
     8  C   -0.170576
     9  C   -0.154527
    10  C    0.334669
    11  C   -0.295940
    12  C   -0.173751
    13  C   -0.269101
    14  C    0.629626
    15  O   -0.424613
    16  O   -0.481447
    17  N   -0.708185
    18  C    0.302934
    19  C    0.043938
    20  C   -0.049862
    21  C    0.317788
    22  C   -0.378379
    23  C   -0.072617
    24  C   -0.245690
    25  N   -0.684767
    26  C    0.273074
    27  C    0.019489
    28  C    0.022303
    29  C    0.323789
    30  C   -0.349602
    31  C   -0.238252
    32  C   -0.280074
    33  N   -0.696726
    34  C    0.250679
    35  C    0.036879
    36  C    0.038636
    37  C    0.248602
    38  C   -0.396934
    39  C    0.359354
    40  O   -0.439911
    41  C   -0.335325
    42  C    0.636586
    43  O   -0.475005
    44  O   -0.414028
    45  C   -0.095191
    46  C   -0.014028
    47  C   -0.122846
    48  C    0.124935
    49  C   -0.328774
    50  C   -0.209306
    51  C   -0.155919
    52  C   -0.145487
    53  C   -0.061765
    54  C   -0.330746
    55  C   -0.155724
    56  C   -0.169803
    57  C   -0.143395
    58  C   -0.067484
    59  C   -0.307625
    60  C   -0.171696
    61  C   -0.164444
    62  C   -0.172697
    63  C   -0.071963
    64  C   -0.312792
    65  C   -0.310049
    66  H    0.075448
    67  H    0.065632
    68  H    0.082946
    69  H    0.101232
    70  H    0.071161
    71  H    0.118101
    72  H    0.093810
    73  H    0.136455
    74  H    0.118273
    75  H    0.094614
    76  H    0.132666
    77  H    0.104697
    78  H    0.142117
    79  H    0.125430
    80  H    0.085179
    81  H    0.087442
    82  H    0.089004
    83  H    0.101166
    84  H    0.129337
    85  H    0.091199
    86  H    0.146847
    87  H    0.117517
    88  H    0.073115
    89  H    0.086153
    90  H    0.068481
    91  H    0.096132
    92  H    0.136523
    93  H    0.139238
    94  H    0.112104
    95  H    0.154637
    96  H    0.139094
    97  H    0.132604
    98  H    0.100732
    99  H    0.151909
   100  H    0.077398
   101  H    0.091647
   102  H    0.119854
   103  H    0.091095
   104  H    0.075660
   105  H    0.099636
   106  H    0.103410
   107  H    0.098505
   108  H    0.083294
   109  H    0.073706
   110  H    0.070742
   111  H    0.088898
   112  H    0.101025
   113  H    0.092402
   114  H    0.110730
   115  H    0.040458
   116  H    0.073045
   117  H    0.116665
   118  H    0.101023
   119  H    0.098802
   120  H    0.094610
   121  H    0.065077
   122  H    0.091972
   123  H    0.114438
   124  H    0.070464
   125  H    0.069704
   126  H    0.096248
   127  H    0.079036
   128  H    0.109160
   129  H    0.047332
   130  H    0.083574
   131  H    0.079958
   132  H    0.109008
   133  H    0.108739
   134  H    0.112772
   135  H    0.106734
   136  H    0.108358
   137  H    0.078106
 Sum of Mulliken charges =  -0.00000

 Dipole moment (field-independent basis, Debye):
    X=              2.3643    Y=              2.8790    Z=             -0.5541  Tot=              3.7664
 Quadrupole moment (field-independent basis, Debye-Ang):
   XX=           -370.0075   YY=           -396.4618   ZZ=           -398.5880
   XY=            -14.1443   XZ=              4.3554   YZ=             -0.7228

 Normal termination of Gaussian 16 at Wed Sep  4 00:09:36 2019.
