 Gaussian 09, Revision D.01,
 Gaussian 09:  ES64L-G09RevD.01 24-Apr-2013

 -------------------------------------
 # td=(NStates=1) CAM-B3LYP/6-31G(d,p)
 -------------------------------------

 --
 TD
 --
 Symbolic Z-matrix:
 Charge =  0 Multiplicity = 1

                         Standard orientation:
 ---------------------------------------------------------------------
 Center     Atomic      Atomic             Coordinates (Angstroms)
 Number     Number       Type             X           Y           Z
 ---------------------------------------------------------------------
      1         12           0       -7.027106    0.578254   -0.079039
      2          6           0       -4.825417   -1.925620    0.715493
      3          6           0       -4.924795    2.820258    1.198697
      4          6           0       -9.376733    3.035129   -0.370163
      5          6           0       -9.494559   -1.749109   -0.920454
      6          7           0       -5.122869    0.435050    0.726728
      7          6           0       -4.319762   -0.669577    0.744815
      8          6           0       -2.956164   -0.366302    1.375619
      9          6           0       -2.997242    1.096181    1.814000
     10          6           0       -4.412493    1.510606    1.080122
     11          6           0       -3.168460    1.353644    3.300260
     12          6           0       -1.936988   -0.565767    0.177697
     13          6           0       -0.530000   -0.374560    0.552895
     14          6           0        0.556070   -0.722268   -0.491086
     15          8           0        0.300468   -1.109234   -1.618324
     16          8           0        1.793375   -0.549929   -0.116657
     17          7           0       -7.135714    2.640915    0.134335
     18          6           0       -6.126519    3.410013    0.789418
     19          6           0       -6.442528    4.782579    0.744074
     20          6           0       -7.757428    4.791657    0.402729
     21          6           0       -8.224658    3.478003    0.047112
     22          6           0       -5.569684    5.894695    1.195417
     23          6           0       -8.628037    5.965075    0.242487
     24          6           0       -8.503705    7.089744    0.960665
     25          7           0       -9.047409    0.575933   -0.671989
     26          6           0       -9.849052    1.728352   -0.675651
     27          6           0      -11.197739    1.329842   -1.211152
     28          6           0      -11.179439    0.029224   -1.452677
     29          6           0       -9.855794   -0.463606   -0.975769
     30          6           0      -12.162081    2.423322   -1.495791
     31          6           0      -12.359892   -0.729873   -1.939292
     32          6           0      -12.216577   -0.722992   -3.490292
     33          7           0       -7.273398   -1.454615   -0.106576
     34          6           0       -8.266357   -2.264718   -0.501521
     35          6           0       -7.812181   -3.566645   -0.421427
     36          6           0       -6.524049   -3.525048    0.018298
     37          6           0       -6.103548   -2.130559    0.242286
     38          6           0       -8.669565   -4.784560   -0.796166
     39          6           0       -5.271637   -4.398709    0.311349
     40          8           0       -5.218647   -5.618333    0.390347
     41          6           0       -4.106457   -3.369212    0.637669
     42          6           0       -3.490926   -3.679370    1.901208
     43          8           0       -3.585595   -3.026042    2.932653
     44          8           0       -2.687266   -4.759217    1.745705
     45          6           0       -2.018348   -5.183074    2.876825
     46          6           0        2.762132   -0.855048   -1.114945
     47          6           0        4.058430   -0.634634   -0.487611
     48          6           0        5.130491    0.164710   -0.999551
     49          6           0        4.975848    1.028203   -2.269658
     50          6           0        6.420142    0.460377   -0.290240
     51          6           0        7.572990   -0.113115   -1.009381
     52          6           0        8.908749    0.059645   -0.176884
     53          6           0       10.136265   -0.503072   -1.037134
     54          6           0       10.062119   -2.011787   -1.306939
     55          6           0       11.406055   -0.148154   -0.136989
     56          6           0       12.783691   -0.435040   -0.762338
     57          6           0       13.954638   -0.103114    0.212753
     58          6           0       15.358832   -0.230570   -0.383271
     59          6           0       15.748588   -1.705038   -0.773504
     60          6           0       16.431918    0.378413    0.451988
     61          6           0       17.799770    0.694734   -0.262693
     62          6           0       18.864707    1.247824    0.720116
     63          6           0       20.303942    1.406362    0.091133
     64          6           0       20.268189    2.326342   -1.160439
     65          6           0       21.115488    1.871699    1.316167
     66          1           0       -4.123744    3.664419    1.553528
     67          1           0      -10.290290    3.999899   -0.509248
     68          1           0      -10.272444   -2.652132   -1.324478
     69          1           0       -2.629534   -1.016036    2.057051
     70          1           0       -2.258188    1.604743    1.158767
     71          1           0       -2.112233    1.319263    3.916257
     72          1           0       -3.669161    2.361237    3.462084
     73          1           0       -3.799349    0.843426    3.757994
     74          1           0       -2.038546   -1.709601    0.000208
     75          1           0       -2.213502    0.188854   -0.548504
     76          1           0       -0.286284    0.627457    0.857629
     77          1           0       -0.192205   -0.964579    1.376030
     78          1           0       -5.773830    6.794969    0.755780
     79          1           0       -5.619951    6.389715    2.214181
     80          1           0       -4.422857    5.473188    1.128673
     81          1           0       -9.678417    5.743999   -0.300354
     82          1           0       -9.150829    7.937947    0.961390
     83          1           0       -7.666671    7.318645    1.720580
     84          1           0      -11.593409    2.898608   -2.280365
     85          1           0      -13.194735    1.947988   -1.837436
     86          1           0      -12.382832    3.076846   -0.675735
     87          1           0      -12.308967   -1.690112   -1.389727
     88          1           0      -13.127352   -0.057375   -1.898710
     89          1           0      -13.025406   -1.250481   -3.839090
     90          1           0      -11.968707    0.230267   -3.841905
     91          1           0      -11.306897   -1.573917   -3.830025
     92          1           0       -8.976881   -4.391319   -1.790087
     93          1           0       -8.057159   -5.614348   -0.613723
     94          1           0       -9.469209   -4.983481   -0.159249
     95          1           0       -3.189014   -3.328021    0.108326
     96          1           0       -1.495953   -4.429511    3.301442
     97          1           0       -2.814633   -5.710372    3.567619
     98          1           0       -1.246286   -5.843339    2.620325
     99          1           0        2.596145   -1.957807   -1.383252
    100          1           0        2.435857   -0.204204   -1.981840
    101          1           0        4.334968   -1.356963    0.418445
    102          1           0        3.974948    0.949649   -2.804151
    103          1           0        5.228659    2.125245   -1.948082
    104          1           0        5.575454    0.425238   -3.141778
    105          1           0        6.558909    1.406698   -0.205270
    106          1           0        6.426326    0.007190    0.711609
    107          1           0        7.242176   -1.239294   -1.351603
    108          1           0        7.609469    0.233108   -2.011709
    109          1           0        9.237668    1.077712    0.106093
    110          1           0        8.806583   -0.459694    0.743522
    111          1           0       10.286520   -0.112917   -2.036665
    112          1           0        9.310420   -2.488119   -1.960988
    113          1           0       11.059133   -2.410947   -1.804237
    114          1           0       10.200323   -2.462016   -0.271256
    115          1           0       11.198109    0.979013    0.137556
    116          1           0       11.299344   -0.535747    0.889010
    117          1           0       12.860658   -1.419227   -0.902663
    118          1           0       13.062648   -0.004559   -1.688244
    119          1           0       13.740565    0.989466    0.525699
    120          1           0       13.656077   -0.565025    1.156914
    121          1           0       15.090447    0.392333   -1.311837
    122          1           0       15.811148   -2.244375    0.281022
    123          1           0       14.954287   -2.408666   -1.294580
    124          1           0       16.591818   -1.850137   -1.399149
    125          1           0       16.175116    1.485615    0.509466
    126          1           0       16.362564    0.008209    1.549355
    127          1           0       18.005374   -0.303929   -0.628634
    128          1           0       17.545889    1.401718   -1.102294
    129          1           0       18.493513    2.339466    1.194255
    130          1           0       18.636099    0.608461    1.595785
    131          1           0       20.545852    0.349604   -0.360333
    132          1           0       19.650566    3.308278   -0.978178
    133          1           0       21.309751    2.612563   -1.506465
    134          1           0       19.828252    1.568149   -1.896961
    135          1           0       21.057750    1.133537    2.176288
    136          1           0       22.156677    1.943282    0.968169
    137          1           0       20.960269    2.981328    1.779299
 ---------------------------------------------------------------------

 SCF Done:  E(RCAM-B3LYP) =  -2932.57846638     A.U. after   18 cycles

 Excitation energies and oscillator strengths:

 Excited State   1:      Singlet-A      2.0480 eV  605.40 nm  f=0.2808  <S**2>=0.000
     240 -> 243        0.23594
     241 -> 242        0.65572
 This state for optimization and/or second-order correction.
 Total Energy, E(TD-HF/TD-KS) =  -2932.50320490
 Copying the excited state density for this state as the 1-particle RhoCI density.

 The electronic state is 1-A.
 Alpha  occ. eigenvalues --  -46.84380 -19.26355 -19.26122 -19.21056 -19.20965
 Alpha  occ. eigenvalues --  -19.19325 -14.42543 -14.39585 -14.38879 -14.38387
 Alpha  occ. eigenvalues --  -10.39074 -10.38251 -10.36414 -10.32120 -10.31721
 Alpha  occ. eigenvalues --  -10.30175 -10.30130 -10.30075 -10.29939 -10.29103
 Alpha  occ. eigenvalues --  -10.28730 -10.28668 -10.28602 -10.28566 -10.28413
 Alpha  occ. eigenvalues --  -10.28403 -10.28284 -10.28281 -10.28046 -10.27734
 Alpha  occ. eigenvalues --  -10.27537 -10.27402 -10.27369 -10.27357 -10.27316
 Alpha  occ. eigenvalues --  -10.27183 -10.27166 -10.27126 -10.27085 -10.26876
 Alpha  occ. eigenvalues --  -10.26801 -10.26594 -10.26585 -10.26568 -10.26486
 Alpha  occ. eigenvalues --  -10.26306 -10.26179 -10.26108 -10.26054 -10.26022
 Alpha  occ. eigenvalues --  -10.25936 -10.25917 -10.25879 -10.25841 -10.25799
 Alpha  occ. eigenvalues --  -10.25724 -10.25470 -10.25469 -10.25417 -10.25314
 Alpha  occ. eigenvalues --  -10.25032 -10.24922 -10.24436 -10.24304 -10.23657
 Alpha  occ. eigenvalues --   -3.13332  -1.88045  -1.87592  -1.87473  -1.19950
 Alpha  occ. eigenvalues --   -1.19142  -1.10830  -1.09521  -1.08120  -1.04903
 Alpha  occ. eigenvalues --   -1.03416  -1.03064  -1.01893  -0.92571  -0.91243
 Alpha  occ. eigenvalues --   -0.90844  -0.90143  -0.90065  -0.89561  -0.88876
 Alpha  occ. eigenvalues --   -0.88520  -0.87499  -0.87162  -0.86854  -0.86388
 Alpha  occ. eigenvalues --   -0.85519  -0.84836  -0.84035  -0.83414  -0.82950
 Alpha  occ. eigenvalues --   -0.81726  -0.81007  -0.80390  -0.79584  -0.78427
 Alpha  occ. eigenvalues --   -0.78179  -0.77851  -0.76887  -0.75507  -0.75424
 Alpha  occ. eigenvalues --   -0.75269  -0.74411  -0.73538  -0.73012  -0.72648
 Alpha  occ. eigenvalues --   -0.71869  -0.70347  -0.69896  -0.69069  -0.68270
 Alpha  occ. eigenvalues --   -0.67289  -0.66833  -0.66155  -0.65052  -0.65000
 Alpha  occ. eigenvalues --   -0.63918  -0.63766  -0.62642  -0.62023  -0.61694
 Alpha  occ. eigenvalues --   -0.61289  -0.60926  -0.60461  -0.60349  -0.59497
 Alpha  occ. eigenvalues --   -0.58546  -0.58185  -0.57700  -0.57396  -0.57337
 Alpha  occ. eigenvalues --   -0.56020  -0.55844  -0.55760  -0.55131  -0.54711
 Alpha  occ. eigenvalues --   -0.54538  -0.54393  -0.53739  -0.53562  -0.53203
 Alpha  occ. eigenvalues --   -0.53160  -0.52738  -0.52509  -0.52243  -0.52078
 Alpha  occ. eigenvalues --   -0.51797  -0.51322  -0.51206  -0.51008  -0.50614
 Alpha  occ. eigenvalues --   -0.50414  -0.49957  -0.49912  -0.49785  -0.49602
 Alpha  occ. eigenvalues --   -0.49460  -0.49351  -0.49065  -0.48857  -0.48406
 Alpha  occ. eigenvalues --   -0.48265  -0.47907  -0.47603  -0.47367  -0.46941
 Alpha  occ. eigenvalues --   -0.46871  -0.46538  -0.46459  -0.46368  -0.46227
 Alpha  occ. eigenvalues --   -0.46179  -0.45807  -0.45472  -0.45239  -0.44989
 Alpha  occ. eigenvalues --   -0.44570  -0.44322  -0.44167  -0.43917  -0.43780
 Alpha  occ. eigenvalues --   -0.43655  -0.43618  -0.43388  -0.43364  -0.43190
 Alpha  occ. eigenvalues --   -0.42758  -0.42551  -0.42437  -0.42151  -0.42102
 Alpha  occ. eigenvalues --   -0.41995  -0.41615  -0.41337  -0.41162  -0.40876
 Alpha  occ. eigenvalues --   -0.40641  -0.40506  -0.40239  -0.40178  -0.39708
 Alpha  occ. eigenvalues --   -0.39518  -0.39443  -0.39197  -0.38965  -0.38887
 Alpha  occ. eigenvalues --   -0.38830  -0.38274  -0.37955  -0.37815  -0.37602
 Alpha  occ. eigenvalues --   -0.37519  -0.37237  -0.37175  -0.36905  -0.36676
 Alpha  occ. eigenvalues --   -0.36350  -0.36181  -0.36047  -0.35994  -0.35790
 Alpha  occ. eigenvalues --   -0.35401  -0.35038  -0.34574  -0.33820  -0.33050
 Alpha  occ. eigenvalues --   -0.32843  -0.32580  -0.32433  -0.31377  -0.29697
 Alpha  occ. eigenvalues --   -0.28836  -0.28468  -0.28140  -0.27545  -0.23518
 Alpha  occ. eigenvalues --   -0.20984
 Alpha virt. eigenvalues --   -0.06421  -0.02693   0.01503   0.03858   0.04618
 Alpha virt. eigenvalues --    0.05236   0.05960   0.06672   0.07400   0.08135
 Alpha virt. eigenvalues --    0.08473   0.09373   0.10450   0.10998   0.11431

 Mulliken charges:
               1
     1  Mg   0.814195
     2  C    0.102704
     3  C   -0.228298
     4  C   -0.223108
     5  C   -0.190915
     6  N   -0.597795
     7  C    0.278341
     8  C   -0.144633
     9  C   -0.108854
    10  C    0.267300
    11  C   -0.285729
    12  C   -0.168459
    13  C   -0.270262
    14  C    0.578638
    15  O   -0.494545
    16  O   -0.443256
    17  N   -0.724264
    18  C    0.284459
    19  C    0.091924
    20  C   -0.012660
    21  C    0.397657
    22  C   -0.365552
    23  C   -0.077488
    24  C   -0.246058
    25  N   -0.673323
    26  C    0.283054
    27  C    0.019033
    28  C    0.019657
    29  C    0.325795
    30  C   -0.366573
    31  C   -0.222276
    32  C   -0.296866
    33  N   -0.765990
    34  C    0.329139
    35  C   -0.050566
    36  C   -0.046514
    37  C    0.275243
    38  C   -0.346025
    39  C    0.405077
    40  O   -0.445865
    41  C   -0.329867
    42  C    0.634042
    43  O   -0.476128
    44  O   -0.445196
    45  C   -0.073713
    46  C    0.014478
    47  C   -0.133977
    48  C    0.080473
    49  C   -0.348637
    50  C   -0.187514
    51  C   -0.187632
    52  C   -0.179619
    53  C   -0.058794
    54  C   -0.304923
    55  C   -0.193335
    56  C   -0.173846
    57  C   -0.195403
    58  C   -0.040526
    59  C   -0.314850
    60  C   -0.193439
    61  C   -0.194787
    62  C   -0.148207
    63  C   -0.053887
    64  C   -0.295895
    65  C   -0.302883
    66  H    0.070342
    67  H    0.057941
    68  H    0.086154
    69  H    0.114991
    70  H    0.106876
    71  H    0.085242
    72  H    0.104587
    73  H    0.143125
    74  H    0.098377
    75  H    0.117839
    76  H    0.131362
    77  H    0.129584
    78  H    0.134645
    79  H    0.119957
    80  H    0.091518
    81  H    0.085268
    82  H    0.110670
    83  H    0.093149
    84  H    0.139922
    85  H    0.088623
    86  H    0.132310
    87  H    0.112675
    88  H    0.113471
    89  H    0.118073
    90  H    0.126962
    91  H    0.058252
    92  H    0.119518
    93  H    0.142654
    94  H    0.128011
    95  H    0.175826
    96  H    0.125476
    97  H    0.115072
    98  H    0.121048
    99  H    0.123557
   100  H    0.126591
   101  H    0.085531
   102  H    0.110352
   103  H    0.116159
   104  H    0.109403
   105  H    0.111575
   106  H    0.097634
   107  H    0.072926
   108  H    0.105235
   109  H    0.096537
   110  H    0.105473
   111  H    0.094462
   112  H    0.108192
   113  H    0.079539
   114  H    0.091170
   115  H    0.068155
   116  H    0.093576
   117  H    0.115048
   118  H    0.092258
   119  H    0.076770
   120  H    0.081633
   121  H    0.077310
   122  H    0.087216
   123  H    0.084411
   124  H    0.117061
   125  H    0.090031
   126  H    0.086059
   127  H    0.094408
   128  H    0.097450
   129  H    0.055831
   130  H    0.099350
   131  H    0.085736
   132  H    0.097998
   133  H    0.100799
   134  H    0.106507
   135  H    0.105073
   136  H    0.092620
   137  H    0.088570
 Sum of Mulliken charges =   0.00000

 Dipole moment (field-independent basis, Debye):
    X=              2.1269    Y=              5.1608    Z=              0.2801  Tot=              5.5889
 Quadrupole moment (field-independent basis, Debye-Ang):
   XX=           -338.0536   YY=           -393.4031   ZZ=           -398.5671
   XY=            -30.6197   XZ=              7.4408   YZ=              1.5023

 Normal termination of Gaussian 09 at Sat Jul  6 19:21:09 2019.
