 Gaussian 09, Revision D.01,
 Gaussian 09:  ES64L-G09RevD.01 24-Apr-2013

 -------------------------------------
 # td=(NStates=1) CAM-B3LYP/6-31G(d,p)
 -------------------------------------

 --
 TD
 --
 Symbolic Z-matrix:
 Charge =  0 Multiplicity = 1

                         Standard orientation:
 ---------------------------------------------------------------------
 Center     Atomic      Atomic             Coordinates (Angstroms)
 Number     Number       Type             X           Y           Z
 ---------------------------------------------------------------------
      1         12           0       -7.199073    0.600586    0.130054
      2          6           0       -4.898179   -2.020419    0.532480
      3          6           0       -4.790379    2.738983    1.164046
      4          6           0       -9.338655    3.240604   -0.418898
      5          6           0       -9.634241   -1.619266   -0.916219
      6          7           0       -5.078297    0.375342    0.748486
      7          6           0       -4.390062   -0.756970    0.756479
      8          6           0       -2.914817   -0.457055    1.199112
      9          6           0       -3.110223    1.022402    1.571580
     10          6           0       -4.347345    1.482554    1.136792
     11          6           0       -2.992468    1.261041    3.133861
     12          6           0       -1.942286   -0.744527   -0.045929
     13          6           0       -0.503625   -0.629279    0.506029
     14          6           0        0.510440   -0.897457   -0.629509
     15          8           0        0.275205   -1.206308   -1.716860
     16          8           0        1.779438   -0.596887   -0.175124
     17          7           0       -7.130160    2.594570    0.483433
     18          6           0       -6.045103    3.301291    0.874206
     19          6           0       -6.345193    4.824667    0.885368
     20          6           0       -7.653716    4.943800    0.486279
     21          6           0       -8.076787    3.453026    0.215226
     22          6           0       -5.301725    5.806258    1.282435
     23          6           0       -8.417076    6.131058    0.161762
     24          6           0       -8.257731    7.274012    0.906362
     25          7           0       -9.078071    0.761214   -0.497205
     26          6           0       -9.885905    1.945726   -0.643708
     27          6           0      -11.111219    1.604301   -1.269283
     28          6           0      -11.160937    0.246652   -1.400657
     29          6           0       -9.943986   -0.245685   -0.952629
     30          6           0      -12.224787    2.602639   -1.597088
     31          6           0      -12.260355   -0.653928   -1.896138
     32          6           0      -12.251199   -0.911422   -3.327398
     33          7           0       -7.261757   -1.416085   -0.118175
     34          6           0       -8.331048   -2.258430   -0.572228
     35          6           0       -7.843566   -3.633756   -0.563306
     36          6           0       -6.526883   -3.581165   -0.139745
     37          6           0       -6.171902   -2.290220    0.184118
     38          6           0       -8.691378   -4.889539   -0.844450
     39          6           0       -5.333056   -4.471090    0.136713
     40          8           0       -5.184622   -5.647051    0.312163
     41          6           0       -4.239933   -3.413988    0.648617
     42          6           0       -3.548833   -3.794855    1.944900
     43          8           0       -3.789702   -3.161758    3.003097
     44          8           0       -2.843677   -4.909739    1.767056
     45          6           0       -2.228067   -5.340557    2.939325
     46          6           0        2.776388   -0.728169   -1.172893
     47          6           0        4.069413   -0.549842   -0.423668
     48          6           0        5.044057    0.405013   -0.815832
     49          6           0        4.898593    1.041607   -2.205453
     50          6           0        6.363335    0.490324   -0.138406
     51          6           0        7.633204    0.072720   -0.931951
     52          6           0        8.926567    0.056073   -0.159467
     53          6           0       10.180735   -0.425928   -0.878248
     54          6           0       10.068387   -1.925326   -1.184285
     55          6           0       11.424227   -0.098664   -0.003833
     56          6           0       12.721548   -0.264069   -0.715268
     57          6           0       13.993912   -0.119000    0.255436
     58          6           0       15.262564   -0.183396   -0.526318
     59          6           0       15.567482   -1.575176   -1.163367
     60          6           0       16.436236    0.315922    0.412701
     61          6           0       17.893116    0.390941   -0.157063
     62          6           0       18.860253    1.193435    0.665117
     63          6           0       20.336910    1.232519    0.198279
     64          6           0       20.317118    2.065178   -1.111178
     65          6           0       21.170406    2.025768    1.308961
     66          1           0       -3.891666    3.353032    1.467600
     67          1           0       -9.902429    4.291593   -0.489893
     68          1           0      -10.351297   -2.284787   -1.009937
     69          1           0       -2.552631   -0.841141    1.979947
     70          1           0       -2.245217    1.498361    0.893103
     71          1           0       -1.965456    1.296571    3.604451
     72          1           0       -3.365759    2.223393    3.331317
     73          1           0       -3.679859    0.506751    3.507933
     74          1           0       -2.174127   -1.797544   -0.302243
     75          1           0       -2.029341    0.045268   -0.932957
     76          1           0       -0.378952    0.463747    1.138272
     77          1           0       -0.246085   -1.317181    1.290211
     78          1           0       -5.548072    6.738331    0.685675
     79          1           0       -5.354611    6.334052    2.315387
     80          1           0       -4.420853    5.556833    0.751732
     81          1           0       -9.067115    6.239676   -0.739537
     82          1           0       -8.723814    8.243646    0.843511
     83          1           0       -7.677005    7.295624    1.768112
     84          1           0      -11.754592    3.195360   -2.401393
     85          1           0      -13.226806    2.129234   -1.991603
     86          1           0      -12.379439    3.372517   -0.720139
     87          1           0      -12.325339   -1.485393   -1.152214
     88          1           0      -13.127639    0.017070   -1.864038
     89          1           0      -12.952908   -1.432290   -3.793126
     90          1           0      -12.230536   -0.089299   -3.962026
     91          1           0      -11.128796   -1.324789   -3.762884
     92          1           0       -8.958822   -4.831217   -1.895913
     93          1           0       -8.298331   -5.827615   -0.690801
     94          1           0       -9.474689   -4.745682   -0.248749
     95          1           0       -3.584037   -3.590499   -0.229063
     96          1           0       -1.676477   -4.559176    3.304179
     97          1           0       -2.934175   -5.638464    3.708645
     98          1           0       -1.724370   -6.278405    2.762109
     99          1           0        2.824973   -1.729485   -1.519734
    100          1           0        2.574549   -0.110757   -1.937301
    101          1           0        3.981385   -1.228933    0.254068
    102          1           0        3.802963    1.221691   -2.433531
    103          1           0        5.287103    2.165414   -2.050411
    104          1           0        5.641554    0.461169   -2.763834
    105          1           0        6.545873    1.513041    0.327783
    106          1           0        6.343887   -0.242613    0.818592
    107          1           0        7.412893   -0.879198   -1.454817
    108          1           0        7.696637    0.770821   -1.556596
    109          1           0        9.104775    0.914336    0.304719
    110          1           0        8.838356   -0.601788    0.666479
    111          1           0       10.331156    0.149106   -1.796410
    112          1           0        9.474386   -2.145588   -2.028646
    113          1           0       11.049980   -2.068741   -1.644314
    114          1           0       10.046621   -2.507766   -0.238763
    115          1           0       11.520851    0.915725    0.299728
    116          1           0       11.467221   -0.818845    0.734260
    117          1           0       12.680092   -1.083878   -1.428086
    118          1           0       12.682931    0.482486   -1.564973
    119          1           0       13.644554    0.730364    0.805316
    120          1           0       13.963684   -0.855452    0.938906
    121          1           0       15.255681    0.491859   -1.292554
    122          1           0       15.666306   -2.310653   -0.507463
    123          1           0       14.924977   -1.736864   -2.047323
    124          1           0       16.466616   -1.530637   -1.611611
    125          1           0       15.999249    1.227176    0.800299
    126          1           0       16.589971   -0.182315    1.229967
    127          1           0       18.360036   -0.774053   -0.242537
    128          1           0       17.897944    0.991119   -1.080359
    129          1           0       18.435503    2.353747    0.849842
    130          1           0       18.907747    0.758828    1.609867
    131          1           0       20.560342    0.263944    0.019586
    132          1           0       20.175017    3.044844   -0.743486
    133          1           0       21.435552    1.981604   -1.613483
    134          1           0       19.655552    1.641215   -1.708115
    135          1           0       20.966897    1.600244    2.321835
    136          1           0       22.206832    1.930891    1.050961
    137          1           0       20.810985    3.065964    1.456792
 ---------------------------------------------------------------------

 SCF Done:  E(RCAM-B3LYP) =  -2932.60473733     A.U. after   16 cycles

 Excitation energies and oscillator strengths:

 Excited State   1:      Singlet-A      2.0044 eV  618.57 nm  f=0.2277  <S**2>=0.000
     240 -> 243        0.26499
     241 -> 242        0.64526
 This state for optimization and/or second-order correction.
 Total Energy, E(TD-HF/TD-KS) =  -2932.53107849
 Copying the excited state density for this state as the 1-particle RhoCI density.

 The electronic state is 1-A.
 Alpha  occ. eigenvalues --  -46.83621 -19.27502 -19.24721 -19.21834 -19.20995
 Alpha  occ. eigenvalues --  -19.20663 -14.41000 -14.40705 -14.38800 -14.38286
 Alpha  occ. eigenvalues --  -10.39620 -10.38728 -10.35673 -10.31124 -10.30131
 Alpha  occ. eigenvalues --  -10.30055 -10.30008 -10.29588 -10.29331 -10.29179
 Alpha  occ. eigenvalues --  -10.28949 -10.28684 -10.28658 -10.28103 -10.28080
 Alpha  occ. eigenvalues --  -10.28078 -10.27977 -10.27949 -10.27943 -10.27934
 Alpha  occ. eigenvalues --  -10.27896 -10.27608 -10.27389 -10.27244 -10.27084
 Alpha  occ. eigenvalues --  -10.27017 -10.26805 -10.26755 -10.26530 -10.26427
 Alpha  occ. eigenvalues --  -10.26424 -10.26018 -10.25936 -10.25911 -10.25755
 Alpha  occ. eigenvalues --  -10.25670 -10.25568 -10.25206 -10.25182 -10.25151
 Alpha  occ. eigenvalues --  -10.24934 -10.24908 -10.24879 -10.24746 -10.24583
 Alpha  occ. eigenvalues --  -10.24366 -10.24172 -10.24111 -10.24099 -10.23817
 Alpha  occ. eigenvalues --  -10.23769 -10.23479 -10.23445 -10.22810 -10.22419
 Alpha  occ. eigenvalues --   -3.12711  -1.87409  -1.86931  -1.86912  -1.19493
 Alpha  occ. eigenvalues --   -1.19308  -1.12278  -1.11011  -1.07994  -1.05269
 Alpha  occ. eigenvalues --   -1.04303  -1.01341  -1.00299  -0.91881  -0.91438
 Alpha  occ. eigenvalues --   -0.90295  -0.89726  -0.89606  -0.89383  -0.89214
 Alpha  occ. eigenvalues --   -0.88703  -0.88419  -0.86906  -0.86017  -0.85673
 Alpha  occ. eigenvalues --   -0.85135  -0.84036  -0.83579  -0.83152  -0.82937
 Alpha  occ. eigenvalues --   -0.81775  -0.81286  -0.80575  -0.80138  -0.78143
 Alpha  occ. eigenvalues --   -0.77683  -0.77147  -0.76889  -0.76312  -0.76047
 Alpha  occ. eigenvalues --   -0.75648  -0.75069  -0.74771  -0.73047  -0.72468
 Alpha  occ. eigenvalues --   -0.72014  -0.70640  -0.69879  -0.68678  -0.68302
 Alpha  occ. eigenvalues --   -0.67372  -0.67123  -0.65894  -0.65813  -0.65430
 Alpha  occ. eigenvalues --   -0.65203  -0.64354  -0.63489  -0.63397  -0.62450
 Alpha  occ. eigenvalues --   -0.62230  -0.60824  -0.60344  -0.60098  -0.59028
 Alpha  occ. eigenvalues --   -0.58807  -0.58317  -0.57692  -0.57291  -0.56898
 Alpha  occ. eigenvalues --   -0.56334  -0.56008  -0.55943  -0.55180  -0.54756
 Alpha  occ. eigenvalues --   -0.54677  -0.54542  -0.53938  -0.53669  -0.53482
 Alpha  occ. eigenvalues --   -0.53289  -0.52695  -0.52626  -0.52498  -0.51882
 Alpha  occ. eigenvalues --   -0.51618  -0.51386  -0.51223  -0.50866  -0.50756
 Alpha  occ. eigenvalues --   -0.50588  -0.50523  -0.50398  -0.50094  -0.49955
 Alpha  occ. eigenvalues --   -0.49370  -0.49173  -0.48924  -0.48767  -0.48461
 Alpha  occ. eigenvalues --   -0.48393  -0.47959  -0.47784  -0.47434  -0.47406
 Alpha  occ. eigenvalues --   -0.47233  -0.46925  -0.46738  -0.46294  -0.46109
 Alpha  occ. eigenvalues --   -0.45950  -0.45843  -0.45620  -0.45413  -0.45380
 Alpha  occ. eigenvalues --   -0.45152  -0.44769  -0.44337  -0.44241  -0.44186
 Alpha  occ. eigenvalues --   -0.44026  -0.43525  -0.43214  -0.43038  -0.43023
 Alpha  occ. eigenvalues --   -0.42822  -0.42666  -0.42523  -0.42289  -0.42222
 Alpha  occ. eigenvalues --   -0.42157  -0.41765  -0.41632  -0.41581  -0.41314
 Alpha  occ. eigenvalues --   -0.41178  -0.40943  -0.40680  -0.40589  -0.40343
 Alpha  occ. eigenvalues --   -0.40140  -0.40069  -0.39856  -0.39660  -0.39280
 Alpha  occ. eigenvalues --   -0.39028  -0.38566  -0.38326  -0.37968  -0.37411
 Alpha  occ. eigenvalues --   -0.37304  -0.36983  -0.36804  -0.36696  -0.36625
 Alpha  occ. eigenvalues --   -0.36604  -0.36269  -0.36113  -0.35882  -0.35686
 Alpha  occ. eigenvalues --   -0.35352  -0.35246  -0.35168  -0.34322  -0.33360
 Alpha  occ. eigenvalues --   -0.33260  -0.33047  -0.31845  -0.31031  -0.29712
 Alpha  occ. eigenvalues --   -0.28583  -0.28393  -0.27948  -0.27690  -0.22753
 Alpha  occ. eigenvalues --   -0.20549
 Alpha virt. eigenvalues --   -0.06038  -0.03250   0.01944   0.03622   0.05377
 Alpha virt. eigenvalues --    0.05709   0.06374   0.06648   0.07207   0.07432
 Alpha virt. eigenvalues --    0.08600   0.10963   0.11266   0.12238   0.12401

 Mulliken charges:
               1
     1  Mg   0.820185
     2  C    0.101732
     3  C   -0.208523
     4  C   -0.181786
     5  C   -0.154572
     6  N   -0.645987
     7  C    0.274944
     8  C   -0.098648
     9  C   -0.207455
    10  C    0.392722
    11  C   -0.318390
    12  C   -0.174114
    13  C   -0.274525
    14  C    0.600141
    15  O   -0.423393
    16  O   -0.495181
    17  N   -0.673017
    18  C    0.290299
    19  C    0.046547
    20  C   -0.003441
    21  C    0.303482
    22  C   -0.390397
    23  C   -0.106524
    24  C   -0.241563
    25  N   -0.702379
    26  C    0.260806
    27  C    0.011449
    28  C    0.037553
    29  C    0.312601
    30  C   -0.368346
    31  C   -0.219070
    32  C   -0.294648
    33  N   -0.717207
    34  C    0.244474
    35  C   -0.041431
    36  C    0.002908
    37  C    0.272798
    38  C   -0.349595
    39  C    0.365317
    40  O   -0.422808
    41  C   -0.342834
    42  C    0.641597
    43  O   -0.506515
    44  O   -0.416368
    45  C   -0.088147
    46  C    0.015823
    47  C   -0.083227
    48  C    0.071585
    49  C   -0.350628
    50  C   -0.228305
    51  C   -0.172018
    52  C   -0.154181
    53  C   -0.089631
    54  C   -0.312536
    55  C   -0.169073
    56  C   -0.217776
    57  C   -0.163156
    58  C   -0.063985
    59  C   -0.318320
    60  C   -0.179965
    61  C   -0.180147
    62  C   -0.160341
    63  C   -0.069061
    64  C   -0.277557
    65  C   -0.314964
    66  H    0.087726
    67  H    0.090000
    68  H    0.072634
    69  H    0.108977
    70  H    0.084169
    71  H    0.105555
    72  H    0.118389
    73  H    0.138043
    74  H    0.121973
    75  H    0.111493
    76  H    0.110656
    77  H    0.139775
    78  H    0.115262
    79  H    0.131516
    80  H    0.131752
    81  H    0.114023
    82  H    0.109334
    83  H    0.103798
    84  H    0.127834
    85  H    0.106646
    86  H    0.114359
    87  H    0.112528
    88  H    0.101606
    89  H    0.117116
    90  H    0.119408
    91  H    0.058613
    92  H    0.123918
    93  H    0.142737
    94  H    0.134320
    95  H    0.152628
    96  H    0.129147
    97  H    0.129862
    98  H    0.124266
    99  H    0.115655
   100  H    0.105737
   101  H    0.082962
   102  H    0.123948
   103  H    0.086169
   104  H    0.141402
   105  H    0.091988
   106  H    0.077561
   107  H    0.092417
   108  H    0.109474
   109  H    0.088236
   110  H    0.083977
   111  H    0.073287
   112  H    0.113712
   113  H    0.097286
   114  H    0.107126
   115  H    0.097953
   116  H    0.095702
   117  H    0.091062
   118  H    0.068667
   119  H    0.092622
   120  H    0.104009
   121  H    0.093867
   122  H    0.108976
   123  H    0.096497
   124  H    0.112971
   125  H    0.086872
   126  H    0.098935
   127  H    0.061169
   128  H    0.094123
   129  H    0.049618
   130  H    0.088730
   131  H    0.092430
   132  H    0.109051
   133  H    0.060369
   134  H    0.112468
   135  H    0.095019
   136  H    0.108675
   137  H    0.103984
 Sum of Mulliken charges =   0.00000

 Dipole moment (field-independent basis, Debye):
    X=              1.7707    Y=              4.3548    Z=             -0.0682  Tot=              4.7016
 Quadrupole moment (field-independent basis, Debye-Ang):
   XX=           -347.2008   YY=           -379.9000   ZZ=           -395.8076
   XY=            -33.3018   XZ=             18.9129   YZ=             -0.3110

 Normal termination of Gaussian 09 at Sun Jul  7 02:33:06 2019.
