 Gaussian 09, Revision D.01,
 Gaussian 09:  ES64L-G09RevD.01 24-Apr-2013

 -------------------------------------
 # td=(NStates=1) CAM-B3LYP/6-31G(d,p)
 -------------------------------------

 --
 TD
 --
 Symbolic Z-matrix:
 Charge =  0 Multiplicity = 1

                         Standard orientation:
 ---------------------------------------------------------------------
 Center     Atomic      Atomic             Coordinates (Angstroms)
 Number     Number       Type             X           Y           Z
 ---------------------------------------------------------------------
      1         12           0       -7.174957    0.615558    0.167784
      2          6           0       -4.801738   -2.018166    0.482989
      3          6           0       -4.797650    2.831841    1.124846
      4          6           0       -9.439135    3.128643   -0.347099
      5          6           0       -9.616326   -1.718063   -0.765338
      6          7           0       -5.143710    0.391343    0.812011
      7          6           0       -4.380333   -0.709331    0.827131
      8          6           0       -2.919104   -0.373026    1.250725
      9          6           0       -2.924114    1.071597    1.579962
     10          6           0       -4.418044    1.532361    1.144873
     11          6           0       -2.606280    1.481662    3.102046
     12          6           0       -1.872014   -0.677756    0.080136
     13          6           0       -0.587982   -0.396957    0.557030
     14          6           0        0.480084   -0.665890   -0.567445
     15          8           0        0.190867   -1.040379   -1.661712
     16          8           0        1.776099   -0.420058   -0.265485
     17          7           0       -7.134563    2.639161    0.359674
     18          6           0       -6.074328    3.330920    0.861326
     19          6           0       -6.360520    4.704849    0.790051
     20          6           0       -7.658841    4.833599    0.360042
     21          6           0       -8.189777    3.498027    0.078970
     22          6           0       -5.423024    5.905751    1.043795
     23          6           0       -8.487582    6.068921    0.134570
     24          6           0       -8.360303    7.232257    0.890934
     25          7           0       -9.126325    0.730101   -0.561201
     26          6           0       -9.873813    1.822562   -0.661377
     27          6           0      -11.232404    1.493679   -1.137512
     28          6           0      -11.231858    0.120487   -1.139959
     29          6           0       -9.970129   -0.380272   -0.771957
     30          6           0      -12.306137    2.488855   -1.384409
     31          6           0      -12.469656   -0.716562   -1.694062
     32          6           0      -12.383272   -1.060113   -3.262289
     33          7           0       -7.276074   -1.389414   -0.150800
     34          6           0       -8.276891   -2.238167   -0.475707
     35          6           0       -7.902428   -3.687962   -0.508589
     36          6           0       -6.482497   -3.570307   -0.127777
     37          6           0       -6.172200   -2.213739    0.101521
     38          6           0       -8.667862   -4.903944   -0.846583
     39          6           0       -5.371108   -4.371237    0.163332
     40          8           0       -5.296810   -5.599614    0.195562
     41          6           0       -4.214345   -3.399163    0.458173
     42          6           0       -3.620203   -3.729301    1.825123
     43          8           0       -3.698998   -3.143676    2.955241
     44          8           0       -2.788984   -4.835202    1.740957
     45          6           0       -2.313029   -5.259110    3.054991
     46          6           0        2.778782   -0.585571   -1.248776
     47          6           0        4.146532   -0.398608   -0.776995
     48          6           0        5.080044    0.365421   -1.041189
     49          6           0        5.080378    1.255945   -2.248831
     50          6           0        6.391166    0.284761   -0.350783
     51          6           0        7.645383   -0.256976   -0.995824
     52          6           0        9.010981    0.065320   -0.289983
     53          6           0       10.310821   -0.481420   -1.000892
     54          6           0       10.151632   -2.065253   -1.150745
     55          6           0       11.472905   -0.125177   -0.064645
     56          6           0       12.752653   -0.397007   -0.732269
     57          6           0       13.934565   -0.043298    0.269812
     58          6           0       15.368575   -0.079756   -0.377687
     59          6           0       15.703678   -1.629882   -0.884466
     60          6           0       16.497468    0.253369    0.605847
     61          6           0       17.836703    0.459583   -0.113169
     62          6           0       18.885813    1.049233    0.799335
     63          6           0       20.257208    1.275503    0.248702
     64          6           0       20.208828    2.056442   -1.153968
     65          6           0       21.250859    1.961559    1.217689
     66          1           0       -4.176889    3.576442    1.450961
     67          1           0      -10.097970    3.954647   -0.454231
     68          1           0      -10.355292   -2.374893   -0.932589
     69          1           0       -2.505285   -1.066779    2.081031
     70          1           0       -2.064882    1.316763    0.799915
     71          1           0       -1.626172    1.169177    3.418587
     72          1           0       -2.763993    2.449921    3.092195
     73          1           0       -3.385832    0.838682    3.671130
     74          1           0       -1.979481   -1.716120   -0.257446
     75          1           0       -2.338870   -0.052357   -0.792540
     76          1           0       -0.855442    0.687272    0.792530
     77          1           0       -0.344077   -0.919182    1.454610
     78          1           0       -5.575633    6.853391    0.200635
     79          1           0       -5.588106    6.297515    1.976965
     80          1           0       -4.254786    5.709674    0.961665
     81          1           0       -9.323243    6.044287   -0.571403
     82          1           0       -9.086011    8.126930    0.786044
     83          1           0       -7.587625    7.250465    1.629539
     84          1           0      -11.937491    3.249440   -2.109571
     85          1           0      -12.994149    1.994803   -1.865804
     86          1           0      -12.517342    3.161332   -0.379551
     87          1           0      -12.500396   -1.787235   -1.247799
     88          1           0      -13.323244   -0.230696   -1.496002
     89          1           0      -13.056718   -1.897064   -3.417961
     90          1           0      -12.243289   -0.222966   -3.964003
     91          1           0      -11.344862   -1.594434   -3.370011
     92          1           0       -9.164188   -5.109812   -1.899022
     93          1           0       -7.927418   -5.731211   -0.854785
     94          1           0       -9.514496   -5.350438   -0.163611
     95          1           0       -3.410302   -3.582374   -0.157202
     96          1           0       -1.651107   -4.583290    3.406508
     97          1           0       -3.022720   -5.490141    3.573330
     98          1           0       -1.472645   -5.976636    2.725561
     99          1           0        2.533143   -1.741851   -1.589035
    100          1           0        2.567013    0.142292   -2.184684
    101          1           0        4.336459   -1.087130   -0.058472
    102          1           0        4.108315    1.319502   -2.741839
    103          1           0        5.306893    2.224507   -1.995440
    104          1           0        5.798650    1.069111   -3.321257
    105          1           0        6.681881    1.222372   -0.177074
    106          1           0        6.143324   -0.264385    0.518479
    107          1           0        7.515939   -1.359750   -1.254866
    108          1           0        7.643042    0.128339   -1.951678
    109          1           0        8.959021    1.320127   -0.203627
    110          1           0        9.079642   -0.375858    1.026347
    111          1           0       10.520394   -0.034786   -1.936635
    112          1           0        9.218958   -2.007831   -1.577274
    113          1           0       10.940158   -2.435571   -1.817717
    114          1           0       10.189834   -2.541061    0.036308
    115          1           0       11.424226    0.973386    0.124056
    116          1           0       11.262921   -0.590084    0.971957
    117          1           0       12.946337   -1.401068   -1.243060
    118          1           0       12.875740    0.210618   -1.713498
    119          1           0       13.829638    0.867695    0.950578
    120          1           0       14.033447   -0.944314    1.057479
    121          1           0       15.283786    0.557291   -1.228678
    122          1           0       15.878931   -2.171777    0.085308
    123          1           0       14.899813   -2.187524   -1.345805
    124          1           0       16.650728   -1.626947   -1.747121
    125          1           0       16.068529    1.312172    1.156441
    126          1           0       16.627165   -0.563689    1.261343
    127          1           0       18.240231   -0.459175   -0.584221
    128          1           0       17.717101    1.174341   -1.007555
    129          1           0       18.354830    2.091708    1.047006
    130          1           0       18.982796    0.666620    1.770426
    131          1           0       20.550970    0.276226    0.059128
    132          1           0       19.452988    2.985187   -0.773684
    133          1           0       21.202637    2.409304   -1.403126
    134          1           0       19.811473    1.428903   -1.855809
    135          1           0       21.519452    1.250831    2.306082
    136          1           0       22.235912    2.006859    0.859685
    137          1           0       20.963642    2.959914    1.844398
 ---------------------------------------------------------------------

 SCF Done:  E(RCAM-B3LYP) =  -2932.54040520     A.U. after   18 cycles

 Excitation energies and oscillator strengths:

 Excited State   1:      Singlet-A      1.9629 eV  631.63 nm  f=0.3384  <S**2>=0.000
     240 -> 242       -0.12267
     240 -> 243       -0.20149
     241 -> 242        0.65921
 This state for optimization and/or second-order correction.
 Total Energy, E(TD-HF/TD-KS) =  -2932.46826906
 Copying the excited state density for this state as the 1-particle RhoCI density.

 The electronic state is 1-A.
 Alpha  occ. eigenvalues --  -46.84725 -19.25660 -19.25199 -19.20804 -19.20417
 Alpha  occ. eigenvalues --  -19.19404 -14.42526 -14.39931 -14.39684 -14.39617
 Alpha  occ. eigenvalues --  -10.39387 -10.39368 -10.34051 -10.33359 -10.31998
 Alpha  occ. eigenvalues --  -10.31389 -10.30199 -10.30022 -10.30012 -10.29925
 Alpha  occ. eigenvalues --  -10.29619 -10.29520 -10.29192 -10.28875 -10.28724
 Alpha  occ. eigenvalues --  -10.28637 -10.28611 -10.28524 -10.28493 -10.27929
 Alpha  occ. eigenvalues --  -10.27783 -10.27571 -10.27521 -10.27476 -10.27436
 Alpha  occ. eigenvalues --  -10.27387 -10.27369 -10.27287 -10.27195 -10.27175
 Alpha  occ. eigenvalues --  -10.26707 -10.26662 -10.26629 -10.26603 -10.26472
 Alpha  occ. eigenvalues --  -10.26456 -10.26423 -10.26374 -10.26347 -10.26343
 Alpha  occ. eigenvalues --  -10.26338 -10.26337 -10.26212 -10.25995 -10.25929
 Alpha  occ. eigenvalues --  -10.25801 -10.25651 -10.25638 -10.25522 -10.25343
 Alpha  occ. eigenvalues --  -10.25239 -10.25080 -10.24417 -10.24040 -10.23962
 Alpha  occ. eigenvalues --   -3.13698  -1.88414  -1.87924  -1.87880  -1.18752
 Alpha  occ. eigenvalues --   -1.15508  -1.09730  -1.09614  -1.05474  -1.04572
 Alpha  occ. eigenvalues --   -1.03690  -1.03477  -1.02338  -0.93416  -0.93278
 Alpha  occ. eigenvalues --   -0.92314  -0.90235  -0.89947  -0.89631  -0.88575
 Alpha  occ. eigenvalues --   -0.88020  -0.87649  -0.87377  -0.86286  -0.86008
 Alpha  occ. eigenvalues --   -0.85426  -0.84420  -0.83346  -0.82887  -0.82494
 Alpha  occ. eigenvalues --   -0.81898  -0.81149  -0.80531  -0.79519  -0.78363
 Alpha  occ. eigenvalues --   -0.78033  -0.77516  -0.76988  -0.76452  -0.75330
 Alpha  occ. eigenvalues --   -0.74713  -0.74365  -0.73732  -0.73373  -0.72597
 Alpha  occ. eigenvalues --   -0.71846  -0.70262  -0.69911  -0.69154  -0.68617
 Alpha  occ. eigenvalues --   -0.67204  -0.66823  -0.65819  -0.65168  -0.64398
 Alpha  occ. eigenvalues --   -0.63813  -0.63240  -0.62684  -0.62393  -0.62306
 Alpha  occ. eigenvalues --   -0.61541  -0.61267  -0.60826  -0.60564  -0.59833
 Alpha  occ. eigenvalues --   -0.59270  -0.58617  -0.58493  -0.57591  -0.57127
 Alpha  occ. eigenvalues --   -0.56904  -0.56783  -0.55844  -0.55554  -0.55083
 Alpha  occ. eigenvalues --   -0.54599  -0.53825  -0.53789  -0.53460  -0.53101
 Alpha  occ. eigenvalues --   -0.52708  -0.52269  -0.52053  -0.51952  -0.51831
 Alpha  occ. eigenvalues --   -0.51518  -0.51266  -0.50980  -0.50811  -0.50541
 Alpha  occ. eigenvalues --   -0.50411  -0.50198  -0.50154  -0.49647  -0.49513
 Alpha  occ. eigenvalues --   -0.49270  -0.49017  -0.48551  -0.48386  -0.48323
 Alpha  occ. eigenvalues --   -0.48219  -0.47747  -0.47472  -0.47277  -0.47194
 Alpha  occ. eigenvalues --   -0.46967  -0.46914  -0.46738  -0.46238  -0.46093
 Alpha  occ. eigenvalues --   -0.45914  -0.45695  -0.45605  -0.45085  -0.44835
 Alpha  occ. eigenvalues --   -0.44655  -0.44410  -0.44208  -0.44064  -0.43804
 Alpha  occ. eigenvalues --   -0.43643  -0.43444  -0.43290  -0.43048  -0.42990
 Alpha  occ. eigenvalues --   -0.42946  -0.42802  -0.42483  -0.42127  -0.42015
 Alpha  occ. eigenvalues --   -0.41898  -0.41735  -0.41584  -0.41284  -0.41088
 Alpha  occ. eigenvalues --   -0.40838  -0.40719  -0.40543  -0.40378  -0.40109
 Alpha  occ. eigenvalues --   -0.40049  -0.39995  -0.39788  -0.39270  -0.38920
 Alpha  occ. eigenvalues --   -0.38815  -0.38797  -0.38563  -0.37764  -0.37517
 Alpha  occ. eigenvalues --   -0.37414  -0.36922  -0.36770  -0.36581  -0.36419
 Alpha  occ. eigenvalues --   -0.36034  -0.35697  -0.35369  -0.35322  -0.35009
 Alpha  occ. eigenvalues --   -0.34933  -0.34831  -0.34347  -0.34131  -0.33781
 Alpha  occ. eigenvalues --   -0.33552  -0.32930  -0.32402  -0.31447  -0.31275
 Alpha  occ. eigenvalues --   -0.29866  -0.28997  -0.28360  -0.27977  -0.23889
 Alpha  occ. eigenvalues --   -0.21308
 Alpha virt. eigenvalues --   -0.07504  -0.03380   0.01089   0.03579   0.05306
 Alpha virt. eigenvalues --    0.05648   0.05921   0.06133   0.06492   0.07011
 Alpha virt. eigenvalues --    0.08315   0.10443   0.10540   0.11185   0.11702

 Mulliken charges:
               1
     1  Mg   0.820850
     2  C    0.068523
     3  C   -0.157921
     4  C   -0.161718
     5  C   -0.132005
     6  N   -0.651050
     7  C    0.333933
     8  C   -0.165457
     9  C   -0.152938
    10  C    0.314733
    11  C   -0.295340
    12  C   -0.196179
    13  C   -0.241868
    14  C    0.595089
    15  O   -0.443708
    16  O   -0.477850
    17  N   -0.743007
    18  C    0.315030
    19  C    0.019160
    20  C    0.001536
    21  C    0.320626
    22  C   -0.373408
    23  C   -0.093065
    24  C   -0.236525
    25  N   -0.694698
    26  C    0.315754
    27  C    0.021445
    28  C   -0.007227
    29  C    0.297672
    30  C   -0.344632
    31  C   -0.225170
    32  C   -0.319221
    33  N   -0.713472
    34  C    0.236853
    35  C    0.094580
    36  C   -0.006385
    37  C    0.280188
    38  C   -0.420245
    39  C    0.347924
    40  O   -0.478832
    41  C   -0.312529
    42  C    0.610812
    43  O   -0.508466
    44  O   -0.475064
    45  C   -0.037225
    46  C    0.029074
    47  C   -0.109347
    48  C    0.151496
    49  C   -0.368328
    50  C   -0.209790
    51  C   -0.198658
    52  C   -0.126866
    53  C   -0.085057
    54  C   -0.281385
    55  C   -0.143010
    56  C   -0.180959
    57  C   -0.170884
    58  C   -0.062955
    59  C   -0.311339
    60  C   -0.149779
    61  C   -0.181992
    62  C   -0.155114
    63  C   -0.058524
    64  C   -0.298644
    65  C   -0.293954
    66  H    0.075418
    67  H    0.084998
    68  H    0.082485
    69  H    0.120010
    70  H    0.093875
    71  H    0.116791
    72  H    0.122318
    73  H    0.122371
    74  H    0.111483
    75  H    0.110552
    76  H    0.120612
    77  H    0.136158
    78  H    0.104020
    79  H    0.143016
    80  H    0.102768
    81  H    0.098228
    82  H    0.108368
    83  H    0.105975
    84  H    0.117138
    85  H    0.119662
    86  H    0.110474
    87  H    0.091571
    88  H    0.114521
    89  H    0.116744
    90  H    0.118733
    91  H    0.093903
    92  H    0.114775
    93  H    0.158236
    94  H    0.120491
    95  H    0.176571
    96  H    0.127700
    97  H    0.132839
    98  H    0.104512
    99  H    0.100797
   100  H    0.092691
   101  H    0.082140
   102  H    0.109554
   103  H    0.124169
   104  H    0.081066
   105  H    0.100214
   106  H    0.098512
   107  H    0.093349
   108  H    0.109620
   109  H    0.061277
   110  H    0.032136
   111  H    0.096637
   112  H    0.115667
   113  H    0.105432
   114  H    0.076119
   115  H    0.093296
   116  H    0.086403
   117  H    0.094583
   118  H    0.079141
   119  H    0.087826
   120  H    0.064394
   121  H    0.090337
   122  H    0.099901
   123  H    0.103162
   124  H    0.072699
   125  H    0.058159
   126  H    0.104910
   127  H    0.092236
   128  H    0.091237
   129  H    0.056400
   130  H    0.097985
   131  H    0.097395
   132  H    0.077344
   133  H    0.104322
   134  H    0.117681
   135  H    0.036056
   136  H    0.118171
   137  H    0.096179
 Sum of Mulliken charges =   0.00000

 Dipole moment (field-independent basis, Debye):
    X=             -0.1189    Y=              5.6994    Z=             -0.3112  Tot=              5.7092
 Quadrupole moment (field-independent basis, Debye-Ang):
   XX=           -335.1337   YY=           -395.8920   ZZ=           -398.1066
   XY=            -34.2451   XZ=              2.8629   YZ=              0.6357

 Normal termination of Gaussian 09 at Thu Jul  4 02:51:54 2019.
