 Gaussian 09, Revision D.01,
 Gaussian 09:  ES64L-G09RevD.01 24-Apr-2013

 -------------------------------------
 # td=(NStates=1) CAM-B3LYP/6-31G(d,p)
 -------------------------------------

 --
 TD
 --
 Symbolic Z-matrix:
 Charge =  0 Multiplicity = 1

                         Standard orientation:
 ---------------------------------------------------------------------
 Center     Atomic      Atomic             Coordinates (Angstroms)
 Number     Number       Type             X           Y           Z
 ---------------------------------------------------------------------
      1         12           0       -7.130324    0.543121    0.012706
      2          6           0       -4.844331   -1.919884    0.420724
      3          6           0       -4.729257    2.839534    1.161697
      4          6           0       -9.361413    3.064499   -0.404514
      5          6           0       -9.470527   -1.740309   -0.826257
      6          7           0       -5.096871    0.385246    0.779677
      7          6           0       -4.276409   -0.668030    0.790355
      8          6           0       -2.898849   -0.350119    1.174026
      9          6           0       -2.960161    1.190899    1.524027
     10          6           0       -4.396602    1.556588    1.043331
     11          6           0       -2.905720    1.346768    3.044815
     12          6           0       -1.780605   -0.562719    0.112400
     13          6           0       -0.357437   -0.396497    0.499008
     14          6           0        0.409121   -0.729632   -0.667739
     15          8           0        0.275651   -1.184535   -1.798858
     16          8           0        1.755678   -0.620534   -0.167298
     17          7           0       -7.095006    2.660930    0.296838
     18          6           0       -6.033374    3.309837    0.753143
     19          6           0       -6.428252    4.810508    0.841236
     20          6           0       -7.727364    4.892566    0.384822
     21          6           0       -8.113649    3.480517    0.133056
     22          6           0       -5.507774    5.871029    1.072655
     23          6           0       -8.534929    6.062892    0.216624
     24          6           0       -8.456479    7.196060    0.877210
     25          7           0       -9.073130    0.601371   -0.571054
     26          6           0       -9.783658    1.749024   -0.818190
     27          6           0      -11.180902    1.511980   -1.149529
     28          6           0      -11.231460    0.080866   -1.249127
     29          6           0       -9.839001   -0.348346   -0.818098
     30          6           0      -12.084446    2.541793   -1.470519
     31          6           0      -12.372795   -0.783792   -1.724921
     32          6           0      -12.311697   -1.141056   -3.271181
     33          7           0       -7.239204   -1.390917   -0.082964
     34          6           0       -8.293778   -2.261362   -0.468109
     35          6           0       -7.779949   -3.651395   -0.448008
     36          6           0       -6.520717   -3.561318   -0.102897
     37          6           0       -6.189124   -2.173104    0.131785
     38          6           0       -8.586573   -4.944628   -0.659030
     39          6           0       -5.360137   -4.379252    0.260440
     40          8           0       -5.247826   -5.554484    0.387030
     41          6           0       -4.112068   -3.322467    0.454181
     42          6           0       -3.559271   -3.645935    1.804321
     43          8           0       -3.738195   -3.009680    2.835871
     44          8           0       -2.828699   -4.713779    1.827070
     45          6           0       -2.362315   -5.083992    3.149744
     46          6           0        2.809689   -0.778623   -1.090568
     47          6           0        4.171852   -0.539673   -0.497654
     48          6           0        5.026184    0.293251   -0.911492
     49          6           0        4.899154    1.277482   -2.160612
     50          6           0        6.366785    0.426997   -0.261733
     51          6           0        7.623960   -0.078456   -0.990343
     52          6           0        8.796056   -0.164700   -0.251041
     53          6           0       10.177105   -0.471651   -1.020944
     54          6           0       10.115330   -2.018274   -1.347533
     55          6           0       11.384491   -0.157997   -0.098135
     56          6           0       12.793581   -0.458091   -0.728423
     57          6           0       13.949114   -0.046968    0.204805
     58          6           0       15.376945   -0.219739   -0.440102
     59          6           0       15.636308   -1.639360   -0.900212
     60          6           0       16.430043    0.422794    0.491669
     61          6           0       17.829073    0.527761   -0.247066
     62          6           0       18.720714    1.375693    0.742880
     63          6           0       20.201810    1.222354    0.271939
     64          6           0       20.349270    1.855868   -1.080649
     65          6           0       21.085321    1.891068    1.363668
     66          1           0       -3.968129    3.529376    1.531869
     67          1           0      -10.179635    3.920992   -0.186360
     68          1           0      -10.156519   -2.517633   -1.271538
     69          1           0       -2.751146   -0.863713    2.026683
     70          1           0       -2.160707    1.831168    1.193726
     71          1           0       -1.893786    0.878814    3.352353
     72          1           0       -2.653011    2.416202    3.416520
     73          1           0       -3.754826    0.828836    3.613341
     74          1           0       -1.838536   -1.558355   -0.360810
     75          1           0       -2.123219    0.060515   -0.736192
     76          1           0       -0.202566    0.652122    0.779282
     77          1           0       -0.008772   -0.890495    1.628435
     78          1           0       -5.857683    6.754169    0.477914
     79          1           0       -5.478168    6.302561    2.122398
     80          1           0       -4.404673    5.606420    0.863366
     81          1           0       -9.335212    6.061661   -0.686974
     82          1           0       -8.852111    8.257518    0.412769
     83          1           0       -8.012663    7.387747    1.677863
     84          1           0      -11.782780    2.836956   -2.503495
     85          1           0      -13.084905    2.092748   -1.555746
     86          1           0      -12.304715    3.408826   -0.832762
     87          1           0      -12.292194   -1.685720   -1.175912
     88          1           0      -13.258708   -0.396995   -1.420517
     89          1           0      -13.002768   -2.038760   -3.501098
     90          1           0      -12.353738   -0.187687   -3.985102
     91          1           0      -11.315829   -1.817124   -3.405832
     92          1           0       -8.738206   -5.128292   -1.894607
     93          1           0       -8.106877   -5.872914   -0.336981
     94          1           0       -9.697824   -4.885916   -0.122577
     95          1           0       -3.350377   -3.489627   -0.362632
     96          1           0       -1.739917   -4.399942    3.620530
     97          1           0       -3.201283   -5.417939    3.741100
     98          1           0       -1.681137   -5.896481    3.193865
     99          1           0        2.414369   -1.733589   -1.677291
    100          1           0        2.756907    0.020957   -1.919144
    101          1           0        4.240516   -1.315601    0.357088
    102          1           0        3.978968    1.366394   -2.752871
    103          1           0        5.188839    2.317757   -1.716129
    104          1           0        5.636766    0.908821   -2.796018
    105          1           0        6.597132    1.357014    0.057648
    106          1           0        6.262637   -0.175039    0.702718
    107          1           0        7.132292   -1.230720   -1.313464
    108          1           0        7.619716    0.401747   -2.042506
    109          1           0        9.081479    0.797721    0.409850
    110          1           0        8.864421   -0.894473    0.554163
    111          1           0       10.285746    0.245480   -1.804900
    112          1           0        9.312375   -2.194913   -2.035002
    113          1           0       10.997121   -2.525161   -1.797853
    114          1           0        9.856296   -2.513165   -0.449685
    115          1           0       11.356297    0.829386    0.103904
    116          1           0       11.382760   -0.683284    0.875323
    117          1           0       12.767283   -1.592690   -0.856387
    118          1           0       12.819884   -0.057912   -1.825613
    119          1           0       13.756859    1.143066    0.457185
    120          1           0       14.048423   -0.692809    1.036937
    121          1           0       15.409410    0.483218   -1.139574
    122          1           0       15.543665   -2.270642    0.048830
    123          1           0       14.812342   -1.738533   -1.562629
    124          1           0       16.687044   -1.724911   -1.242663
    125          1           0       15.989945    1.533794    0.690497
    126          1           0       16.450719   -0.149648    1.553333
    127          1           0       18.142952   -0.446066   -0.459671
    128          1           0       17.506265    1.003133   -1.163742
    129          1           0       18.487338    2.488389    0.942765
    130          1           0       18.706970    0.912507    1.704516
    131          1           0       20.705162    0.081260    0.286212
    132          1           0       19.868201    2.940950   -0.932397
    133          1           0       21.475081    1.960934   -1.277560
    134          1           0       19.970020    1.663701   -1.987215
    135          1           0       20.959885    1.571854    2.399087
    136          1           0       22.156296    2.066954    1.085950
    137          1           0       20.869447    3.047769    1.473346
 ---------------------------------------------------------------------

 SCF Done:  E(RCAM-B3LYP) =  -2932.63844891     A.U. after   15 cycles

 Excitation energies and oscillator strengths:

 Excited State   1:      Singlet-A      2.1402 eV  579.30 nm  f=0.2262  <S**2>=0.000
     240 -> 242        0.12581
     240 -> 243        0.24295
     241 -> 242        0.62805
     241 -> 243       -0.14773
 This state for optimization and/or second-order correction.
 Total Energy, E(TD-HF/TD-KS) =  -2932.55979709
 Copying the excited state density for this state as the 1-particle RhoCI density.

 The electronic state is 1-A.
 Alpha  occ. eigenvalues --  -46.85105 -19.26793 -19.23721 -19.23211 -19.22168
 Alpha  occ. eigenvalues --  -19.19312 -14.41646 -14.40079 -14.39464 -14.39444
 Alpha  occ. eigenvalues --  -10.40442 -10.38414 -10.36369 -10.31448 -10.30778
 Alpha  occ. eigenvalues --  -10.30329 -10.30015 -10.30011 -10.29834 -10.29665
 Alpha  occ. eigenvalues --  -10.29651 -10.29415 -10.29378 -10.29148 -10.28735
 Alpha  occ. eigenvalues --  -10.28234 -10.28183 -10.28005 -10.27918 -10.27684
 Alpha  occ. eigenvalues --  -10.27529 -10.27493 -10.27379 -10.27284 -10.27182
 Alpha  occ. eigenvalues --  -10.27068 -10.27057 -10.26722 -10.26591 -10.26579
 Alpha  occ. eigenvalues --  -10.26479 -10.26307 -10.26175 -10.26156 -10.26084
 Alpha  occ. eigenvalues --  -10.26014 -10.25992 -10.25941 -10.25911 -10.25853
 Alpha  occ. eigenvalues --  -10.25800 -10.25763 -10.25711 -10.25677 -10.25470
 Alpha  occ. eigenvalues --  -10.25330 -10.25190 -10.25187 -10.25177 -10.25102
 Alpha  occ. eigenvalues --  -10.24708 -10.24675 -10.24107 -10.24098 -10.23856
 Alpha  occ. eigenvalues --   -3.14173  -1.88871  -1.88395  -1.88373  -1.19873
 Alpha  occ. eigenvalues --   -1.16571  -1.14018  -1.08506  -1.07692  -1.05860
 Alpha  occ. eigenvalues --   -1.04720  -1.04466  -1.03508  -0.92014  -0.91715
 Alpha  occ. eigenvalues --   -0.91439  -0.90213  -0.89446  -0.89229  -0.89055
 Alpha  occ. eigenvalues --   -0.88792  -0.88119  -0.87764  -0.87123  -0.86864
 Alpha  occ. eigenvalues --   -0.85250  -0.84594  -0.84055  -0.82669  -0.82424
 Alpha  occ. eigenvalues --   -0.81877  -0.80839  -0.80128  -0.79221  -0.78040
 Alpha  occ. eigenvalues --   -0.77498  -0.76810  -0.76335  -0.76184  -0.75705
 Alpha  occ. eigenvalues --   -0.75243  -0.75069  -0.74122  -0.73613  -0.72223
 Alpha  occ. eigenvalues --   -0.71122  -0.70206  -0.69308  -0.68954  -0.68095
 Alpha  occ. eigenvalues --   -0.67384  -0.66271  -0.65800  -0.64843  -0.64257
 Alpha  occ. eigenvalues --   -0.63879  -0.63422  -0.62761  -0.62537  -0.62430
 Alpha  occ. eigenvalues --   -0.61633  -0.60515  -0.60254  -0.59847  -0.59451
 Alpha  occ. eigenvalues --   -0.58631  -0.58325  -0.57917  -0.57432  -0.57094
 Alpha  occ. eigenvalues --   -0.56553  -0.55882  -0.55199  -0.55174  -0.54724
 Alpha  occ. eigenvalues --   -0.54233  -0.54126  -0.54022  -0.53755  -0.53649
 Alpha  occ. eigenvalues --   -0.53010  -0.52410  -0.52204  -0.51973  -0.51792
 Alpha  occ. eigenvalues --   -0.51591  -0.51280  -0.51043  -0.50796  -0.50628
 Alpha  occ. eigenvalues --   -0.50195  -0.50095  -0.50068  -0.49734  -0.49564
 Alpha  occ. eigenvalues --   -0.49251  -0.48911  -0.48742  -0.48641  -0.48533
 Alpha  occ. eigenvalues --   -0.47932  -0.47787  -0.47658  -0.47627  -0.47390
 Alpha  occ. eigenvalues --   -0.47014  -0.46728  -0.46476  -0.45998  -0.45892
 Alpha  occ. eigenvalues --   -0.45503  -0.45298  -0.45098  -0.44967  -0.44917
 Alpha  occ. eigenvalues --   -0.44837  -0.44765  -0.44497  -0.44301  -0.44097
 Alpha  occ. eigenvalues --   -0.43616  -0.43610  -0.43475  -0.43287  -0.43237
 Alpha  occ. eigenvalues --   -0.43132  -0.42781  -0.42733  -0.42647  -0.42464
 Alpha  occ. eigenvalues --   -0.42244  -0.41976  -0.41792  -0.41649  -0.41486
 Alpha  occ. eigenvalues --   -0.41267  -0.40731  -0.40708  -0.40546  -0.40225
 Alpha  occ. eigenvalues --   -0.40164  -0.40000  -0.39730  -0.39410  -0.39283
 Alpha  occ. eigenvalues --   -0.39050  -0.38466  -0.37988  -0.37907  -0.37770
 Alpha  occ. eigenvalues --   -0.37337  -0.37209  -0.36868  -0.36788  -0.36400
 Alpha  occ. eigenvalues --   -0.36138  -0.36052  -0.35272  -0.35220  -0.35139
 Alpha  occ. eigenvalues --   -0.34943  -0.34635  -0.34048  -0.33372  -0.33093
 Alpha  occ. eigenvalues --   -0.32997  -0.32328  -0.32185  -0.31754  -0.30833
 Alpha  occ. eigenvalues --   -0.30672  -0.30466  -0.27658  -0.27083  -0.23135
 Alpha  occ. eigenvalues --   -0.20512
 Alpha virt. eigenvalues --   -0.05362  -0.02934   0.01727   0.02653   0.04302
 Alpha virt. eigenvalues --    0.04914   0.06574   0.07070   0.07697   0.07856
 Alpha virt. eigenvalues --    0.08513   0.10075   0.11009   0.11176   0.11880

 Mulliken charges:
               1
     1  Mg   0.844639
     2  C   -0.004462
     3  C   -0.166447
     4  C   -0.167646
     5  C   -0.206948
     6  N   -0.651699
     7  C    0.348466
     8  C   -0.147920
     9  C   -0.163230
    10  C    0.350002
    11  C   -0.305278
    12  C   -0.196853
    13  C   -0.252349
    14  C    0.646900
    15  O   -0.469528
    16  O   -0.524337
    17  N   -0.667704
    18  C    0.283467
    19  C    0.013403
    20  C    0.052191
    21  C    0.268710
    22  C   -0.402820
    23  C   -0.094948
    24  C   -0.226296
    25  N   -0.640362
    26  C    0.214453
    27  C    0.056955
    28  C   -0.021526
    29  C    0.317107
    30  C   -0.393880
    31  C   -0.229944
    32  C   -0.297340
    33  N   -0.766317
    34  C    0.276237
    35  C    0.037288
    36  C    0.029889
    37  C    0.347569
    38  C   -0.364763
    39  C    0.373195
    40  O   -0.421057
    41  C   -0.337620
    42  C    0.628059
    43  O   -0.506520
    44  O   -0.426496
    45  C   -0.083917
    46  C    0.026432
    47  C   -0.127071
    48  C    0.113968
    49  C   -0.356643
    50  C   -0.223950
    51  C   -0.152924
    52  C   -0.168541
    53  C   -0.072927
    54  C   -0.315761
    55  C   -0.175202
    56  C   -0.194083
    57  C   -0.159619
    58  C   -0.071194
    59  C   -0.301039
    60  C   -0.178554
    61  C   -0.177966
    62  C   -0.166552
    63  C   -0.043910
    64  C   -0.286099
    65  C   -0.316823
    66  H    0.093773
    67  H    0.096895
    68  H    0.093815
    69  H    0.141480
    70  H    0.100437
    71  H    0.085403
    72  H    0.095782
    73  H    0.131416
    74  H    0.117795
    75  H    0.122593
    76  H    0.155562
    77  H    0.147491
    78  H    0.123002
    79  H    0.111662
    80  H    0.101690
    81  H    0.086020
    82  H    0.076941
    83  H    0.097708
    84  H    0.133718
    85  H    0.108297
    86  H    0.123393
    87  H    0.106300
    88  H    0.111819
    89  H    0.098652
    90  H    0.107906
    91  H    0.085645
    92  H    0.101695
    93  H    0.157280
    94  H    0.108757
    95  H    0.158021
    96  H    0.131956
    97  H    0.136902
    98  H    0.117982
    99  H    0.110538
   100  H    0.075831
   101  H    0.088777
   102  H    0.121928
   103  H    0.106143
   104  H    0.134619
   105  H    0.107444
   106  H    0.093847
   107  H    0.055904
   108  H    0.092051
   109  H    0.066225
   110  H    0.107000
   111  H    0.088625
   112  H    0.108652
   113  H    0.098700
   114  H    0.108113
   115  H    0.096683
   116  H    0.082935
   117  H    0.091489
   118  H    0.076499
   119  H    0.064117
   120  H    0.099949
   121  H    0.092641
   122  H    0.090177
   123  H    0.120599
   124  H    0.101335
   125  H    0.064627
   126  H    0.057456
   127  H    0.110176
   128  H    0.101662
   129  H    0.096888
   130  H    0.102986
   131  H    0.061139
   132  H    0.071270
   133  H    0.083928
   134  H    0.121866
   135  H    0.110409
   136  H    0.096362
   137  H    0.070764
 Sum of Mulliken charges =   0.00000

 Dipole moment (field-independent basis, Debye):
    X=              1.3503    Y=              2.5027    Z=              0.2049  Tot=              2.8511
 Quadrupole moment (field-independent basis, Debye-Ang):
   XX=           -369.9716   YY=           -392.5148   ZZ=           -396.6489
   XY=             -2.9161   XZ=             11.2294   YZ=             -3.6491

 Normal termination of Gaussian 09 at Fri Jul  5 12:53:57 2019.
