 Gaussian 16, Revision A.03,
 Gaussian 16:  ES64L-G16RevA.03 25-Dec-2016

 ----------------------------------------------------------------------
 # td=(NStates=1) iop(3/107=0140000000,3/108=0140000000) CAM-B3LYP/6-31
 G(d,p)
 ----------------------------------------------------------------------

 --
 TD
 --
 Symbolic Z-matrix:
 Charge =  0 Multiplicity = 1

                         Standard orientation:
 ---------------------------------------------------------------------
 Center     Atomic      Atomic             Coordinates (Angstroms)
 Number     Number       Type             X           Y           Z
 ---------------------------------------------------------------------
      1         12           0       -7.124977    0.645721    0.099202
      2          6           0       -4.857281   -1.928580    0.587936
      3          6           0       -4.863525    2.880767    1.279264
      4          6           0       -9.391436    3.126270   -0.435531
      5          6           0       -9.459130   -1.718005   -0.973479
      6          7           0       -5.074425    0.451902    0.787740
      7          6           0       -4.366882   -0.806599    0.860149
      8          6           0       -2.927752   -0.388900    1.202505
      9          6           0       -3.061114    1.074794    1.741037
     10          6           0       -4.363425    1.566352    1.122597
     11          6           0       -2.913380    1.232796    3.239737
     12          6           0       -1.933772   -0.640828    0.004716
     13          6           0       -0.500839   -0.513399    0.430026
     14          6           0        0.432360   -0.789417   -0.621316
     15          8           0        0.218810   -1.090337   -1.770904
     16          8           0        1.723174   -0.563332   -0.142342
     17          7           0       -7.020164    2.593895    0.375882
     18          6           0       -6.033347    3.428201    0.869714
     19          6           0       -6.317803    4.785381    0.824910
     20          6           0       -7.616620    4.908160    0.283521
     21          6           0       -8.057922    3.436186    0.075101
     22          6           0       -5.498699    5.901001    1.432905
     23          6           0       -8.470443    6.079975    0.262586
     24          6           0       -8.299302    7.259885    0.812619
     25          7           0       -9.057973    0.719865   -0.507175
     26          6           0       -9.866553    1.854780   -0.782996
     27          6           0      -11.255620    1.463750   -1.241845
     28          6           0      -11.261968    0.141297   -1.364775
     29          6           0       -9.914083   -0.369521   -0.945039
     30          6           0      -12.250700    2.557662   -1.751437
     31          6           0      -12.341869   -0.726401   -1.972115
     32          6           0      -12.185978   -1.130430   -3.440638
     33          7           0       -7.150505   -1.336889   -0.109042
     34          6           0       -8.200293   -2.144233   -0.596900
     35          6           0       -7.804414   -3.586708   -0.605199
     36          6           0       -6.447304   -3.581367   -0.115329
     37          6           0       -6.202729   -2.164139    0.205503
     38          6           0       -8.599919   -4.842807   -0.933492
     39          6           0       -5.271492   -4.310786    0.355441
     40          8           0       -5.213076   -5.524875    0.361897
     41          6           0       -4.169248   -3.380232    0.628923
     42          6           0       -3.498562   -3.726641    2.046754
     43          8           0       -3.693701   -3.156458    3.010912
     44          8           0       -2.718479   -4.767235    1.880481
     45          6           0       -2.127382   -5.336804    3.085123
     46          6           0        2.781663   -0.754902   -1.209003
     47          6           0        4.133055   -0.526979   -0.461725
     48          6           0        5.055506    0.342396   -0.867350
     49          6           0        4.923557    1.132875   -2.101462
     50          6           0        6.482096    0.213146   -0.141398
     51          6           0        7.543842   -0.301018   -0.962137
     52          6           0        8.857831   -0.114717   -0.081212
     53          6           0       10.086405   -0.595942   -0.840222
     54          6           0        9.964856   -2.083193   -1.341890
     55          6           0       11.321978   -0.208475    0.081695
     56          6           0       12.718453   -0.368830   -0.701316
     57          6           0       13.961803   -0.066960    0.163542
     58          6           0       15.347792   -0.162823   -0.485751
     59          6           0       15.587422   -1.616826   -0.955571
     60          6           0       16.463162    0.445823    0.388722
     61          6           0       17.783015    0.630100   -0.381273
     62          6           0       18.740780    1.216277    0.696283
     63          6           0       20.242628    1.372579    0.134433
     64          6           0       20.303757    2.231412   -1.147020
     65          6           0       21.110814    2.039600    1.200491
     66          1           0       -4.234364    3.596888    1.790781
     67          1           0      -10.017101    4.115331   -0.421304
     68          1           0      -10.025304   -2.619818   -1.335022
     69          1           0       -2.639945   -0.862667    2.090724
     70          1           0       -2.123470    1.559632    1.433600
     71          1           0       -1.969040    1.127659    3.548706
     72          1           0       -3.315753    2.208269    3.476049
     73          1           0       -3.698949    0.640403    3.947397
     74          1           0       -2.062315   -1.765804   -0.562133
     75          1           0       -2.124575   -0.088333   -0.889076
     76          1           0       -0.439827    0.543628    0.804555
     77          1           0       -0.418896   -1.256420    1.193453
     78          1           0       -5.479638    6.974670    0.808263
     79          1           0       -5.882624    6.207304    2.269245
     80          1           0       -4.598914    5.533607    1.582014
     81          1           0       -9.364140    5.902583   -0.516883
     82          1           0       -9.012041    7.837575    0.715478
     83          1           0       -7.381763    7.676345    1.373021
     84          1           0      -11.912725    3.173098   -2.494437
     85          1           0      -13.109130    2.034423   -1.820251
     86          1           0      -12.339123    3.151402   -0.944251
     87          1           0      -12.604031   -1.745139   -1.397265
     88          1           0      -13.361402   -0.210734   -1.961871
     89          1           0      -12.929942   -1.925255   -3.735343
     90          1           0      -12.541392   -0.234542   -4.226615
     91          1           0      -11.150401   -1.351505   -3.734233
     92          1           0       -9.107578   -4.623156   -1.871359
     93          1           0       -8.079733   -5.750238   -0.927153
     94          1           0       -9.336740   -4.967083    0.004264
     95          1           0       -3.492665   -3.413869    0.058212
     96          1           0       -1.372331   -4.635984    3.491526
     97          1           0       -2.761293   -5.427026    3.888192
     98          1           0       -1.503426   -6.212812    2.771124
     99          1           0        2.799061   -1.616178   -1.788475
    100          1           0        2.675908   -0.035825   -2.111092
    101          1           0        4.206950   -1.073490    0.480269
    102          1           0        3.906676    1.185503   -2.437642
    103          1           0        5.353073    2.023060   -1.818186
    104          1           0        5.473721    0.540867   -2.666698
    105          1           0        6.662823    1.399492    0.040991
    106          1           0        6.415516   -0.362461    0.961014
    107          1           0        7.417549   -1.340002   -1.139174
    108          1           0        7.750614    0.172511   -1.972562
    109          1           0        9.076251    1.030313    0.033143
    110          1           0        8.597502   -0.588076    0.933385
    111          1           0       10.031733   -0.044389   -1.807866
    112          1           0        9.084216   -1.987477   -2.030735
    113          1           0       10.911022   -2.388312   -1.658787
    114          1           0        9.471266   -2.879897   -0.654634
    115          1           0       11.180968    0.958014    0.229671
    116          1           0       11.577637   -0.684844    1.056586
    117          1           0       12.775183   -1.548252   -0.891685
    118          1           0       12.559022    0.144900   -1.629440
    119          1           0       13.825025    1.069864    0.541452
    120          1           0       13.929021   -0.619831    1.111485
    121          1           0       15.484069    0.370519   -1.496372
    122          1           0       15.573821   -2.392687   -0.056028
    123          1           0       14.995142   -1.938315   -1.690156
    124          1           0       16.507020   -1.826468   -1.486598
    125          1           0       16.146636    1.359423    0.727783
    126          1           0       16.689088   -0.297929    1.201759
    127          1           0       18.078114   -0.396923   -0.717977
    128          1           0       17.678334    1.104680   -1.323025
    129          1           0       18.394101    2.342745    0.893556
    130          1           0       18.567119    0.665190    1.604490
    131          1           0       20.928437    0.460460    0.131811
    132          1           0       20.069949    3.167453   -0.871923
    133          1           0       21.337128    2.238518   -1.390362
    134          1           0       19.800472    1.669897   -1.967783
    135          1           0       21.269208    1.562756    2.119799
    136          1           0       22.149585    1.742761    0.592206
    137          1           0       21.057053    3.077835    1.442911
 ---------------------------------------------------------------------

 SCF Done:  E(RCAM-B3LYP) =  -2933.41362571     A.U. after   16 cycles

 Excitation energies and oscillator strengths:

 Excited State   1:      Singlet-A      1.9340 eV  641.06 nm  f=0.2754  <S**2>=0.000
     240 -> 243        0.19016
     241 -> 242        0.68016
 This state for optimization and/or second-order correction.
 Total Energy, E(TD-HF/TD-DFT) =  -2933.34255079
 Copying the excited state density for this state as the 1-particle RhoCI density.

 The electronic state is 1-A.
 Alpha  occ. eigenvalues --  -46.78910 -19.22291 -19.21230 -19.16987 -19.16924
 Alpha  occ. eigenvalues --  -19.14333 -14.36769 -14.36095 -14.35353 -14.35283
 Alpha  occ. eigenvalues --  -10.33973 -10.33917 -10.28873 -10.27071 -10.26988
 Alpha  occ. eigenvalues --  -10.26570 -10.26139 -10.25616 -10.25481 -10.24815
 Alpha  occ. eigenvalues --  -10.24453 -10.24439 -10.24395 -10.24006 -10.23850
 Alpha  occ. eigenvalues --  -10.23786 -10.23650 -10.23369 -10.23242 -10.23150
 Alpha  occ. eigenvalues --  -10.23010 -10.23004 -10.22682 -10.22673 -10.22630
 Alpha  occ. eigenvalues --  -10.22533 -10.22471 -10.22340 -10.22327 -10.22286
 Alpha  occ. eigenvalues --  -10.22245 -10.22208 -10.22061 -10.22051 -10.21925
 Alpha  occ. eigenvalues --  -10.21912 -10.21886 -10.21641 -10.21613 -10.21460
 Alpha  occ. eigenvalues --  -10.21374 -10.21178 -10.21131 -10.21095 -10.20797
 Alpha  occ. eigenvalues --  -10.20657 -10.20453 -10.20446 -10.20048 -10.19987
 Alpha  occ. eigenvalues --  -10.19777 -10.19689 -10.19479 -10.19352 -10.19304
 Alpha  occ. eigenvalues --   -3.07725  -1.82648  -1.82202  -1.82152  -1.15744
 Alpha  occ. eigenvalues --   -1.11237  -1.07333  -1.04996  -1.03075  -0.98756
 Alpha  occ. eigenvalues --   -0.98041  -0.96094  -0.94825  -0.87281  -0.86228
 Alpha  occ. eigenvalues --   -0.85087  -0.84679  -0.84334  -0.83821  -0.83604
 Alpha  occ. eigenvalues --   -0.83064  -0.82753  -0.82051  -0.81865  -0.80958
 Alpha  occ. eigenvalues --   -0.80045  -0.79874  -0.78690  -0.78254  -0.78147
 Alpha  occ. eigenvalues --   -0.76662  -0.76273  -0.76026  -0.75321  -0.74123
 Alpha  occ. eigenvalues --   -0.73695  -0.73402  -0.72800  -0.71366  -0.70969
 Alpha  occ. eigenvalues --   -0.70729  -0.70508  -0.69537  -0.68181  -0.67763
 Alpha  occ. eigenvalues --   -0.66675  -0.65898  -0.64647  -0.63885  -0.63504
 Alpha  occ. eigenvalues --   -0.62867  -0.61691  -0.60649  -0.60377  -0.60115
 Alpha  occ. eigenvalues --   -0.59838  -0.58900  -0.58603  -0.58324  -0.58162
 Alpha  occ. eigenvalues --   -0.57497  -0.56061  -0.55744  -0.55534  -0.54842
 Alpha  occ. eigenvalues --   -0.54581  -0.54216  -0.53494  -0.53327  -0.52459
 Alpha  occ. eigenvalues --   -0.52213  -0.51730  -0.51102  -0.50943  -0.50854
 Alpha  occ. eigenvalues --   -0.50714  -0.50277  -0.49936  -0.49605  -0.49495
 Alpha  occ. eigenvalues --   -0.49377  -0.49091  -0.48832  -0.48493  -0.48316
 Alpha  occ. eigenvalues --   -0.48090  -0.47812  -0.47564  -0.47292  -0.47262
 Alpha  occ. eigenvalues --   -0.46868  -0.46529  -0.46432  -0.46349  -0.46109
 Alpha  occ. eigenvalues --   -0.45480  -0.45286  -0.45093  -0.44819  -0.44683
 Alpha  occ. eigenvalues --   -0.44588  -0.44552  -0.44387  -0.44126  -0.44029
 Alpha  occ. eigenvalues --   -0.43552  -0.43452  -0.43183  -0.43035  -0.42709
 Alpha  occ. eigenvalues --   -0.42570  -0.41968  -0.41830  -0.41807  -0.41696
 Alpha  occ. eigenvalues --   -0.41138  -0.41091  -0.40907  -0.40791  -0.40717
 Alpha  occ. eigenvalues --   -0.40483  -0.40277  -0.39967  -0.39774  -0.39681
 Alpha  occ. eigenvalues --   -0.39526  -0.39337  -0.39195  -0.39031  -0.38758
 Alpha  occ. eigenvalues --   -0.38609  -0.38419  -0.38369  -0.38198  -0.38050
 Alpha  occ. eigenvalues --   -0.37661  -0.37512  -0.37265  -0.37041  -0.36910
 Alpha  occ. eigenvalues --   -0.36610  -0.36512  -0.36340  -0.36028  -0.35670
 Alpha  occ. eigenvalues --   -0.35594  -0.35431  -0.35315  -0.34895  -0.34567
 Alpha  occ. eigenvalues --   -0.34062  -0.33905  -0.33841  -0.33722  -0.33583
 Alpha  occ. eigenvalues --   -0.33421  -0.32992  -0.32898  -0.32682  -0.32448
 Alpha  occ. eigenvalues --   -0.32048  -0.31939  -0.30665  -0.30591  -0.30575
 Alpha  occ. eigenvalues --   -0.29682  -0.29433  -0.29177  -0.28801  -0.26908
 Alpha  occ. eigenvalues --   -0.26337  -0.26255  -0.25760  -0.25308  -0.21959
 Alpha  occ. eigenvalues --   -0.19187
 Alpha virt. eigenvalues --   -0.06932  -0.03362   0.00697   0.02357   0.03698
 Alpha virt. eigenvalues --    0.05085   0.05571   0.05989   0.06084   0.06732
 Alpha virt. eigenvalues --    0.06873   0.09119   0.09406   0.09573   0.09626

 Mulliken charges:
               1
     1  Mg   0.811616
     2  C    0.081587
     3  C   -0.224881
     4  C   -0.203661
     5  C   -0.168715
     6  N   -0.638858
     7  C    0.251411
     8  C   -0.154838
     9  C   -0.151463
    10  C    0.350372
    11  C   -0.310358
    12  C   -0.184532
    13  C   -0.251599
    14  C    0.621406
    15  O   -0.467917
    16  O   -0.495626
    17  N   -0.718021
    18  C    0.343760
    19  C    0.033688
    20  C   -0.005377
    21  C    0.306015
    22  C   -0.352516
    23  C   -0.091872
    24  C   -0.206331
    25  N   -0.660950
    26  C    0.289492
    27  C   -0.019275
    28  C    0.076205
    29  C    0.248231
    30  C   -0.338583
    31  C   -0.251458
    32  C   -0.296722
    33  N   -0.700058
    34  C    0.270674
    35  C   -0.022687
    36  C    0.010344
    37  C    0.281764
    38  C   -0.361678
    39  C    0.363058
    40  O   -0.479766
    41  C   -0.202012
    42  C    0.569223
    43  O   -0.412941
    44  O   -0.424651
    45  C   -0.103780
    46  C   -0.004299
    47  C   -0.121537
    48  C    0.066162
    49  C   -0.338190
    50  C   -0.200217
    51  C   -0.172846
    52  C   -0.154319
    53  C   -0.058103
    54  C   -0.312784
    55  C   -0.173953
    56  C   -0.178885
    57  C   -0.164134
    58  C   -0.052758
    59  C   -0.313924
    60  C   -0.164405
    61  C   -0.187469
    62  C   -0.151799
    63  C   -0.072277
    64  C   -0.294992
    65  C   -0.306070
    66  H    0.070030
    67  H    0.078349
    68  H    0.090921
    69  H    0.116057
    70  H    0.087969
    71  H    0.120045
    72  H    0.113582
    73  H    0.100519
    74  H    0.081106
    75  H    0.128257
    76  H    0.138765
    77  H    0.149220
    78  H    0.095349
    79  H    0.148375
    80  H    0.111829
    81  H    0.078006
    82  H    0.090899
    83  H    0.094136
    84  H    0.137162
    85  H    0.115168
    86  H    0.131480
    87  H    0.095000
    88  H    0.102505
    89  H    0.106463
    90  H    0.073076
    91  H    0.119828
    92  H    0.121466
    93  H    0.156576
    94  H    0.115064
    95  H    0.128078
    96  H    0.116250
    97  H    0.149822
    98  H    0.133120
    99  H    0.141305
   100  H    0.095575
   101  H    0.082730
   102  H    0.115902
   103  H    0.116947
   104  H    0.140156
   105  H    0.067906
   106  H    0.083756
   107  H    0.111897
   108  H    0.091916
   109  H    0.080027
   110  H    0.088298
   111  H    0.090852
   112  H    0.097588
   113  H    0.113453
   114  H    0.087944
   115  H    0.071825
   116  H    0.096809
   117  H    0.073747
   118  H    0.097104
   119  H    0.058846
   120  H    0.094277
   121  H    0.069673
   122  H    0.072723
   123  H    0.116346
   124  H    0.092954
   125  H    0.099836
   126  H    0.084001
   127  H    0.089198
   128  H    0.097204
   129  H    0.067103
   130  H    0.097073
   131  H    0.083892
   132  H    0.117380
   133  H    0.102862
   134  H    0.103722
   135  H    0.109619
   136  H    0.052421
   137  H    0.099742
 Sum of Mulliken charges =  -0.00000

 Dipole moment (field-independent basis, Debye):
    X=              1.8720    Y=              3.8038    Z=              0.5571  Tot=              4.2760
 Quadrupole moment (field-independent basis, Debye-Ang):
   XX=           -347.5561   YY=           -388.3013   ZZ=           -391.6286
   XY=            -24.8375   XZ=              7.0586   YZ=             -1.2430

 Normal termination of Gaussian 16 at Wed Sep  4 16:04:52 2019.
