 Gaussian 09, Revision D.01,
 Gaussian 09:  ES64L-G09RevD.01 24-Apr-2013

 -------------------------------------
 # td=(NStates=1) CAM-B3LYP/6-31G(d,p)
 -------------------------------------

 --
 TD
 --
 Symbolic Z-matrix:
 Charge =  0 Multiplicity = 1

                         Standard orientation:
 ---------------------------------------------------------------------
 Center     Atomic      Atomic             Coordinates (Angstroms)
 Number     Number       Type             X           Y           Z
 ---------------------------------------------------------------------
      1         12           0       -7.085978    0.583147    0.153605
      2          6           0       -4.873023   -1.925457    0.397789
      3          6           0       -4.808844    2.865692    1.122813
      4          6           0       -9.432148    3.098718   -0.322004
      5          6           0       -9.497483   -1.757127   -0.842017
      6          7           0       -5.071891    0.369053    0.703468
      7          6           0       -4.289629   -0.724201    0.752035
      8          6           0       -2.930499   -0.529165    1.213911
      9          6           0       -3.017883    1.031930    1.729824
     10          6           0       -4.401939    1.479415    1.100692
     11          6           0       -3.146260    1.255279    3.326975
     12          6           0       -1.906766   -0.660881    0.099054
     13          6           0       -0.515471   -0.583009    0.591719
     14          6           0        0.486128   -0.824056   -0.407071
     15          8           0        0.286103   -1.177771   -1.562510
     16          8           0        1.758823   -0.481300   -0.058646
     17          7           0       -7.139681    2.663777    0.327200
     18          6           0       -6.055009    3.403486    0.737041
     19          6           0       -6.472775    4.805224    0.777488
     20          6           0       -7.831769    4.884895    0.353906
     21          6           0       -8.173747    3.535268   -0.055117
     22          6           0       -5.653216    5.853799    1.104518
     23          6           0       -8.668076    6.110579    0.077726
     24          6           0       -8.507380    7.208712    0.757596
     25          7           0       -9.097240    0.638795   -0.564427
     26          6           0       -9.885654    1.711470   -0.626438
     27          6           0      -11.227381    1.502215   -1.144064
     28          6           0      -11.243690    0.123936   -1.232078
     29          6           0       -9.875841   -0.405683   -0.946582
     30          6           0      -12.335690    2.385985   -1.390142
     31          6           0      -12.346136   -0.672803   -1.779937
     32          6           0      -12.328118   -0.983276   -3.346431
     33          7           0       -7.196080   -1.453621   -0.340226
     34          6           0       -8.244990   -2.180051   -0.644929
     35          6           0       -7.783124   -3.676474   -0.543325
     36          6           0       -6.473889   -3.584194   -0.140977
     37          6           0       -6.179461   -2.235184   -0.034849
     38          6           0       -8.603077   -4.918763   -0.765518
     39          6           0       -5.262649   -4.368771    0.263869
     40          8           0       -5.071346   -5.607336    0.201609
     41          6           0       -4.126898   -3.323952    0.534646
     42          6           0       -3.493169   -3.653144    1.966477
     43          8           0       -3.811236   -3.117873    2.920906
     44          8           0       -2.668719   -4.613735    1.683418
     45          6           0       -2.127839   -5.145136    2.916860
     46          6           0        2.805028   -0.595298   -1.123440
     47          6           0        4.146601   -0.333661   -0.470270
     48          6           0        5.077083    0.463533   -0.883452
     49          6           0        5.034018    1.195511   -2.166358
     50          6           0        6.475679    0.420881   -0.181215
     51          6           0        7.669304   -0.135760   -0.927768
     52          6           0        8.811410   -0.250750    0.034445
     53          6           0       10.178982   -0.533705   -0.806685
     54          6           0       10.132091   -2.182953   -1.000397
     55          6           0       11.513193   -0.235234   -0.006515
     56          6           0       12.765061   -0.388799   -0.862475
     57          6           0       13.916470   -0.053976    0.011658
     58          6           0       15.267193   -0.129706   -0.727271
     59          6           0       15.661177   -1.502961   -0.975398
     60          6           0       16.409944    0.655218    0.191584
     61          6           0       17.869068    0.787663   -0.302577
     62          6           0       18.809810    1.393751    0.700932
     63          6           0       20.216331    1.235872    0.274361
     64          6           0       20.519335    2.015909   -1.046701
     65          6           0       21.223232    1.795601    1.421342
     66          1           0       -4.076055    3.657951    1.391152
     67          1           0      -10.171512    3.841935   -0.402655
     68          1           0      -10.245281   -2.523960   -0.987064
     69          1           0       -2.696101   -1.066461    2.125020
     70          1           0       -2.075236    1.549678    1.277371
     71          1           0       -2.267106    1.028462    3.749147
     72          1           0       -3.536316    2.157793    3.427235
     73          1           0       -3.748548    0.610360    3.710787
     74          1           0       -2.101509   -1.712871   -0.134556
     75          1           0       -2.051721    0.059913   -0.520530
     76          1           0       -0.171584    0.308498    0.974201
     77          1           0       -0.084128   -1.405009    1.436410
     78          1           0       -5.808070    6.875985    0.607788
     79          1           0       -5.672302    6.172828    2.239711
     80          1           0       -4.549941    5.535055    1.051658
     81          1           0       -9.243521    5.767791   -0.652967
     82          1           0       -9.085407    8.079492    0.554256
     83          1           0       -7.826480    7.442464    1.604457
     84          1           0      -12.099936    3.152484   -2.207794
     85          1           0      -13.222794    1.918683   -1.695148
     86          1           0      -12.383079    2.997048   -0.363432
     87          1           0      -12.274577   -1.764682   -1.540272
     88          1           0      -13.177308   -0.300947   -1.420071
     89          1           0      -13.206679   -1.517253   -3.621321
     90          1           0      -12.511144   -0.014033   -3.746732
     91          1           0      -11.355479   -1.167820   -3.829399
     92          1           0       -8.959882   -4.795353   -1.729426
     93          1           0       -8.342766   -5.949169   -0.751867
     94          1           0       -9.714358   -4.663157   -0.103966
     95          1           0       -3.379338   -3.511450   -0.270266
     96          1           0       -1.677065   -4.386953    3.573440
     97          1           0       -2.829803   -5.779005    3.547859
     98          1           0       -1.090975   -5.673659    2.527046
     99          1           0        2.763948   -1.574563   -1.550256
    100          1           0        2.423081    0.041522   -1.902485
    101          1           0        4.282539   -0.929559    0.492369
    102          1           0        3.908191    0.824577   -2.660498
    103          1           0        5.260232    2.274408   -2.072707
    104          1           0        5.809597    0.559316   -2.857373
    105          1           0        6.892680    1.466499    0.225916
    106          1           0        6.392710   -0.064161    0.866900
    107          1           0        7.293177   -1.144160   -1.255069
    108          1           0        8.167931    0.258968   -1.862463
    109          1           0        9.131914    0.703872    0.352651
    110          1           0        8.565883   -1.080485    0.917362
    111          1           0       10.185006   -0.009140   -1.804551
    112          1           0        9.259224   -2.454991   -1.353192
    113          1           0       10.708711   -2.587780   -1.803383
    114          1           0       10.244373   -2.656047   -0.199650
    115          1           0       11.399024    0.758721    0.404097
    116          1           0       11.572176   -1.100413    0.796964
    117          1           0       12.712987   -1.483624   -1.472415
    118          1           0       12.733429    0.246153   -1.821488
    119          1           0       13.804162    1.169837    0.447223
    120          1           0       13.916595   -0.728911    0.882979
    121          1           0       14.885221    0.669763   -1.658375
    122          1           0       15.994683   -1.894606   -0.008091
    123          1           0       14.825962   -2.100351   -1.405899
    124          1           0       16.671389   -1.412373   -1.715379
    125          1           0       16.254098    1.686922    0.437838
    126          1           0       16.442081    0.126066    0.966733
    127          1           0       18.137838   -0.283974   -0.558781
    128          1           0       17.889184    1.370418   -1.098419
    129          1           0       18.489686    2.334358    0.989594
    130          1           0       18.767301    0.703775    1.666416
    131          1           0       20.420582    0.065966    0.184602
    132          1           0       20.268853    2.966719   -0.904790
    133          1           0       21.599992    2.049534   -1.409097
    134          1           0       19.795164    1.707132   -1.802051
    135          1           0       21.371597    1.101972    2.337446
    136          1           0       22.255204    1.737495    0.968682
    137          1           0       21.150861    2.858355    1.671415
 ---------------------------------------------------------------------

 SCF Done:  E(RCAM-B3LYP) =  -2932.53892356     A.U. after   18 cycles

 Excitation energies and oscillator strengths:

 Excited State   1:      Singlet-A      2.1332 eV  581.22 nm  f=0.1880  <S**2>=0.000
     240 -> 243       -0.29656
     241 -> 242        0.63592
 This state for optimization and/or second-order correction.
 Total Energy, E(TD-HF/TD-KS) =  -2932.46053104
 Copying the excited state density for this state as the 1-particle RhoCI density.

 The electronic state is 1-A.
 Alpha  occ. eigenvalues --  -46.85678 -19.28406 -19.24911 -19.22423 -19.20176
 Alpha  occ. eigenvalues --  -19.19513 -14.41806 -14.39217 -14.39122 -14.38859
 Alpha  occ. eigenvalues --  -10.39534 -10.38127 -10.35361 -10.33631 -10.31878
 Alpha  occ. eigenvalues --  -10.31571 -10.29937 -10.29793 -10.29135 -10.28938
 Alpha  occ. eigenvalues --  -10.28714 -10.28656 -10.28440 -10.28334 -10.28288
 Alpha  occ. eigenvalues --  -10.28185 -10.27948 -10.27910 -10.27628 -10.27491
 Alpha  occ. eigenvalues --  -10.27453 -10.27290 -10.27198 -10.27108 -10.27078
 Alpha  occ. eigenvalues --  -10.26800 -10.26791 -10.26588 -10.26582 -10.26559
 Alpha  occ. eigenvalues --  -10.26531 -10.26472 -10.26443 -10.26425 -10.26347
 Alpha  occ. eigenvalues --  -10.26338 -10.26182 -10.26166 -10.26081 -10.26077
 Alpha  occ. eigenvalues --  -10.26063 -10.25942 -10.25925 -10.25267 -10.25173
 Alpha  occ. eigenvalues --  -10.25036 -10.24848 -10.24643 -10.24551 -10.24364
 Alpha  occ. eigenvalues --  -10.23730 -10.23422 -10.23150 -10.22824 -10.21425
 Alpha  occ. eigenvalues --   -3.14395  -1.89123  -1.88621  -1.88558  -1.22311
 Alpha  occ. eigenvalues --   -1.16557  -1.14441  -1.08621  -1.06869  -1.05783
 Alpha  occ. eigenvalues --   -1.04284  -1.03237  -1.01506  -0.92272  -0.91641
 Alpha  occ. eigenvalues --   -0.91208  -0.90710  -0.89478  -0.89124  -0.88848
 Alpha  occ. eigenvalues --   -0.88275  -0.88227  -0.87011  -0.86869  -0.86153
 Alpha  occ. eigenvalues --   -0.85312  -0.84794  -0.83871  -0.83204  -0.82913
 Alpha  occ. eigenvalues --   -0.82028  -0.81317  -0.80737  -0.80034  -0.79029
 Alpha  occ. eigenvalues --   -0.77531  -0.76673  -0.76123  -0.76052  -0.75660
 Alpha  occ. eigenvalues --   -0.75042  -0.74866  -0.74679  -0.73804  -0.72143
 Alpha  occ. eigenvalues --   -0.71876  -0.70608  -0.70252  -0.68619  -0.68468
 Alpha  occ. eigenvalues --   -0.67500  -0.66464  -0.65923  -0.64801  -0.64300
 Alpha  occ. eigenvalues --   -0.64072  -0.63234  -0.63169  -0.62652  -0.62272
 Alpha  occ. eigenvalues --   -0.60809  -0.60579  -0.60052  -0.59466  -0.59109
 Alpha  occ. eigenvalues --   -0.58480  -0.58286  -0.58142  -0.57737  -0.57601
 Alpha  occ. eigenvalues --   -0.56354  -0.56214  -0.55802  -0.55166  -0.54953
 Alpha  occ. eigenvalues --   -0.54805  -0.54317  -0.54185  -0.53443  -0.53103
 Alpha  occ. eigenvalues --   -0.52880  -0.52729  -0.52463  -0.52341  -0.51899
 Alpha  occ. eigenvalues --   -0.51509  -0.51040  -0.50933  -0.50927  -0.50679
 Alpha  occ. eigenvalues --   -0.50540  -0.50161  -0.49830  -0.49749  -0.49400
 Alpha  occ. eigenvalues --   -0.49344  -0.48953  -0.48928  -0.48903  -0.48628
 Alpha  occ. eigenvalues --   -0.48421  -0.48228  -0.48074  -0.47978  -0.47725
 Alpha  occ. eigenvalues --   -0.47414  -0.47107  -0.47002  -0.46515  -0.46242
 Alpha  occ. eigenvalues --   -0.46136  -0.45804  -0.45677  -0.45282  -0.45110
 Alpha  occ. eigenvalues --   -0.44910  -0.44711  -0.44647  -0.44519  -0.44433
 Alpha  occ. eigenvalues --   -0.44075  -0.43970  -0.43458  -0.43249  -0.42975
 Alpha  occ. eigenvalues --   -0.42881  -0.42746  -0.42576  -0.42482  -0.42370
 Alpha  occ. eigenvalues --   -0.42335  -0.42242  -0.41779  -0.41669  -0.41495
 Alpha  occ. eigenvalues --   -0.41200  -0.40939  -0.40542  -0.40421  -0.40300
 Alpha  occ. eigenvalues --   -0.40115  -0.39864  -0.39536  -0.39369  -0.38767
 Alpha  occ. eigenvalues --   -0.38642  -0.38599  -0.38198  -0.37682  -0.37610
 Alpha  occ. eigenvalues --   -0.37535  -0.37017  -0.36680  -0.36479  -0.36414
 Alpha  occ. eigenvalues --   -0.36134  -0.35820  -0.35721  -0.35692  -0.35599
 Alpha  occ. eigenvalues --   -0.35256  -0.34300  -0.34287  -0.33768  -0.33187
 Alpha  occ. eigenvalues --   -0.33125  -0.32659  -0.32456  -0.30635  -0.30074
 Alpha  occ. eigenvalues --   -0.29847  -0.29329  -0.27439  -0.26433  -0.22617
 Alpha  occ. eigenvalues --   -0.20567
 Alpha virt. eigenvalues --   -0.05177  -0.03099   0.01371   0.04407   0.05088
 Alpha virt. eigenvalues --    0.06541   0.07003   0.07131   0.07312   0.08059
 Alpha virt. eigenvalues --    0.08963   0.10575   0.10995   0.11483   0.11652

 Mulliken charges:
               1
     1  Mg   0.831270
     2  C    0.014755
     3  C   -0.221173
     4  C   -0.166236
     5  C   -0.158067
     6  N   -0.648458
     7  C    0.336948
     8  C   -0.189333
     9  C   -0.176665
    10  C    0.323747
    11  C   -0.299051
    12  C   -0.117708
    13  C   -0.264554
    14  C    0.604492
    15  O   -0.498369
    16  O   -0.519457
    17  N   -0.714618
    18  C    0.361701
    19  C    0.063948
    20  C   -0.024433
    21  C    0.262212
    22  C   -0.430366
    23  C    0.012231
    24  C   -0.270813
    25  N   -0.651076
    26  C    0.264267
    27  C    0.079782
    28  C   -0.017934
    29  C    0.255067
    30  C   -0.375396
    31  C   -0.244992
    32  C   -0.328702
    33  N   -0.712376
    34  C    0.300559
    35  C   -0.047513
    36  C    0.059109
    37  C    0.294505
    38  C   -0.359617
    39  C    0.372489
    40  O   -0.478684
    41  C   -0.327281
    42  C    0.611305
    43  O   -0.419684
    44  O   -0.401558
    45  C   -0.115939
    46  C    0.014372
    47  C   -0.129467
    48  C    0.139053
    49  C   -0.340334
    50  C   -0.226937
    51  C   -0.155576
    52  C   -0.165687
    53  C   -0.105589
    54  C   -0.316419
    55  C   -0.155529
    56  C   -0.165140
    57  C   -0.146057
    58  C   -0.044842
    59  C   -0.295833
    60  C   -0.168613
    61  C   -0.196160
    62  C   -0.153472
    63  C   -0.042638
    64  C   -0.322123
    65  C   -0.325336
    66  H    0.082228
    67  H    0.076019
    68  H    0.092421
    69  H    0.128143
    70  H    0.084439
    71  H    0.111366
    72  H    0.123015
    73  H    0.131776
    74  H    0.130983
    75  H    0.122554
    76  H    0.149211
    77  H    0.113901
    78  H    0.122247
    79  H    0.104356
    80  H    0.100636
    81  H    0.091323
    82  H    0.099527
    83  H    0.114966
    84  H    0.114971
    85  H    0.122916
    86  H    0.108997
    87  H    0.097033
    88  H    0.103667
    89  H    0.111775
    90  H    0.103871
    91  H    0.120895
    92  H    0.141917
    93  H    0.152956
    94  H    0.077591
    95  H    0.163508
    96  H    0.136112
    97  H    0.147384
    98  H    0.110054
    99  H    0.139118
   100  H    0.133101
   101  H    0.094652
   102  H    0.074587
   103  H    0.128243
   104  H    0.110503
   105  H    0.072546
   106  H    0.096853
   107  H    0.095803
   108  H    0.096529
   109  H    0.100548
   110  H    0.078901
   111  H    0.082859
   112  H    0.100643
   113  H    0.088624
   114  H    0.111384
   115  H    0.093085
   116  H    0.084089
   117  H    0.075377
   118  H    0.085292
   119  H    0.057129
   120  H    0.087794
   121  H    0.041001
   122  H    0.109794
   123  H    0.109874
   124  H    0.084405
   125  H    0.081895
   126  H    0.097748
   127  H    0.076894
   128  H    0.106684
   129  H    0.096643
   130  H    0.070137
   131  H    0.074762
   132  H    0.115127
   133  H    0.096232
   134  H    0.104371
   135  H    0.092350
   136  H    0.090376
   137  H    0.105286
 Sum of Mulliken charges =   0.00000

 Dipole moment (field-independent basis, Debye):
    X=              1.6813    Y=              3.3196    Z=              1.7656  Tot=              4.1188
 Quadrupole moment (field-independent basis, Debye-Ang):
   XX=           -362.6246   YY=           -390.4070   ZZ=           -394.9854
   XY=            -15.9659   XZ=              8.4255   YZ=             -5.5153

 Normal termination of Gaussian 09 at Tue Jul  2 15:57:42 2019.
