 Gaussian 16, Revision A.03,
 Gaussian 16:  ES64L-G16RevA.03 25-Dec-2016

 ----------------------------------------------------------------------
 # td=(NStates=1) iop(3/107=0140000000,3/108=0140000000) CAM-B3LYP/6-31
 G(d,p)
 ----------------------------------------------------------------------

 --
 TD
 --
 Symbolic Z-matrix:
 Charge =  0 Multiplicity = 1

                         Standard orientation:
 ---------------------------------------------------------------------
 Center     Atomic      Atomic             Coordinates (Angstroms)
 Number     Number       Type             X           Y           Z
 ---------------------------------------------------------------------
      1         12           0       -7.191538    0.579223    0.125075
      2          6           0       -4.901622   -1.911555    0.528342
      3          6           0       -4.806932    2.891904    1.139249
      4          6           0       -9.401455    3.234435   -0.398098
      5          6           0       -9.511939   -1.675731   -1.085053
      6          7           0       -5.109952    0.415217    0.690946
      7          6           0       -4.321709   -0.696697    0.803359
      8          6           0       -2.993327   -0.361073    1.235816
      9          6           0       -3.054452    1.023806    1.697909
     10          6           0       -4.406618    1.539902    1.143519
     11          6           0       -2.902399    1.212241    3.231608
     12          6           0       -1.929201   -0.624868    0.156975
     13          6           0       -0.420661   -0.519831    0.541777
     14          6           0        0.471978   -0.621844   -0.581510
     15          8           0        0.181036   -0.920908   -1.716806
     16          8           0        1.767732   -0.367459   -0.202367
     17          7           0       -7.076702    2.616970    0.281062
     18          6           0       -5.997560    3.394479    0.767100
     19          6           0       -6.264726    4.784112    0.665327
     20          6           0       -7.619138    4.824158    0.353244
     21          6           0       -8.087864    3.525232    0.027331
     22          6           0       -5.512117    5.825709    1.277496
     23          6           0       -8.561827    6.019376    0.177004
     24          6           0       -8.392242    7.101533    0.789121
     25          7           0       -9.087525    0.661794   -0.520857
     26          6           0       -9.881417    1.900254   -0.655880
     27          6           0      -11.146961    1.439736   -1.059601
     28          6           0      -11.216690    0.212315   -1.288725
     29          6           0       -9.863632   -0.382055   -0.984995
     30          6           0      -12.164390    2.550349   -1.506890
     31          6           0      -12.335144   -0.686442   -1.723246
     32          6           0      -12.132454   -1.231887   -3.130815
     33          7           0       -7.205258   -1.373295   -0.237802
     34          6           0       -8.240449   -2.230736   -0.620973
     35          6           0       -7.829353   -3.540519   -0.553721
     36          6           0       -6.415521   -3.562025   -0.153006
     37          6           0       -6.202770   -2.212073    0.048166
     38          6           0       -8.557667   -4.735222   -1.029372
     39          6           0       -5.260401   -4.334700    0.242498
     40          8           0       -5.129114   -5.555799    0.290850
     41          6           0       -4.205153   -3.282672    0.720273
     42          6           0       -3.684173   -3.679746    1.930295
     43          8           0       -3.847138   -3.152096    3.041430
     44          8           0       -2.845569   -4.780087    1.778641
     45          6           0       -2.249049   -5.250346    3.073794
     46          6           0        2.729435   -0.591978   -1.184687
     47          6           0        4.083225   -0.392178   -0.623229
     48          6           0        5.173395    0.288755   -0.965034
     49          6           0        5.110405    1.008091   -2.284652
     50          6           0        6.413281    0.256991   -0.145859
     51          6           0        7.624878   -0.332061   -0.894303
     52          6           0        8.896602   -0.411330    0.046740
     53          6           0       10.180370   -0.640064   -0.852407
     54          6           0       10.058041   -2.003486   -1.444414
     55          6           0       11.426957   -0.489123   -0.030116
     56          6           0       12.714519   -0.447387   -0.774863
     57          6           0       13.953030   -0.055946    0.180085
     58          6           0       15.365562   -0.142848   -0.437282
     59          6           0       15.808908   -1.527456   -0.940833
     60          6           0       16.403735    0.457869    0.494226
     61          6           0       17.828446    0.608576   -0.140244
     62          6           0       18.784364    1.283024    0.735293
     63          6           0       20.117767    1.390721    0.154697
     64          6           0       20.325064    2.254107   -1.082063
     65          6           0       21.058087    1.961768    1.203645
     66          1           0       -4.003653    3.489263    1.436619
     67          1           0      -10.076566    3.902007   -0.406375
     68          1           0      -10.222844   -2.508125   -1.488660
     69          1           0       -2.635057   -1.011995    1.908737
     70          1           0       -2.317215    1.420800    0.926895
     71          1           0       -2.065993    0.536246    3.706536
     72          1           0       -2.737115    2.347551    3.295815
     73          1           0       -3.943577    0.838916    3.614497
     74          1           0       -1.959908   -1.626477   -0.268945
     75          1           0       -2.073842    0.042665   -0.548137
     76          1           0       -0.321793    0.540182    1.315478
     77          1           0       -0.192371   -1.252344    1.392474
     78          1           0       -5.637965    6.831830    0.917009
     79          1           0       -5.593905    5.822662    2.247488
     80          1           0       -4.430651    5.417131    1.335840
     81          1           0       -9.399828    5.954591   -0.451751
     82          1           0       -9.129449    7.959650    0.687586
     83          1           0       -7.617538    7.359713    1.463274
     84          1           0      -11.605915    3.319313   -1.942319
     85          1           0      -13.178135    2.127546   -2.199278
     86          1           0      -12.747743    3.136292   -0.724412
     87          1           0      -12.499979   -1.519997   -0.940325
     88          1           0      -13.349147   -0.054626   -1.777600
     89          1           0      -12.787543   -2.147982   -3.378187
     90          1           0      -12.451526   -0.416177   -3.873023
     91          1           0      -11.133599   -1.451786   -3.273015
     92          1           0       -8.884735   -4.735250   -2.032251
     93          1           0       -7.887906   -5.696140   -0.793832
     94          1           0       -9.640058   -5.000471   -0.637773
     95          1           0       -3.302537   -3.255703   -0.157358
     96          1           0       -1.545716   -4.405921    3.256061
     97          1           0       -3.039088   -5.764017    3.722534
     98          1           0       -1.724171   -6.191468    2.809925
     99          1           0        2.293352   -1.574511   -1.505729
    100          1           0        2.616104    0.084818   -2.183367
    101          1           0        4.008732   -0.841296    0.360446
    102          1           0        4.063366    0.884603   -2.746197
    103          1           0        5.161637    2.259036   -2.109865
    104          1           0        5.885735    0.730108   -3.012146
    105          1           0        6.701359    1.258200   -0.040169
    106          1           0        6.156739   -0.116251    0.933754
    107          1           0        7.299862   -1.230064   -0.980257
    108          1           0        7.902362    0.300869   -1.722725
    109          1           0        9.033822    0.731647    0.568681
    110          1           0        8.604738   -0.980378    0.794659
    111          1           0       10.255965    0.213299   -1.562568
    112          1           0        9.119081   -2.010675   -1.958800
    113          1           0       10.894664   -2.374010   -1.904802
    114          1           0       10.025916   -2.640680   -0.621584
    115          1           0       11.278132    0.476905    0.364482
    116          1           0       11.285331   -1.181105    0.884680
    117          1           0       13.086666   -1.563911   -1.162480
    118          1           0       12.777506    0.126923   -1.657903
    119          1           0       13.807560    0.767009    0.931592
    120          1           0       13.817706   -0.761893    0.963081
    121          1           0       15.376973    0.511144   -1.346007
    122          1           0       15.899593   -2.252221   -0.217986
    123          1           0       15.003924   -1.896454   -1.692124
    124          1           0       16.710973   -1.590349   -1.508286
    125          1           0       15.956476    1.446970    0.772811
    126          1           0       16.521059   -0.068001    1.389120
    127          1           0       18.320973   -0.387466   -0.512005
    128          1           0       17.593347    1.082938   -1.119986
    129          1           0       18.253125    2.314560    1.093798
    130          1           0       19.041387    0.759568    1.717547
    131          1           0       20.488741    0.470326   -0.005375
    132          1           0       20.070877    3.310688   -0.929858
    133          1           0       21.317478    2.116786   -1.405411
    134          1           0       19.858788    1.892810   -1.931771
    135          1           0       21.054887    1.297011    2.105164
    136          1           0       22.119244    2.039503    0.917757
    137          1           0       20.769607    2.907594    1.609858
 ---------------------------------------------------------------------

 SCF Done:  E(RCAM-B3LYP) =  -2933.45665829     A.U. after   16 cycles

 Excitation energies and oscillator strengths:

 Excited State   1:      Singlet-A      1.9934 eV  621.98 nm  f=0.2695  <S**2>=0.000
     240 -> 243       -0.22145
     241 -> 242        0.67094
 This state for optimization and/or second-order correction.
 Total Energy, E(TD-HF/TD-DFT) =  -2933.38340313
 Copying the excited state density for this state as the 1-particle RhoCI density.

 The electronic state is 1-A.
 Alpha  occ. eigenvalues --  -46.79093 -19.21784 -19.20274 -19.17859 -19.15627
 Alpha  occ. eigenvalues --  -19.15454 -14.38176 -14.35468 -14.35419 -14.34593
 Alpha  occ. eigenvalues --  -10.35159 -10.33327 -10.30277 -10.27584 -10.27332
 Alpha  occ. eigenvalues --  -10.27245 -10.26149 -10.25873 -10.25557 -10.25511
 Alpha  occ. eigenvalues --  -10.25509 -10.24819 -10.24560 -10.24550 -10.24323
 Alpha  occ. eigenvalues --  -10.23889 -10.23674 -10.23663 -10.23589 -10.23461
 Alpha  occ. eigenvalues --  -10.23217 -10.23147 -10.22964 -10.22954 -10.22835
 Alpha  occ. eigenvalues --  -10.22592 -10.22362 -10.22230 -10.22121 -10.22120
 Alpha  occ. eigenvalues --  -10.21826 -10.21687 -10.21676 -10.21650 -10.21630
 Alpha  occ. eigenvalues --  -10.21602 -10.21533 -10.21437 -10.21331 -10.21235
 Alpha  occ. eigenvalues --  -10.21214 -10.21066 -10.21019 -10.20975 -10.20873
 Alpha  occ. eigenvalues --  -10.20688 -10.20666 -10.20269 -10.20260 -10.19899
 Alpha  occ. eigenvalues --  -10.19765 -10.19423 -10.19202 -10.18483 -10.18139
 Alpha  occ. eigenvalues --   -3.07826  -1.82757  -1.82286  -1.82253  -1.14125
 Alpha  occ. eigenvalues --   -1.09906  -1.05684  -1.04769  -1.01382  -0.99579
 Alpha  occ. eigenvalues --   -0.98518  -0.97987  -0.96592  -0.87790  -0.86865
 Alpha  occ. eigenvalues --   -0.86632  -0.86026  -0.85369  -0.85327  -0.84927
 Alpha  occ. eigenvalues --   -0.83829  -0.83578  -0.82939  -0.82410  -0.81851
 Alpha  occ. eigenvalues --   -0.81077  -0.80432  -0.79418  -0.78649  -0.78311
 Alpha  occ. eigenvalues --   -0.77402  -0.76577  -0.76264  -0.75565  -0.74383
 Alpha  occ. eigenvalues --   -0.73536  -0.72382  -0.71676  -0.71531  -0.71313
 Alpha  occ. eigenvalues --   -0.71035  -0.70654  -0.70272  -0.69368  -0.68659
 Alpha  occ. eigenvalues --   -0.67580  -0.66591  -0.65187  -0.64824  -0.64342
 Alpha  occ. eigenvalues --   -0.62868  -0.62512  -0.62335  -0.61348  -0.61231
 Alpha  occ. eigenvalues --   -0.60347  -0.59679  -0.58996  -0.58907  -0.58554
 Alpha  occ. eigenvalues --   -0.57811  -0.57244  -0.56716  -0.56442  -0.55626
 Alpha  occ. eigenvalues --   -0.55324  -0.54764  -0.53991  -0.53359  -0.53027
 Alpha  occ. eigenvalues --   -0.52630  -0.52182  -0.52003  -0.51640  -0.51442
 Alpha  occ. eigenvalues --   -0.51000  -0.50557  -0.49980  -0.49810  -0.49467
 Alpha  occ. eigenvalues --   -0.49252  -0.49016  -0.48744  -0.48560  -0.48514
 Alpha  occ. eigenvalues --   -0.48213  -0.47817  -0.47777  -0.47622  -0.47347
 Alpha  occ. eigenvalues --   -0.47001  -0.46734  -0.46603  -0.46487  -0.46128
 Alpha  occ. eigenvalues --   -0.45905  -0.45619  -0.45300  -0.45135  -0.44814
 Alpha  occ. eigenvalues --   -0.44672  -0.44406  -0.44203  -0.44075  -0.43678
 Alpha  occ. eigenvalues --   -0.43564  -0.43385  -0.43104  -0.43038  -0.42736
 Alpha  occ. eigenvalues --   -0.42650  -0.42199  -0.41979  -0.41867  -0.41486
 Alpha  occ. eigenvalues --   -0.41399  -0.41285  -0.40811  -0.40412  -0.40379
 Alpha  occ. eigenvalues --   -0.40258  -0.40153  -0.40049  -0.39955  -0.39633
 Alpha  occ. eigenvalues --   -0.39545  -0.39393  -0.39159  -0.38933  -0.38654
 Alpha  occ. eigenvalues --   -0.38629  -0.38323  -0.38187  -0.38076  -0.38053
 Alpha  occ. eigenvalues --   -0.37831  -0.37693  -0.37353  -0.37281  -0.36930
 Alpha  occ. eigenvalues --   -0.36616  -0.36459  -0.36439  -0.36041  -0.35947
 Alpha  occ. eigenvalues --   -0.35920  -0.35575  -0.35247  -0.35207  -0.34865
 Alpha  occ. eigenvalues --   -0.34741  -0.34559  -0.34380  -0.33963  -0.33938
 Alpha  occ. eigenvalues --   -0.33687  -0.33487  -0.33069  -0.32928  -0.32464
 Alpha  occ. eigenvalues --   -0.32072  -0.31813  -0.31709  -0.31619  -0.30827
 Alpha  occ. eigenvalues --   -0.30792  -0.30576  -0.29235  -0.28606  -0.27238
 Alpha  occ. eigenvalues --   -0.26710  -0.26610  -0.25971  -0.25679  -0.21973
 Alpha  occ. eigenvalues --   -0.20691
 Alpha virt. eigenvalues --   -0.08133  -0.03786  -0.00347   0.01608   0.02184
 Alpha virt. eigenvalues --    0.03603   0.03812   0.04354   0.05473   0.05826
 Alpha virt. eigenvalues --    0.06523   0.08228   0.08353   0.09054   0.09954

 Mulliken charges:
               1
     1  Mg   0.808857
     2  C    0.050724
     3  C   -0.173506
     4  C   -0.125354
     5  C   -0.186899
     6  N   -0.630653
     7  C    0.347436
     8  C   -0.129899
     9  C   -0.154104
    10  C    0.283784
    11  C   -0.292686
    12  C   -0.187207
    13  C   -0.288794
    14  C    0.648095
    15  O   -0.465715
    16  O   -0.472633
    17  N   -0.728289
    18  C    0.333914
    19  C    0.036894
    20  C   -0.025663
    21  C    0.341768
    22  C   -0.377114
    23  C   -0.031824
    24  C   -0.247253
    25  N   -0.723519
    26  C    0.263451
    27  C    0.034191
    28  C    0.081500
    29  C    0.337379
    30  C   -0.374567
    31  C   -0.244804
    32  C   -0.307976
    33  N   -0.740092
    34  C    0.292234
    35  C   -0.002731
    36  C    0.067704
    37  C    0.301820
    38  C   -0.405090
    39  C    0.344259
    40  O   -0.467871
    41  C   -0.328382
    42  C    0.648726
    43  O   -0.506313
    44  O   -0.479560
    45  C   -0.076081
    46  C    0.033625
    47  C   -0.130233
    48  C    0.159505
    49  C   -0.366138
    50  C   -0.250380
    51  C   -0.175639
    52  C   -0.169771
    53  C   -0.066906
    54  C   -0.299873
    55  C   -0.160687
    56  C   -0.173996
    57  C   -0.193699
    58  C   -0.047124
    59  C   -0.315654
    60  C   -0.176018
    61  C   -0.174490
    62  C   -0.132170
    63  C   -0.051093
    64  C   -0.307740
    65  C   -0.320890
    66  H    0.075084
    67  H    0.057691
    68  H    0.097888
    69  H    0.110665
    70  H    0.102404
    71  H    0.113323
    72  H    0.108551
    73  H    0.129307
    74  H    0.119043
    75  H    0.124366
    76  H    0.100656
    77  H    0.139584
    78  H    0.126963
    79  H    0.151937
    80  H    0.088197
    81  H    0.093217
    82  H    0.086176
    83  H    0.098215
    84  H    0.129268
    85  H    0.078615
    86  H    0.110638
    87  H    0.109682
    88  H    0.084557
    89  H    0.095829
    90  H    0.103672
    91  H    0.124345
    92  H    0.133558
    93  H    0.132341
    94  H    0.096459
    95  H    0.151363
    96  H    0.131813
    97  H    0.139352
    98  H    0.122128
    99  H    0.114796
   100  H    0.082506
   101  H    0.075180
   102  H    0.107603
   103  H    0.078683
   104  H    0.123573
   105  H    0.108822
   106  H    0.090405
   107  H    0.122741
   108  H    0.106041
   109  H    0.040182
   110  H    0.102949
   111  H    0.076021
   112  H    0.106765
   113  H    0.105698
   114  H    0.102914
   115  H    0.098359
   116  H    0.077748
   117  H    0.065780
   118  H    0.103167
   119  H    0.080216
   120  H    0.097524
   121  H    0.076512
   122  H    0.111539
   123  H    0.078950
   124  H    0.107134
   125  H    0.083448
   126  H    0.095569
   127  H    0.071589
   128  H    0.093396
   129  H    0.060621
   130  H    0.080315
   131  H    0.097834
   132  H    0.101093
   133  H    0.101284
   134  H    0.098462
   135  H    0.081021
   136  H    0.092023
   137  H    0.105862
 Sum of Mulliken charges =  -0.00000

 Dipole moment (field-independent basis, Debye):
    X=              1.3456    Y=              5.3709    Z=              1.1392  Tot=              5.6529
 Quadrupole moment (field-independent basis, Debye-Ang):
   XX=           -343.6777   YY=           -393.8079   ZZ=           -398.4744
   XY=            -37.9493   XZ=              7.3918   YZ=              1.8482

 Normal termination of Gaussian 16 at Mon Sep 16 21:33:05 2019.
