 Gaussian 16, Revision A.03,
 Gaussian 16:  ES64L-G16RevA.03 25-Dec-2016

 -------------------------------------
 # td=(NStates=1) CAM-B3LYP/6-31G(d,p)
 -------------------------------------

 --
 TD
 --
 Symbolic Z-matrix:
 Charge =  0 Multiplicity = 1

                         Standard orientation:
 ---------------------------------------------------------------------
 Center     Atomic      Atomic             Coordinates (Angstroms)
 Number     Number       Type             X           Y           Z
 ---------------------------------------------------------------------
      1         12           0       -7.159730    0.608195    0.133917
      2          6           0       -4.857707   -1.893629    0.566243
      3          6           0       -4.948164    2.776221    1.168948
      4          6           0       -9.485221    3.141637   -0.460982
      5          6           0       -9.501671   -1.726779   -0.938724
      6          7           0       -5.052169    0.471123    0.747776
      7          6           0       -4.289196   -0.661825    0.868416
      8          6           0       -2.943957   -0.317925    1.342814
      9          6           0       -3.028771    1.101187    1.809894
     10          6           0       -4.386308    1.547919    1.216916
     11          6           0       -3.117909    1.222096    3.394342
     12          6           0       -1.941852   -0.535802    0.186347
     13          6           0       -0.421403   -0.500175    0.670109
     14          6           0        0.548293   -0.740130   -0.485190
     15          8           0        0.267397   -1.007802   -1.679960
     16          8           0        1.830746   -0.560512    0.008071
     17          7           0       -7.164878    2.488722    0.319196
     18          6           0       -6.089224    3.301362    0.814282
     19          6           0       -6.446339    4.717143    0.816420
     20          6           0       -7.701854    4.783562    0.205340
     21          6           0       -8.140477    3.431393   -0.042373
     22          6           0       -5.576089    5.895632    1.135257
     23          6           0       -8.445984    5.987569    0.005341
     24          6           0       -8.535594    7.113058    0.778002
     25          7           0       -9.147920    0.663749   -0.527556
     26          6           0       -9.970904    1.824861   -0.621841
     27          6           0      -11.262864    1.373286   -1.082190
     28          6           0      -11.271877    0.000886   -1.158988
     29          6           0       -9.985442   -0.425348   -0.901854
     30          6           0      -12.341840    2.369287   -1.524808
     31          6           0      -12.444003   -0.784373   -1.785485
     32          6           0      -12.445305   -0.896558   -3.252065
     33          7           0       -7.203210   -1.306304   -0.203029
     34          6           0       -8.199397   -2.193530   -0.552434
     35          6           0       -7.780615   -3.555110   -0.578900
     36          6           0       -6.420660   -3.444380   -0.205186
     37          6           0       -6.164627   -2.094518    0.095510
     38          6           0       -8.700875   -4.749077   -0.971572
     39          6           0       -5.277941   -4.297798    0.090060
     40          8           0       -5.183523   -5.568200    0.103747
     41          6           0       -4.199773   -3.271743    0.577872
     42          6           0       -3.578533   -3.789800    1.873186
     43          8           0       -3.760692   -3.222735    2.980358
     44          8           0       -2.494609   -4.666421    1.631174
     45          6           0       -2.059052   -5.151704    2.917329
     46          6           0        2.797274   -0.609202   -1.109218
     47          6           0        4.133844   -0.475763   -0.539492
     48          6           0        5.162654    0.264975   -0.995266
     49          6           0        5.055218    1.093225   -2.261684
     50          6           0        6.548894    0.326748   -0.214188
     51          6           0        7.742805   -0.261969   -0.904934
     52          6           0        8.966075   -0.114009   -0.148097
     53          6           0       10.126469   -0.585544   -0.897401
     54          6           0       10.066085   -2.014833   -1.331514
     55          6           0       11.468199   -0.353797    0.119764
     56          6           0       12.854093   -0.520522   -0.649499
     57          6           0       13.946413   -0.137193    0.265029
     58          6           0       15.413080   -0.356630   -0.416044
     59          6           0       15.647536   -1.731348   -0.643751
     60          6           0       16.527393    0.396539    0.435530
     61          6           0       17.824983    0.682299   -0.321105
     62          6           0       18.776416    1.346189    0.647409
     63          6           0       20.298839    1.536984    0.172792
     64          6           0       20.431799    2.187251   -1.334036
     65          6           0       21.152640    2.057840    1.170483
     66          1           0       -4.332711    3.512437    1.622826
     67          1           0      -10.283338    3.957096   -0.697399
     68          1           0      -10.291247   -2.414996   -1.342239
     69          1           0       -2.608808   -0.754663    2.242527
     70          1           0       -2.362363    1.830912    1.753220
     71          1           0       -2.304232    0.871224    3.894902
     72          1           0       -3.144193    2.277162    3.600056
     73          1           0       -4.020415    0.702633    3.683738
     74          1           0       -2.127415   -1.669959    0.042633
     75          1           0       -2.103192    0.315686   -0.663728
     76          1           0        0.021056    0.405527    1.215473
     77          1           0       -0.058559   -1.376778    1.500129
     78          1           0       -6.022248    6.831103    0.755555
     79          1           0       -5.381904    6.137780    2.174216
     80          1           0       -4.506865    5.771467    0.906579
     81          1           0       -9.137658    5.998094   -0.872934
     82          1           0       -9.074657    7.954634    0.498745
     83          1           0       -7.898877    7.097723    1.695858
     84          1           0      -12.154021    2.899444   -2.620178
     85          1           0      -13.145519    1.953800   -1.756981
     86          1           0      -12.453700    3.172488   -0.583620
     87          1           0      -12.551537   -1.888097   -1.380478
     88          1           0      -13.260900   -0.223194   -1.441622
     89          1           0      -13.417021   -1.321179   -3.411862
     90          1           0      -12.385019   -0.064264   -3.902010
     91          1           0      -11.540843   -1.815949   -3.465441
     92          1           0       -9.310354   -4.791535   -1.912076
     93          1           0       -8.209062   -5.624279   -0.943587
     94          1           0       -9.600226   -5.049261   -0.328003
     95          1           0       -3.181306   -3.358820   -0.048915
     96          1           0       -1.374312   -4.299824    3.337367
     97          1           0       -2.801557   -5.391869    3.514989
     98          1           0       -1.453363   -5.838683    2.610475
     99          1           0        2.563481   -1.645654   -1.575842
    100          1           0        2.544622    0.054427   -1.928705
    101          1           0        3.995240   -1.054134    0.301863
    102          1           0        3.921734    1.063540   -2.701214
    103          1           0        5.131390    2.176740   -2.180977
    104          1           0        5.695313    0.905245   -2.959910
    105          1           0        6.678317    1.509447   -0.121850
    106          1           0        6.539178   -0.231248    0.660640
    107          1           0        7.344527   -1.230025   -1.240425
    108          1           0        7.950228    0.365113   -1.955290
    109          1           0        8.998822    1.006047    0.034576
    110          1           0        8.966002   -0.705983    0.654320
    111          1           0       10.468568   -0.016716   -1.650061
    112          1           0        9.421183   -2.005724   -2.448575
    113          1           0       10.948003   -2.644931   -1.610687
    114          1           0        9.656759   -2.435632   -0.236846
    115          1           0       11.467569    0.537850    0.583559
    116          1           0       11.423053   -1.105005    0.876464
    117          1           0       12.892366   -1.549009   -0.986377
    118          1           0       12.901522    0.104010   -1.655131
    119          1           0       13.822820    1.176553    0.457125
    120          1           0       14.097916   -0.580421    1.311110
    121          1           0       15.494761    0.326341   -1.195399
    122          1           0       15.658863   -2.249951    0.248239
    123          1           0       14.769876   -2.028856   -1.252763
    124          1           0       16.503542   -1.926323   -1.394202
    125          1           0       16.091504    1.272811    0.940324
    126          1           0       16.847674   -0.442350    1.337539
    127          1           0       18.258244   -0.286247   -0.760845
    128          1           0       17.537081    1.091866   -1.125099
    129          1           0       18.247864    2.171150    0.951775
    130          1           0       18.802968    0.755990    1.664876
    131          1           0       20.614293    0.651265   -0.142416
    132          1           0       20.248426    3.374255   -1.206006
    133          1           0       21.481515    1.945741   -1.996068
    134          1           0       19.585340    1.889298   -1.977864
    135          1           0       21.597826    1.336668    2.075258
    136          1           0       22.058352    2.434870    0.578716
    137          1           0       20.703626    3.140275    1.550277
 ---------------------------------------------------------------------

 SCF Done:  E(RCAM-B3LYP) =  -2932.48593553     A.U. after   18 cycles

 Excitation energies and oscillator strengths:

 Excited State   1:      Singlet-A      2.0561 eV  603.01 nm  f=0.2062  <S**2>=0.000
     240 -> 243       -0.27201
     241 -> 242        0.64446
 This state for optimization and/or second-order correction.
 Total Energy, E(TD-HF/TD-DFT) =  -2932.41037506
 Copying the excited state density for this state as the 1-particle RhoCI density.

 The electronic state is 1-A.
 Alpha  occ. eigenvalues --  -46.82824 -19.26417 -19.26224 -19.21417 -19.21387
 Alpha  occ. eigenvalues --  -19.19866 -14.41902 -14.39714 -14.39583 -14.38481
 Alpha  occ. eigenvalues --  -10.39908 -10.39846 -10.35163 -10.31131 -10.31006
 Alpha  occ. eigenvalues --  -10.30703 -10.30641 -10.30273 -10.30136 -10.29770
 Alpha  occ. eigenvalues --  -10.29691 -10.29081 -10.29032 -10.28937 -10.28848
 Alpha  occ. eigenvalues --  -10.28689 -10.28402 -10.28111 -10.28110 -10.28066
 Alpha  occ. eigenvalues --  -10.28035 -10.27943 -10.27833 -10.27686 -10.27676
 Alpha  occ. eigenvalues --  -10.27603 -10.27504 -10.27215 -10.27074 -10.27030
 Alpha  occ. eigenvalues --  -10.26964 -10.26759 -10.26736 -10.26536 -10.26485
 Alpha  occ. eigenvalues --  -10.26477 -10.26298 -10.26081 -10.25960 -10.25887
 Alpha  occ. eigenvalues --  -10.25849 -10.25724 -10.25652 -10.25378 -10.25363
 Alpha  occ. eigenvalues --  -10.25225 -10.25182 -10.25064 -10.25043 -10.24780
 Alpha  occ. eigenvalues --  -10.24689 -10.24353 -10.24280 -10.23898 -10.23789
 Alpha  occ. eigenvalues --   -3.12274  -1.86932  -1.86556  -1.86469  -1.16304
 Alpha  occ. eigenvalues --   -1.16008  -1.07582  -1.07537  -1.07356  -1.05319
 Alpha  occ. eigenvalues --   -1.04243  -1.02146  -1.00537  -0.92823  -0.92429
 Alpha  occ. eigenvalues --   -0.90784  -0.90577  -0.89885  -0.89702  -0.89396
 Alpha  occ. eigenvalues --   -0.88565  -0.88412  -0.87203  -0.86741  -0.86113
 Alpha  occ. eigenvalues --   -0.85357  -0.84522  -0.83855  -0.83194  -0.82823
 Alpha  occ. eigenvalues --   -0.82509  -0.81573  -0.81033  -0.80548  -0.78952
 Alpha  occ. eigenvalues --   -0.78714  -0.77566  -0.76884  -0.76282  -0.75731
 Alpha  occ. eigenvalues --   -0.74653  -0.73815  -0.73665  -0.73432  -0.73072
 Alpha  occ. eigenvalues --   -0.71983  -0.70503  -0.69335  -0.68937  -0.68731
 Alpha  occ. eigenvalues --   -0.67747  -0.66575  -0.65764  -0.65663  -0.64425
 Alpha  occ. eigenvalues --   -0.64112  -0.63942  -0.63705  -0.63531  -0.62030
 Alpha  occ. eigenvalues --   -0.61732  -0.61339  -0.61124  -0.60344  -0.59217
 Alpha  occ. eigenvalues --   -0.59052  -0.58156  -0.58036  -0.57184  -0.56839
 Alpha  occ. eigenvalues --   -0.56310  -0.56002  -0.55244  -0.55100  -0.54963
 Alpha  occ. eigenvalues --   -0.54403  -0.53870  -0.53563  -0.53183  -0.52932
 Alpha  occ. eigenvalues --   -0.52885  -0.52616  -0.52426  -0.52190  -0.51962
 Alpha  occ. eigenvalues --   -0.51679  -0.51097  -0.50688  -0.50565  -0.50209
 Alpha  occ. eigenvalues --   -0.49943  -0.49845  -0.49602  -0.49555  -0.49280
 Alpha  occ. eigenvalues --   -0.49190  -0.48815  -0.48763  -0.48387  -0.48174
 Alpha  occ. eigenvalues --   -0.48125  -0.47969  -0.47602  -0.47468  -0.47404
 Alpha  occ. eigenvalues --   -0.47268  -0.46913  -0.46367  -0.46311  -0.45973
 Alpha  occ. eigenvalues --   -0.45818  -0.45673  -0.45305  -0.45100  -0.44983
 Alpha  occ. eigenvalues --   -0.44853  -0.44620  -0.44552  -0.44121  -0.43978
 Alpha  occ. eigenvalues --   -0.43863  -0.43630  -0.43364  -0.43167  -0.43087
 Alpha  occ. eigenvalues --   -0.42959  -0.42725  -0.42634  -0.42587  -0.42399
 Alpha  occ. eigenvalues --   -0.42348  -0.42074  -0.41875  -0.41802  -0.41629
 Alpha  occ. eigenvalues --   -0.41378  -0.40906  -0.40840  -0.40634  -0.40632
 Alpha  occ. eigenvalues --   -0.40437  -0.40177  -0.39600  -0.39482  -0.39014
 Alpha  occ. eigenvalues --   -0.38903  -0.38706  -0.38500  -0.38099  -0.37813
 Alpha  occ. eigenvalues --   -0.37619  -0.37431  -0.37020  -0.36831  -0.36561
 Alpha  occ. eigenvalues --   -0.36351  -0.36097  -0.35979  -0.35462  -0.35270
 Alpha  occ. eigenvalues --   -0.35139  -0.34775  -0.33892  -0.33681  -0.33426
 Alpha  occ. eigenvalues --   -0.33367  -0.32266  -0.31636  -0.31228  -0.29979
 Alpha  occ. eigenvalues --   -0.29548  -0.29533  -0.28139  -0.27477  -0.23135
 Alpha  occ. eigenvalues --   -0.21566
 Alpha virt. eigenvalues --   -0.06738  -0.03598   0.00747   0.03529   0.04147
 Alpha virt. eigenvalues --    0.04808   0.05704   0.06106   0.06436   0.07224
 Alpha virt. eigenvalues --    0.07797   0.09663   0.10472   0.10748   0.11142

 Mulliken charges:
               1
     1  Mg   0.821713
     2  C    0.089252
     3  C   -0.238835
     4  C   -0.195721
     5  C   -0.170593
     6  N   -0.633749
     7  C    0.302506
     8  C   -0.145163
     9  C   -0.140263
    10  C    0.364835
    11  C   -0.333208
    12  C   -0.144117
    13  C   -0.279453
    14  C    0.633014
    15  O   -0.491733
    16  O   -0.504190
    17  N   -0.757634
    18  C    0.333509
    19  C    0.066306
    20  C    0.014431
    21  C    0.330131
    22  C   -0.394887
    23  C   -0.107245
    24  C   -0.236515
    25  N   -0.694215
    26  C    0.303891
    27  C   -0.007525
    28  C    0.025306
    29  C    0.296486
    30  C   -0.327126
    31  C   -0.233402
    32  C   -0.267632
    33  N   -0.726377
    34  C    0.242453
    35  C    0.068406
    36  C   -0.038259
    37  C    0.333767
    38  C   -0.384185
    39  C    0.378686
    40  O   -0.497226
    41  C   -0.359371
    42  C    0.629974
    43  O   -0.479017
    44  O   -0.480130
    45  C   -0.050496
    46  C    0.006650
    47  C   -0.111559
    48  C    0.098212
    49  C   -0.366687
    50  C   -0.205498
    51  C   -0.170799
    52  C   -0.130223
    53  C   -0.073420
    54  C   -0.274191
    55  C   -0.199948
    56  C   -0.177787
    57  C   -0.160175
    58  C   -0.060714
    59  C   -0.288845
    60  C   -0.185663
    61  C   -0.162949
    62  C   -0.173089
    63  C   -0.025442
    64  C   -0.323576
    65  C   -0.298203
    66  H    0.060097
    67  H    0.104720
    68  H    0.091907
    69  H    0.134978
    70  H    0.103873
    71  H    0.123029
    72  H    0.105961
    73  H    0.131360
    74  H    0.119287
    75  H    0.123782
    76  H    0.137250
    77  H    0.118017
    78  H    0.128635
    79  H    0.121674
    80  H    0.118215
    81  H    0.091525
    82  H    0.113641
    83  H    0.102816
    84  H    0.093173
    85  H    0.114386
    86  H    0.097032
    87  H    0.093808
    88  H    0.112915
    89  H    0.112592
    90  H    0.118748
    91  H    0.064863
    92  H    0.119211
    93  H    0.152275
    94  H    0.113756
    95  H    0.168248
    96  H    0.098789
    97  H    0.145152
    98  H    0.126066
    99  H    0.124302
   100  H    0.122264
   101  H    0.099048
   102  H    0.087298
   103  H    0.116543
   104  H    0.137549
   105  H    0.079453
   106  H    0.106649
   107  H    0.110359
   108  H    0.047365
   109  H    0.097594
   110  H    0.095486
   111  H    0.094436
   112  H    0.074846
   113  H    0.112720
   114  H    0.070339
   115  H    0.099412
   116  H    0.088870
   117  H    0.103735
   118  H    0.081736
   119  H    0.033148
   120  H    0.095049
   121  H    0.086722
   122  H    0.112548
   123  H    0.096384
   124  H    0.093331
   125  H    0.091621
   126  H    0.033474
   127  H    0.077361
   128  H    0.103793
   129  H    0.099901
   130  H    0.081649
   131  H    0.113091
   132  H    0.078732
   133  H    0.079800
   134  H    0.112290
   135  H    0.091194
   136  H    0.099583
   137  H    0.076051
 Sum of Mulliken charges =  -0.00000

 Dipole moment (field-independent basis, Debye):
    X=              0.8250    Y=              5.7715    Z=              0.5567  Tot=              5.8567
 Quadrupole moment (field-independent basis, Debye-Ang):
   XX=           -346.5190   YY=           -394.7203   ZZ=           -396.5824
   XY=            -33.3004   XZ=              5.2369   YZ=             -1.7775

 Normal termination of Gaussian 16 at Fri Jun 28 19:22:08 2019.
