 Gaussian 09, Revision D.01,
 Gaussian 09:  ES64L-G09RevD.01 24-Apr-2013

 -------------------------------------
 # td=(NStates=1) CAM-B3LYP/6-31G(d,p)
 -------------------------------------

 --
 TD
 --
 Symbolic Z-matrix:
 Charge =  0 Multiplicity = 1

                         Standard orientation:
 ---------------------------------------------------------------------
 Center     Atomic      Atomic             Coordinates (Angstroms)
 Number     Number       Type             X           Y           Z
 ---------------------------------------------------------------------
      1         12           0       -7.088819    0.574713   -0.011353
      2          6           0       -4.850539   -1.883213    0.547873
      3          6           0       -4.863492    2.844740    1.238468
      4          6           0       -9.416297    3.001215   -0.549678
      5          6           0       -9.444483   -1.857719   -0.941810
      6          7           0       -5.085605    0.462883    0.728152
      7          6           0       -4.407660   -0.638849    0.883277
      8          6           0       -2.935019   -0.288832    1.260203
      9          6           0       -3.055074    1.167383    1.825063
     10          6           0       -4.428681    1.579813    1.264064
     11          6           0       -3.167427    1.213124    3.315431
     12          6           0       -1.894638   -0.530994    0.107876
     13          6           0       -0.477494   -0.187520    0.523335
     14          6           0        0.427862   -0.467365   -0.646208
     15          8           0        0.174780   -0.802696   -1.737560
     16          8           0        1.786483   -0.358692   -0.174619
     17          7           0       -7.155992    2.579191    0.327614
     18          6           0       -6.115937    3.374813    0.723439
     19          6           0       -6.447628    4.801642    0.738955
     20          6           0       -7.786806    4.835520    0.297170
     21          6           0       -8.184010    3.507355    0.066405
     22          6           0       -5.652774    5.879805    1.209622
     23          6           0       -8.632601    5.922974    0.205836
     24          6           0       -8.545971    7.235509    0.658710
     25          7           0       -9.105212    0.585172   -0.632838
     26          6           0       -9.874628    1.695713   -0.792690
     27          6           0      -11.281534    1.334451   -1.088215
     28          6           0      -11.181004   -0.041306   -1.338901
     29          6           0       -9.851403   -0.497699   -1.025724
     30          6           0      -12.325195    2.217425   -1.400876
     31          6           0      -12.387762   -0.825509   -1.783459
     32          6           0      -12.306145   -1.079527   -3.337174
     33          7           0       -7.157448   -1.345382   -0.230707
     34          6           0       -8.138380   -2.271317   -0.495651
     35          6           0       -7.766120   -3.638158   -0.430162
     36          6           0       -6.496077   -3.595774   -0.104977
     37          6           0       -6.184813   -2.145221    0.170960
     38          6           0       -8.663424   -4.800464   -0.652314
     39          6           0       -5.208371   -4.399813    0.187558
     40          8           0       -5.098815   -5.597144    0.239785
     41          6           0       -4.065471   -3.254414    0.611533
     42          6           0       -3.567520   -3.626177    1.912176
     43          8           0       -3.720750   -3.041198    2.984116
     44          8           0       -2.775856   -4.725243    1.810613
     45          6           0       -2.152057   -5.075375    3.092304
     46          6           0        2.823531   -0.588936   -1.192990
     47          6           0        4.134015   -0.429715   -0.576419
     48          6           0        5.140922    0.362473   -0.949432
     49          6           0        5.049073    1.201413   -2.303050
     50          6           0        6.477265    0.396885   -0.213415
     51          6           0        7.620988   -0.234068   -0.983162
     52          6           0        9.007363   -0.147936   -0.110428
     53          6           0       10.251962   -0.605293   -0.806995
     54          6           0       10.205868   -2.096520   -1.270124
     55          6           0       11.577415   -0.339238   -0.075461
     56          6           0       12.866917   -0.525797   -0.751982
     57          6           0       14.012361   -0.124212    0.148550
     58          6           0       15.430887   -0.177314   -0.601393
     59          6           0       15.758209   -1.643613   -1.066340
     60          6           0       16.477308    0.410133    0.354104
     61          6           0       17.811308    0.507812   -0.211216
     62          6           0       18.697415    1.201149    0.806767
     63          6           0       20.137507    1.377088    0.246451
     64          6           0       20.391540    2.230673   -0.919256
     65          6           0       21.098648    1.921745    1.351703
     66          1           0       -4.121880    3.625362    1.573595
     67          1           0      -10.049161    3.836758   -0.795320
     68          1           0      -10.130320   -2.603519   -1.047666
     69          1           0       -2.723922   -1.243402    2.005531
     70          1           0       -2.196924    1.718347    1.425947
     71          1           0       -2.205832    1.179333    3.687530
     72          1           0       -3.434303    2.235168    3.534195
     73          1           0       -3.827981    0.603636    3.831888
     74          1           0       -1.829186   -1.531268   -0.253188
     75          1           0       -2.188994    0.165888   -0.647547
     76          1           0       -0.266646    0.582255    1.399585
     77          1           0       -0.296558   -1.083477    1.137825
     78          1           0       -6.061366    6.770748    0.650787
     79          1           0       -6.015963    6.076209    2.239775
     80          1           0       -4.646209    5.801681    1.160753
     81          1           0       -9.328365    5.770756   -0.622818
     82          1           0       -9.189436    8.206452    0.369407
     83          1           0       -7.687575    7.472775    1.500837
     84          1           0      -12.339551    2.867328   -2.071321
     85          1           0      -13.090734    1.486700   -1.767778
     86          1           0      -12.650554    2.848616   -0.383445
     87          1           0      -12.468513   -1.805472   -1.080507
     88          1           0      -13.253080   -0.161156   -1.858473
     89          1           0      -12.932544   -1.839914   -3.764154
     90          1           0      -12.553319   -0.006184   -3.768703
     91          1           0      -11.223034   -1.512623   -3.864286
     92          1           0       -8.991287   -5.067777   -1.805230
     93          1           0       -8.272842   -5.758488   -0.630499
     94          1           0       -9.654756   -4.956545   -0.163565
     95          1           0       -3.348844   -3.448015    0.002960
     96          1           0       -1.844579   -4.183413    3.667135
     97          1           0       -2.951324   -5.777377    3.671463
     98          1           0       -1.124320   -5.623760    2.930899
     99          1           0        2.701545   -1.487975   -1.481482
    100          1           0        2.607757    0.157770   -1.927228
    101          1           0        4.214350   -1.189543    0.367151
    102          1           0        3.872186    1.327149   -2.681878
    103          1           0        5.526641    2.058899   -2.069912
    104          1           0        5.475318    0.720272   -3.078345
    105          1           0        6.813751    1.403123   -0.028544
    106          1           0        6.480684   -0.053083    0.953454
    107          1           0        7.348430   -1.309965   -1.106247
    108          1           0        7.651207    0.096180   -1.882220
    109          1           0        9.320106    0.837235    0.429010
    110          1           0        8.624609   -0.798294    0.726730
    111          1           0       10.437160   -0.021082   -1.751206
    112          1           0        9.259906   -2.257307   -1.837806
    113          1           0       11.157346   -2.580568   -2.030273
    114          1           0       10.136965   -2.893718   -0.488416
    115          1           0       11.579149    0.609555    0.663214
    116          1           0       11.418119   -1.014728    0.832755
    117          1           0       13.030396   -1.363592   -1.162427
    118          1           0       12.983576    0.136550   -1.708713
    119          1           0       13.827451    0.880459    0.730732
    120          1           0       13.937135   -1.052692    1.031104
    121          1           0       15.200288    0.542070   -1.511430
    122          1           0       15.650144   -2.292721   -0.304426
    123          1           0       14.915799   -2.020566   -1.869122
    124          1           0       16.665401   -1.897530   -1.838039
    125          1           0       15.986173    1.285337    0.831324
    126          1           0       16.489863   -0.466376    1.066113
    127          1           0       18.451446   -0.398327   -0.644353
    128          1           0       17.753541    1.305092   -1.261941
    129          1           0       18.426906    2.185302    1.008622
    130          1           0       18.817675    0.636813    1.796954
    131          1           0       20.588630    0.320487    0.119298
    132          1           0       20.018902    3.213754   -0.684788
    133          1           0       21.472627    2.295731   -1.076554
    134          1           0       19.938326    2.027796   -2.054174
    135          1           0       21.116954    1.402280    2.169107
    136          1           0       22.039641    2.219023    0.879122
    137          1           0       20.781135    2.903995    1.651221
 ---------------------------------------------------------------------

 SCF Done:  E(RCAM-B3LYP) =  -2932.52130638     A.U. after   15 cycles

 Excitation energies and oscillator strengths:

 Excited State   1:      Singlet-A      1.9929 eV  622.12 nm  f=0.3122  <S**2>=0.000
     240 -> 243        0.22787
     241 -> 242        0.66325
 This state for optimization and/or second-order correction.
 Total Energy, E(TD-HF/TD-KS) =  -2932.44806765
 Copying the excited state density for this state as the 1-particle RhoCI density.

 The electronic state is 1-A.
 Alpha  occ. eigenvalues --  -46.84316 -19.26524 -19.23358 -19.22897 -19.22491
 Alpha  occ. eigenvalues --  -19.20639 -14.40990 -14.40346 -14.39589 -14.39256
 Alpha  occ. eigenvalues --  -10.39596 -10.39034 -10.37688 -10.32982 -10.30306
 Alpha  occ. eigenvalues --  -10.30157 -10.29843 -10.29732 -10.29524 -10.29066
 Alpha  occ. eigenvalues --  -10.29020 -10.28966 -10.28818 -10.28759 -10.28518
 Alpha  occ. eigenvalues --  -10.28461 -10.28439 -10.28021 -10.27986 -10.27944
 Alpha  occ. eigenvalues --  -10.27858 -10.27694 -10.27608 -10.27519 -10.27385
 Alpha  occ. eigenvalues --  -10.27359 -10.27258 -10.27201 -10.27137 -10.27121
 Alpha  occ. eigenvalues --  -10.26982 -10.26875 -10.26836 -10.26786 -10.26722
 Alpha  occ. eigenvalues --  -10.26456 -10.26376 -10.26353 -10.26350 -10.26164
 Alpha  occ. eigenvalues --  -10.25987 -10.25928 -10.25925 -10.25852 -10.25814
 Alpha  occ. eigenvalues --  -10.25750 -10.25309 -10.25274 -10.25167 -10.25067
 Alpha  occ. eigenvalues --  -10.25012 -10.24669 -10.23914 -10.23651 -10.22541
 Alpha  occ. eigenvalues --   -3.13459  -1.88153  -1.87721  -1.87635  -1.17779
 Alpha  occ. eigenvalues --   -1.17635  -1.13424  -1.08405  -1.08095  -1.06230
 Alpha  occ. eigenvalues --   -1.03953  -1.02836  -1.01980  -0.91919  -0.91014
 Alpha  occ. eigenvalues --   -0.90597  -0.90251  -0.89944  -0.89825  -0.89581
 Alpha  occ. eigenvalues --   -0.89169  -0.88307  -0.88085  -0.87581  -0.86254
 Alpha  occ. eigenvalues --   -0.85783  -0.84611  -0.83929  -0.83590  -0.82362
 Alpha  occ. eigenvalues --   -0.81368  -0.80790  -0.80279  -0.79902  -0.78609
 Alpha  occ. eigenvalues --   -0.78021  -0.77071  -0.76344  -0.75660  -0.75580
 Alpha  occ. eigenvalues --   -0.75382  -0.75284  -0.73791  -0.73159  -0.72692
 Alpha  occ. eigenvalues --   -0.71609  -0.70462  -0.69152  -0.68747  -0.68322
 Alpha  occ. eigenvalues --   -0.67198  -0.66956  -0.65172  -0.64520  -0.64503
 Alpha  occ. eigenvalues --   -0.63888  -0.63269  -0.62321  -0.62208  -0.61993
 Alpha  occ. eigenvalues --   -0.61109  -0.60929  -0.60479  -0.59924  -0.59279
 Alpha  occ. eigenvalues --   -0.59174  -0.58794  -0.58490  -0.57586  -0.57190
 Alpha  occ. eigenvalues --   -0.56394  -0.55803  -0.55486  -0.54940  -0.54542
 Alpha  occ. eigenvalues --   -0.54461  -0.53950  -0.53822  -0.53704  -0.53353
 Alpha  occ. eigenvalues --   -0.53291  -0.52960  -0.52631  -0.51882  -0.51777
 Alpha  occ. eigenvalues --   -0.51480  -0.51257  -0.51198  -0.50768  -0.50715
 Alpha  occ. eigenvalues --   -0.50521  -0.50259  -0.50166  -0.49994  -0.49536
 Alpha  occ. eigenvalues --   -0.49182  -0.49112  -0.49031  -0.48560  -0.48369
 Alpha  occ. eigenvalues --   -0.48301  -0.48057  -0.47869  -0.47838  -0.47457
 Alpha  occ. eigenvalues --   -0.47051  -0.46971  -0.46799  -0.46681  -0.46148
 Alpha  occ. eigenvalues --   -0.46026  -0.45784  -0.45639  -0.45510  -0.45329
 Alpha  occ. eigenvalues --   -0.45167  -0.44816  -0.44506  -0.44378  -0.44005
 Alpha  occ. eigenvalues --   -0.43950  -0.43784  -0.43545  -0.43244  -0.43083
 Alpha  occ. eigenvalues --   -0.42802  -0.42655  -0.42560  -0.42456  -0.42444
 Alpha  occ. eigenvalues --   -0.42002  -0.41944  -0.41520  -0.41409  -0.41172
 Alpha  occ. eigenvalues --   -0.41106  -0.40915  -0.40777  -0.40267  -0.39927
 Alpha  occ. eigenvalues --   -0.39800  -0.39575  -0.39386  -0.39229  -0.38647
 Alpha  occ. eigenvalues --   -0.38556  -0.38492  -0.38463  -0.38030  -0.37543
 Alpha  occ. eigenvalues --   -0.37404  -0.37244  -0.37220  -0.36514  -0.36442
 Alpha  occ. eigenvalues --   -0.35780  -0.35740  -0.35530  -0.35442  -0.34992
 Alpha  occ. eigenvalues --   -0.34811  -0.34692  -0.34414  -0.33737  -0.33709
 Alpha  occ. eigenvalues --   -0.33322  -0.33244  -0.32198  -0.31266  -0.31076
 Alpha  occ. eigenvalues --   -0.30520  -0.30160  -0.27653  -0.26480  -0.23027
 Alpha  occ. eigenvalues --   -0.20987
 Alpha virt. eigenvalues --   -0.06639  -0.02816   0.01353   0.03644   0.05459
 Alpha virt. eigenvalues --    0.05620   0.06202   0.06478   0.06910   0.07236
 Alpha virt. eigenvalues --    0.08466   0.10683   0.11229   0.11588   0.11647

 Mulliken charges:
               1
     1  Mg   0.823845
     2  C    0.010726
     3  C   -0.198495
     4  C   -0.178300
     5  C   -0.158408
     6  N   -0.647357
     7  C    0.347402
     8  C   -0.165465
     9  C   -0.160261
    10  C    0.323600
    11  C   -0.291058
    12  C   -0.171407
    13  C   -0.295527
    14  C    0.624775
    15  O   -0.432471
    16  O   -0.551309
    17  N   -0.679963
    18  C    0.283109
    19  C    0.042430
    20  C    0.045143
    21  C    0.264568
    22  C   -0.390614
    23  C   -0.084550
    24  C   -0.274711
    25  N   -0.674709
    26  C    0.287304
    27  C    0.050238
    28  C    0.010174
    29  C    0.316062
    30  C   -0.344853
    31  C   -0.254978
    32  C   -0.287171
    33  N   -0.689571
    34  C    0.235437
    35  C    0.083103
    36  C   -0.016305
    37  C    0.285801
    38  C   -0.404255
    39  C    0.375848
    40  O   -0.410759
    41  C   -0.289654
    42  C    0.636932
    43  O   -0.493517
    44  O   -0.459656
    45  C   -0.082865
    46  C    0.068230
    47  C   -0.124462
    48  C    0.081908
    49  C   -0.351275
    50  C   -0.223612
    51  C   -0.176850
    52  C   -0.182650
    53  C   -0.044888
    54  C   -0.305514
    55  C   -0.176343
    56  C   -0.129454
    57  C   -0.171888
    58  C   -0.062471
    59  C   -0.309459
    60  C   -0.148881
    61  C   -0.146410
    62  C   -0.154798
    63  C   -0.068974
    64  C   -0.293181
    65  C   -0.312862
    66  H    0.078304
    67  H    0.080537
    68  H    0.084945
    69  H    0.095426
    70  H    0.105989
    71  H    0.105604
    72  H    0.102671
    73  H    0.140274
    74  H    0.122186
    75  H    0.120467
    76  H    0.143080
    77  H    0.149907
    78  H    0.123913
    79  H    0.131986
    80  H    0.119452
    81  H    0.091451
    82  H    0.112892
    83  H    0.081817
    84  H    0.137549
    85  H    0.085095
    86  H    0.089916
    87  H    0.093821
    88  H    0.120566
    89  H    0.115760
    90  H    0.090178
    91  H    0.071952
    92  H    0.096495
    93  H    0.152049
    94  H    0.135239
    95  H    0.157182
    96  H    0.146035
    97  H    0.123175
    98  H    0.111363
    99  H    0.121901
   100  H    0.104593
   101  H    0.078081
   102  H    0.090453
   103  H    0.125667
   104  H    0.140047
   105  H    0.108088
   106  H    0.075034
   107  H    0.100556
   108  H    0.106979
   109  H    0.087530
   110  H    0.096073
   111  H    0.088254
   112  H    0.101783
   113  H    0.060770
   114  H    0.103619
   115  H    0.063029
   116  H    0.079770
   117  H    0.110948
   118  H    0.064575
   119  H    0.084326
   120  H    0.043911
   121  H    0.071217
   122  H    0.125121
   123  H    0.074176
   124  H    0.095004
   125  H    0.100762
   126  H    0.091327
   127  H    0.098875
   128  H    0.040054
   129  H    0.099095
   130  H    0.084400
   131  H    0.069847
   132  H    0.103030
   133  H    0.105152
   134  H    0.071385
   135  H    0.105360
   136  H    0.095828
   137  H    0.091629
 Sum of Mulliken charges =   0.00000

 Dipole moment (field-independent basis, Debye):
    X=              1.0806    Y=              2.2778    Z=             -0.1147  Tot=              2.5238
 Quadrupole moment (field-independent basis, Debye-Ang):
   XX=           -357.4899   YY=           -388.3628   ZZ=           -398.1682
   XY=             -6.6942   XZ=             18.0422   YZ=              0.2232

 Normal termination of Gaussian 09 at Tue Jul  2 11:13:39 2019.
