 Gaussian 16, Revision A.03,
 Gaussian 16:  ES64L-G16RevA.03 25-Dec-2016

 -------------------------------------
 # td=(NStates=1) CAM-B3LYP/6-31G(d,p)
 -------------------------------------

 --
 TD
 --
 Symbolic Z-matrix:
 Charge =  0 Multiplicity = 1

                         Standard orientation:
 ---------------------------------------------------------------------
 Center     Atomic      Atomic             Coordinates (Angstroms)
 Number     Number       Type             X           Y           Z
 ---------------------------------------------------------------------
      1         12           0       -7.199620    0.723462   -0.045106
      2          6           0       -4.904672   -1.897961    0.502048
      3          6           0       -4.824525    2.841182    1.138329
      4          6           0       -9.386971    3.053083   -0.419222
      5          6           0       -9.671539   -1.746696   -0.858285
      6          7           0       -5.248170    0.430034    0.756365
      7          6           0       -4.371875   -0.649064    0.734393
      8          6           0       -3.051896   -0.381061    1.186653
      9          6           0       -3.063795    1.039224    1.695221
     10          6           0       -4.454023    1.518192    1.085282
     11          6           0       -3.024379    1.191314    3.173129
     12          6           0       -1.911283   -0.570748    0.065834
     13          6           0       -0.468549   -0.544695    0.502817
     14          6           0        0.509350   -0.800117   -0.592400
     15          8           0        0.253465   -1.295843   -1.683544
     16          8           0        1.728500   -0.329219   -0.238403
     17          7           0       -7.107783    2.670206    0.255846
     18          6           0       -6.073816    3.365103    0.802271
     19          6           0       -6.415008    4.769828    0.868205
     20          6           0       -7.720988    4.877775    0.453791
     21          6           0       -8.089090    3.448801    0.083305
     22          6           0       -5.492969    5.760789    1.352584
     23          6           0       -8.417924    6.043938    0.094234
     24          6           0       -8.394818    7.295185    0.665257
     25          7           0       -9.156715    0.629585   -0.518639
     26          6           0       -9.835555    1.790111   -0.740767
     27          6           0      -11.187406    1.502025   -1.296464
     28          6           0      -11.292531    0.086172   -1.213327
     29          6           0       -9.950898   -0.410304   -0.832641
     30          6           0      -12.444939    2.451231   -1.362897
     31          6           0      -12.460770   -0.706473   -1.612445
     32          6           0      -12.615631   -0.916886   -3.022771
     33          7           0       -7.232958   -1.401433   -0.302285
     34          6           0       -8.332330   -2.292080   -0.560806
     35          6           0       -7.864995   -3.637960   -0.588977
     36          6           0       -6.502523   -3.588872   -0.078667
     37          6           0       -6.255272   -2.271691    0.100715
     38          6           0       -8.593451   -4.879837   -0.845068
     39          6           0       -5.293827   -4.382611    0.266958
     40          8           0       -5.072446   -5.533707    0.328781
     41          6           0       -4.163782   -3.252612    0.571889
     42          6           0       -3.500558   -3.617115    1.922088
     43          8           0       -3.708970   -3.072496    3.006457
     44          8           0       -2.689605   -4.599561    1.792586
     45          6           0       -2.030478   -5.020658    2.933705
     46          6           0        2.757429   -0.608052   -1.232332
     47          6           0        4.058544   -0.504480   -0.631612
     48          6           0        5.117415    0.259786   -1.088264
     49          6           0        5.113663    1.146910   -2.236998
     50          6           0        6.410016    0.171434   -0.211153
     51          6           0        7.638292   -0.333925   -0.963147
     52          6           0        8.967881   -0.150339   -0.096793
     53          6           0       10.246984   -0.552758   -0.868254
     54          6           0       10.181281   -2.030693   -1.248864
     55          6           0       11.540467   -0.330495   -0.043976
     56          6           0       12.860219   -0.700743   -0.626202
     57          6           0       14.068217   -0.117579    0.158209
     58          6           0       15.418583   -0.229329   -0.461435
     59          6           0       15.725049   -1.693394   -0.877601
     60          6           0       16.540834    0.364545    0.413300
     61          6           0       17.871461    0.697368   -0.239176
     62          6           0       18.833068    1.394929    0.820235
     63          6           0       20.175867    1.548758    0.211484
     64          6           0       20.271433    2.358265   -1.077592
     65          6           0       21.251641    1.939047    1.322951
     66          1           0       -4.085505    3.533587    1.336295
     67          1           0      -10.003083    3.938229   -0.754520
     68          1           0      -10.529446   -2.647189   -1.015099
     69          1           0       -2.700381   -1.064660    1.918720
     70          1           0       -2.144547    1.673706    1.390547
     71          1           0       -2.140026    0.613866    3.547220
     72          1           0       -3.065568    2.237700    3.439674
     73          1           0       -3.702042    0.598312    3.753580
     74          1           0       -2.173108   -1.436487   -0.381582
     75          1           0       -1.966397    0.297982   -0.541620
     76          1           0       -0.058261    0.398589    0.946456
     77          1           0       -0.069280   -1.277537    1.225312
     78          1           0       -5.660734    6.728814    0.909441
     79          1           0       -5.524641    5.841046    2.304298
     80          1           0       -4.425603    5.368102    1.256858
     81          1           0       -9.251366    5.921722   -0.767060
     82          1           0       -8.993056    8.074310    0.235974
     83          1           0       -7.711672    7.673311    1.324888
     84          1           0      -12.257188    3.116707   -2.288911
     85          1           0      -13.360784    1.912346   -1.531960
     86          1           0      -12.466977    3.180094   -0.604304
     87          1           0      -12.593377   -1.700401   -1.166070
     88          1           0      -13.433459   -0.536307   -1.363197
     89          1           0      -13.777076   -1.258010   -3.436329
     90          1           0      -12.462981    0.000485   -3.352134
     91          1           0      -11.810986   -1.682871   -3.456380
     92          1           0       -8.797738   -5.090550   -1.883458
     93          1           0       -7.858618   -5.769667   -0.610685
     94          1           0       -9.440086   -4.939510   -0.289083
     95          1           0       -3.325270   -3.381907   -0.118106
     96          1           0       -1.473797   -4.202704    3.240161
     97          1           0       -2.715160   -5.288040    3.820544
     98          1           0       -1.426053   -5.902337    2.567004
     99          1           0        2.702429   -1.665603   -1.564756
    100          1           0        2.437016    0.006882   -2.047413
    101          1           0        4.108723   -0.989272    0.224789
    102          1           0        4.262109    1.257304   -2.681644
    103          1           0        5.503711    2.247454   -1.926198
    104          1           0        5.858516    0.691897   -2.976864
    105          1           0        6.476217    1.242992    0.037837
    106          1           0        6.199820   -0.584719    0.601060
    107          1           0        7.321936   -1.377653   -1.077916
    108          1           0        7.857309    0.047732   -2.004832
    109          1           0        9.180423    0.987025    0.020191
    110          1           0        8.885097   -0.560906    0.793641
    111          1           0       10.446203   -0.096997   -1.799252
    112          1           0        9.251299   -2.282884   -1.779950
    113          1           0       10.913762   -2.218922   -1.751340
    114          1           0       10.281015   -2.831972   -0.485099
    115          1           0       11.389716    0.686032    0.291179
    116          1           0       11.376533   -0.853082    0.905070
    117          1           0       13.112350   -1.623256   -0.902380
    118          1           0       13.146947   -0.039786   -1.792640
    119          1           0       13.887437    0.870531    0.377080
    120          1           0       13.900622   -0.490849    1.157735
    121          1           0       15.463054    0.384512   -1.190202
    122          1           0       15.383512   -2.254846    0.130533
    123          1           0       15.280732   -2.238653   -2.046065
    124          1           0       16.836602   -1.962896   -1.122687
    125          1           0       16.084220    1.321506    0.663172
    126          1           0       16.580961   -0.203115    1.443499
    127          1           0       18.508738   -0.183548   -0.614764
    128          1           0       17.843782    1.297264   -1.170372
    129          1           0       18.388293    2.174370    1.049132
    130          1           0       18.913151    0.794271    1.770619
    131          1           0       20.462404    0.554027   -0.084161
    132          1           0       20.039706    3.658764   -1.106822
    133          1           0       21.440920    2.356868   -1.289552
    134          1           0       19.799837    1.949965   -1.955326
    135          1           0       20.971548    1.212428    2.083950
    136          1           0       22.381170    1.806588    0.952187
    137          1           0       21.085972    3.071538    1.586789
 ---------------------------------------------------------------------

 SCF Done:  E(RCAM-B3LYP) =  -2932.58622306     A.U. after   18 cycles

 Excitation energies and oscillator strengths:

 Excited State   1:      Singlet-A      1.9469 eV  636.82 nm  f=0.3009  <S**2>=0.000
     240 -> 243        0.19973
     241 -> 242        0.67261
 This state for optimization and/or second-order correction.
 Total Energy, E(TD-HF/TD-DFT) =  -2932.51467523
 Copying the excited state density for this state as the 1-particle RhoCI density.

 The electronic state is 1-A.
 Alpha  occ. eigenvalues --  -46.84848 -19.26665 -19.26000 -19.20475 -19.20429
 Alpha  occ. eigenvalues --  -19.19199 -14.42296 -14.40314 -14.39845 -14.38315
 Alpha  occ. eigenvalues --  -10.38749 -10.38142 -10.35029 -10.31350 -10.31092
 Alpha  occ. eigenvalues --  -10.30764 -10.30685 -10.30381 -10.30280 -10.29536
 Alpha  occ. eigenvalues --  -10.29342 -10.29265 -10.28875 -10.28744 -10.28346
 Alpha  occ. eigenvalues --  -10.28096 -10.27664 -10.27650 -10.27620 -10.27591
 Alpha  occ. eigenvalues --  -10.27494 -10.27386 -10.27304 -10.27299 -10.27280
 Alpha  occ. eigenvalues --  -10.27179 -10.27165 -10.26750 -10.26599 -10.26591
 Alpha  occ. eigenvalues --  -10.26551 -10.26414 -10.26343 -10.26217 -10.26169
 Alpha  occ. eigenvalues --  -10.26080 -10.26019 -10.26006 -10.25949 -10.25922
 Alpha  occ. eigenvalues --  -10.25828 -10.25585 -10.25402 -10.25273 -10.25256
 Alpha  occ. eigenvalues --  -10.25024 -10.25009 -10.24719 -10.24674 -10.24587
 Alpha  occ. eigenvalues --  -10.24582 -10.24274 -10.23856 -10.23495 -10.21614
 Alpha  occ. eigenvalues --   -3.13916  -1.88610  -1.88173  -1.88089  -1.21190
 Alpha  occ. eigenvalues --   -1.17698  -1.13243  -1.08384  -1.07746  -1.07225
 Alpha  occ. eigenvalues --   -1.03798  -1.03598  -1.01088  -0.91601  -0.91431
 Alpha  occ. eigenvalues --   -0.91252  -0.90927  -0.90386  -0.90280  -0.90028
 Alpha  occ. eigenvalues --   -0.89017  -0.88911  -0.87484  -0.87012  -0.86075
 Alpha  occ. eigenvalues --   -0.85369  -0.84874  -0.83882  -0.83640  -0.83454
 Alpha  occ. eigenvalues --   -0.82241  -0.81596  -0.81250  -0.80258  -0.79298
 Alpha  occ. eigenvalues --   -0.78693  -0.77191  -0.77100  -0.76066  -0.75592
 Alpha  occ. eigenvalues --   -0.75437  -0.74855  -0.74116  -0.73848  -0.72568
 Alpha  occ. eigenvalues --   -0.71452  -0.70586  -0.69602  -0.69200  -0.68905
 Alpha  occ. eigenvalues --   -0.66935  -0.66810  -0.65656  -0.65445  -0.64589
 Alpha  occ. eigenvalues --   -0.64319  -0.63972  -0.63772  -0.62999  -0.62963
 Alpha  occ. eigenvalues --   -0.62936  -0.62109  -0.61088  -0.60411  -0.60212
 Alpha  occ. eigenvalues --   -0.58834  -0.58613  -0.57389  -0.57217  -0.56918
 Alpha  occ. eigenvalues --   -0.56515  -0.56210  -0.55737  -0.55643  -0.55175
 Alpha  occ. eigenvalues --   -0.54863  -0.54255  -0.53813  -0.53737  -0.53218
 Alpha  occ. eigenvalues --   -0.53157  -0.52680  -0.52503  -0.52345  -0.52236
 Alpha  occ. eigenvalues --   -0.51880  -0.51694  -0.51149  -0.51128  -0.50945
 Alpha  occ. eigenvalues --   -0.50597  -0.50517  -0.50304  -0.50133  -0.49769
 Alpha  occ. eigenvalues --   -0.49603  -0.49484  -0.49254  -0.49139  -0.48845
 Alpha  occ. eigenvalues --   -0.48639  -0.48284  -0.48259  -0.47776  -0.47559
 Alpha  occ. eigenvalues --   -0.47139  -0.46871  -0.46727  -0.46446  -0.46287
 Alpha  occ. eigenvalues --   -0.45963  -0.45915  -0.45882  -0.45482  -0.45185
 Alpha  occ. eigenvalues --   -0.44898  -0.44763  -0.44732  -0.44478  -0.44206
 Alpha  occ. eigenvalues --   -0.44098  -0.43982  -0.43745  -0.43320  -0.43211
 Alpha  occ. eigenvalues --   -0.43049  -0.42807  -0.42540  -0.42359  -0.42213
 Alpha  occ. eigenvalues --   -0.42155  -0.41972  -0.41851  -0.41811  -0.41715
 Alpha  occ. eigenvalues --   -0.41261  -0.40979  -0.40888  -0.40534  -0.40272
 Alpha  occ. eigenvalues --   -0.39788  -0.39759  -0.39624  -0.39432  -0.39318
 Alpha  occ. eigenvalues --   -0.39282  -0.38965  -0.38866  -0.38557  -0.38150
 Alpha  occ. eigenvalues --   -0.37998  -0.37414  -0.37206  -0.37000  -0.36649
 Alpha  occ. eigenvalues --   -0.36334  -0.36286  -0.35936  -0.35833  -0.35783
 Alpha  occ. eigenvalues --   -0.35509  -0.35508  -0.34478  -0.33776  -0.33314
 Alpha  occ. eigenvalues --   -0.33195  -0.32695  -0.32314  -0.30644  -0.29590
 Alpha  occ. eigenvalues --   -0.28869  -0.28617  -0.27927  -0.27450  -0.22881
 Alpha  occ. eigenvalues --   -0.21274
 Alpha virt. eigenvalues --   -0.07407  -0.02606   0.02247   0.03800   0.05262
 Alpha virt. eigenvalues --    0.05879   0.06346   0.06658   0.07279   0.07822
 Alpha virt. eigenvalues --    0.08523   0.10467   0.10835   0.11141   0.11352

 Mulliken charges:
               1
     1  Mg   0.844858
     2  C    0.041009
     3  C   -0.198770
     4  C   -0.193334
     5  C   -0.174754
     6  N   -0.632684
     7  C    0.337504
     8  C   -0.175796
     9  C   -0.131482
    10  C    0.326664
    11  C   -0.304679
    12  C   -0.159142
    13  C   -0.283909
    14  C    0.609430
    15  O   -0.489174
    16  O   -0.491454
    17  N   -0.714943
    18  C    0.303768
    19  C    0.048684
    20  C    0.009845
    21  C    0.317550
    22  C   -0.371747
    23  C   -0.110838
    24  C   -0.244731
    25  N   -0.714905
    26  C    0.318627
    27  C   -0.012294
    28  C    0.026965
    29  C    0.337267
    30  C   -0.357677
    31  C   -0.255713
    32  C   -0.277534
    33  N   -0.676038
    34  C    0.233536
    35  C    0.005339
    36  C   -0.000336
    37  C    0.276038
    38  C   -0.391645
    39  C    0.378004
    40  O   -0.426418
    41  C   -0.344173
    42  C    0.590449
    43  O   -0.512046
    44  O   -0.383673
    45  C   -0.085647
    46  C    0.011985
    47  C   -0.125754
    48  C    0.102071
    49  C   -0.340263
    50  C   -0.216138
    51  C   -0.187035
    52  C   -0.155438
    53  C   -0.079136
    54  C   -0.301766
    55  C   -0.179198
    56  C   -0.140957
    57  C   -0.193270
    58  C   -0.029974
    59  C   -0.283909
    60  C   -0.182489
    61  C   -0.199975
    62  C   -0.139535
    63  C   -0.067685
    64  C   -0.291441
    65  C   -0.299125
    66  H    0.074503
    67  H    0.084078
    68  H    0.108686
    69  H    0.130088
    70  H    0.091203
    71  H    0.102407
    72  H    0.106928
    73  H    0.134202
    74  H    0.127701
    75  H    0.116048
    76  H    0.135608
    77  H    0.133959
    78  H    0.122635
    79  H    0.150693
    80  H    0.101846
    81  H    0.088580
    82  H    0.104152
    83  H    0.102532
    84  H    0.103438
    85  H    0.125371
    86  H    0.136191
    87  H    0.094538
    88  H    0.119769
    89  H    0.060603
    90  H    0.122725
    91  H    0.088179
    92  H    0.125595
    93  H    0.129725
    94  H    0.131250
    95  H    0.154717
    96  H    0.125433
    97  H    0.129366
    98  H    0.120659
    99  H    0.130524
   100  H    0.121798
   101  H    0.084928
   102  H    0.122807
   103  H    0.096166
   104  H    0.116731
   105  H    0.100292
   106  H    0.100539
   107  H    0.104061
   108  H    0.092997
   109  H    0.074311
   110  H    0.102961
   111  H    0.095919
   112  H    0.089639
   113  H    0.109427
   114  H    0.080141
   115  H    0.090077
   116  H    0.091618
   117  H    0.122958
   118  H    0.006072
   119  H    0.097004
   120  H    0.082585
   121  H    0.097046
   122  H    0.089418
   123  H    0.051459
   124  H    0.096304
   125  H    0.094566
   126  H    0.078252
   127  H    0.080611
   128  H    0.099702
   129  H    0.104809
   130  H    0.080044
   131  H    0.099344
   132  H    0.053803
   133  H    0.085485
   134  H    0.114092
   135  H    0.105786
   136  H    0.085637
   137  H    0.095709
 Sum of Mulliken charges =  -0.00000

 Dipole moment (field-independent basis, Debye):
    X=              2.2558    Y=              5.6901    Z=              0.5823  Tot=              6.1485
 Quadrupole moment (field-independent basis, Debye-Ang):
   XX=           -347.6296   YY=           -390.6682   ZZ=           -401.4563
   XY=            -27.5500   XZ=             12.0819   YZ=             -1.9627

 Normal termination of Gaussian 16 at Sun Jun 30 03:01:24 2019.
