 Gaussian 16, Revision A.03,
 Gaussian 16:  ES64L-G16RevA.03 25-Dec-2016

 ----------------------------------------------------------------------
 # td=(NStates=1) iop(3/107=0140000000,3/108=0140000000) CAM-B3LYP/6-31
 G(d,p)
 ----------------------------------------------------------------------

 --
 TD
 --
 Symbolic Z-matrix:
 Charge =  0 Multiplicity = 1

                         Standard orientation:
 ---------------------------------------------------------------------
 Center     Atomic      Atomic             Coordinates (Angstroms)
 Number     Number       Type             X           Y           Z
 ---------------------------------------------------------------------
      1         12           0       -7.177842    0.609980    0.233226
      2          6           0       -4.846358   -1.974580    0.489173
      3          6           0       -4.759396    2.841961    1.346441
      4          6           0       -9.407816    3.080279   -0.353840
      5          6           0       -9.640883   -1.657317   -0.804554
      6          7           0       -5.074087    0.417237    0.629561
      7          6           0       -4.313414   -0.683686    0.862576
      8          6           0       -2.977832   -0.484278    1.338559
      9          6           0       -3.115298    0.958160    1.733590
     10          6           0       -4.341187    1.519146    1.250002
     11          6           0       -3.020243    1.093995    3.280986
     12          6           0       -1.981865   -0.734718    0.102045
     13          6           0       -0.525597   -0.535023    0.566759
     14          6           0        0.440464   -0.682698   -0.587779
     15          8           0        0.191955   -0.888716   -1.741036
     16          8           0        1.764498   -0.471985   -0.095480
     17          7           0       -7.131089    2.616532    0.377752
     18          6           0       -6.007554    3.336007    0.723841
     19          6           0       -6.251072    4.828762    0.643692
     20          6           0       -7.628440    4.831996    0.291418
     21          6           0       -8.113531    3.498693    0.109334
     22          6           0       -5.271690    5.919022    0.976146
     23          6           0       -8.448556    6.159238    0.149597
     24          6           0       -8.170271    7.358152    0.671529
     25          7           0       -9.112788    0.725547   -0.431113
     26          6           0       -9.868196    1.812042   -0.646145
     27          6           0      -11.210067    1.508648   -1.062395
     28          6           0      -11.195530    0.207479   -1.278823
     29          6           0       -9.919822   -0.291124   -0.834635
     30          6           0      -12.194397    2.551147   -1.355835
     31          6           0      -12.312877   -0.694673   -1.891092
     32          6           0      -11.992898   -1.241048   -3.328199
     33          7           0       -7.325873   -1.345485   -0.096682
     34          6           0       -8.292177   -2.143248   -0.482705
     35          6           0       -7.872787   -3.560992   -0.585273
     36          6           0       -6.482975   -3.528442   -0.201071
     37          6           0       -6.225670   -2.133266    0.044906
     38          6           0       -8.724403   -4.872988   -0.919430
     39          6           0       -5.326484   -4.375585    0.134489
     40          8           0       -5.159395   -5.594104    0.188868
     41          6           0       -4.214734   -3.363577    0.514076
     42          6           0       -3.577765   -3.728974    1.870450
     43          8           0       -3.892662   -3.280064    2.933383
     44          8           0       -2.702829   -4.764709    1.600968
     45          6           0       -2.069470   -5.329770    2.881314
     46          6           0        2.768979   -0.574660   -1.125827
     47          6           0        4.112687   -0.447753   -0.345351
     48          6           0        5.067055    0.372476   -0.824491
     49          6           0        4.913877    1.246920   -2.078800
     50          6           0        6.358198    0.367039   -0.095667
     51          6           0        7.555939   -0.275512   -0.941686
     52          6           0        8.923908   -0.092296   -0.249737
     53          6           0       10.144579   -0.572093   -0.937835
     54          6           0       10.071489   -2.011951   -1.310923
     55          6           0       11.403036   -0.319122   -0.067843
     56          6           0       12.741537   -0.469957   -0.793317
     57          6           0       14.015526   -0.055030    0.139328
     58          6           0       15.345993   -0.162492   -0.567760
     59          6           0       15.650272   -1.692622   -1.061692
     60          6           0       16.448291    0.345440    0.334409
     61          6           0       17.867143    0.366424   -0.122803
     62          6           0       18.763779    1.327320    0.753379
     63          6           0       20.265484    1.328379    0.221106
     64          6           0       20.468007    2.141921   -0.999436
     65          6           0       21.141742    2.006738    1.357471
     66          1           0       -4.086468    3.353857    1.857379
     67          1           0      -10.232663    3.748899   -0.578006
     68          1           0      -10.209526   -2.443513   -1.108757
     69          1           0       -2.622482   -1.177774    2.120012
     70          1           0       -2.261013    1.602025    1.315130
     71          1           0       -2.139035    0.644300    3.613828
     72          1           0       -2.882023    2.302284    3.280368
     73          1           0       -3.955597    0.771661    3.769475
     74          1           0       -2.126304   -1.700111   -0.534261
     75          1           0       -2.259553    0.033671   -0.545395
     76          1           0       -0.341914    0.400455    0.872013
     77          1           0       -0.341684   -1.344451    1.308832
     78          1           0       -5.598217    6.754357    0.231675
     79          1           0       -5.381295    6.394014    1.993081
     80          1           0       -4.398607    5.545350    0.744342
     81          1           0       -9.182442    6.082888   -0.666645
     82          1           0       -8.721457    8.305715    0.148581
     83          1           0       -7.516744    7.607432    1.571707
     84          1           0      -11.807281    3.191540   -2.078609
     85          1           0      -13.028107    1.938822   -1.818066
     86          1           0      -12.543837    3.297837   -0.430881
     87          1           0      -12.338479   -1.586559   -1.117244
     88          1           0      -13.220515   -0.078418   -1.771848
     89          1           0      -12.973464   -1.794901   -3.608049
     90          1           0      -12.233809   -0.249919   -3.978385
     91          1           0      -11.060818   -1.686606   -3.329521
     92          1           0       -9.185993   -4.798774   -1.941335
     93          1           0       -8.062387   -5.753137   -0.565304
     94          1           0       -9.451399   -4.718920   -0.095341
     95          1           0       -3.451065   -3.486711   -0.165941
     96          1           0       -1.788362   -4.506601    3.398235
     97          1           0       -2.980590   -5.693743    3.522277
     98          1           0       -1.504259   -6.146716    2.395834
     99          1           0        2.794910   -1.764024   -1.508087
    100          1           0        2.516207    0.154941   -2.080545
    101          1           0        4.263568   -0.837946    0.438584
    102          1           0        3.845660    1.263462   -2.590667
    103          1           0        5.400505    2.156576   -1.819881
    104          1           0        5.542034    0.848036   -2.805657
    105          1           0        6.590244    1.419086   -0.005518
    106          1           0        6.267043   -0.020984    0.841059
    107          1           0        7.445883   -1.271117   -1.143470
    108          1           0        7.341207    0.319735   -1.919947
    109          1           0        8.997731    0.853698    0.177821
    110          1           0        8.769030   -0.543905    0.817497
    111          1           0       10.356599   -0.070175   -1.777103
    112          1           0        8.893789   -2.078712   -1.864058
    113          1           0       10.916206   -2.450675   -2.053377
    114          1           0       10.085806   -2.710400   -0.362557
    115          1           0       11.240085    0.688797    0.358854
    116          1           0       11.416419   -1.100474    0.705544
    117          1           0       12.899794   -1.564240   -1.065848
    118          1           0       12.690292    0.018147   -1.882107
    119          1           0       13.814121    1.006970    0.275368
    120          1           0       14.111042   -0.705877    1.041547
    121          1           0       15.183652    0.333194   -1.527386
    122          1           0       15.563322   -2.288807    0.134798
    123          1           0       14.685951   -1.848521   -1.658475
    124          1           0       16.587982   -1.729537   -1.592904
    125          1           0       16.193307    1.429839    0.347976
    126          1           0       16.292272   -0.211509    1.310397
    127          1           0       18.378878   -0.547690   -0.120320
    128          1           0       17.999350    0.706729   -1.119732
    129          1           0       18.215853    2.144297    0.765489
    130          1           0       18.687220    1.095205    1.757896
    131          1           0       20.685834    0.266949    0.028420
    132          1           0       20.122975    3.239684   -0.760538
    133          1           0       21.441470    2.301365   -1.360087
    134          1           0       19.539632    1.916802   -1.790755
    135          1           0       21.281416    1.498730    2.372999
    136          1           0       22.043589    2.171283    1.045744
    137          1           0       20.814549    2.975426    1.740848
 ---------------------------------------------------------------------

 SCF Done:  E(RCAM-B3LYP) =  -2933.43305388     A.U. after   16 cycles

 Excitation energies and oscillator strengths:

 Excited State   1:      Singlet-A      1.8693 eV  663.26 nm  f=0.3006  <S**2>=0.000
     240 -> 243       -0.19717
     241 -> 242        0.67952
 This state for optimization and/or second-order correction.
 Total Energy, E(TD-HF/TD-DFT) =  -2933.36435791
 Copying the excited state density for this state as the 1-particle RhoCI density.

 The electronic state is 1-A.
 Alpha  occ. eigenvalues --  -46.79901 -19.21500 -19.21170 -19.18030 -19.17502
 Alpha  occ. eigenvalues --  -19.16002 -14.37686 -14.35608 -14.35420 -14.34758
 Alpha  occ. eigenvalues --  -10.34727 -10.34360 -10.30503 -10.29243 -10.27442
 Alpha  occ. eigenvalues --  -10.26217 -10.26029 -10.25724 -10.25098 -10.24883
 Alpha  occ. eigenvalues --  -10.24882 -10.24608 -10.24246 -10.23462 -10.23343
 Alpha  occ. eigenvalues --  -10.23342 -10.23318 -10.23310 -10.23205 -10.23154
 Alpha  occ. eigenvalues --  -10.23099 -10.23085 -10.23047 -10.22951 -10.22906
 Alpha  occ. eigenvalues --  -10.22874 -10.22827 -10.22747 -10.22652 -10.22628
 Alpha  occ. eigenvalues --  -10.22569 -10.22490 -10.22474 -10.22231 -10.22143
 Alpha  occ. eigenvalues --  -10.22109 -10.21744 -10.21625 -10.21608 -10.21569
 Alpha  occ. eigenvalues --  -10.21555 -10.21428 -10.21374 -10.21100 -10.21071
 Alpha  occ. eigenvalues --  -10.21024 -10.20961 -10.20780 -10.20780 -10.20766
 Alpha  occ. eigenvalues --  -10.20416 -10.19301 -10.19276 -10.19046 -10.19037
 Alpha  occ. eigenvalues --   -3.08585  -1.83514  -1.83041  -1.83021  -1.11827
 Alpha  occ. eigenvalues --   -1.11593  -1.05061  -1.04535  -1.04084  -1.00102
 Alpha  occ. eigenvalues --   -0.99197  -0.98485  -0.97616  -0.86888  -0.86524
 Alpha  occ. eigenvalues --   -0.85548  -0.85274  -0.84813  -0.84122  -0.83589
 Alpha  occ. eigenvalues --   -0.82967  -0.82926  -0.82203  -0.81242  -0.80499
 Alpha  occ. eigenvalues --   -0.79626  -0.78908  -0.78379  -0.78128  -0.77504
 Alpha  occ. eigenvalues --   -0.76191  -0.75808  -0.75246  -0.74460  -0.73437
 Alpha  occ. eigenvalues --   -0.72969  -0.72582  -0.71821  -0.71691  -0.70892
 Alpha  occ. eigenvalues --   -0.70382  -0.69949  -0.69112  -0.68963  -0.67777
 Alpha  occ. eigenvalues --   -0.66859  -0.66156  -0.65049  -0.64476  -0.64067
 Alpha  occ. eigenvalues --   -0.63186  -0.61403  -0.60642  -0.60558  -0.59978
 Alpha  occ. eigenvalues --   -0.59895  -0.59531  -0.59247  -0.58022  -0.57902
 Alpha  occ. eigenvalues --   -0.56953  -0.56779  -0.56163  -0.55511  -0.55211
 Alpha  occ. eigenvalues --   -0.54964  -0.54149  -0.53736  -0.53441  -0.52946
 Alpha  occ. eigenvalues --   -0.52331  -0.51201  -0.51168  -0.50856  -0.50810
 Alpha  occ. eigenvalues --   -0.50639  -0.50274  -0.49824  -0.49475  -0.49345
 Alpha  occ. eigenvalues --   -0.49300  -0.48824  -0.48496  -0.48227  -0.47961
 Alpha  occ. eigenvalues --   -0.47415  -0.47050  -0.46921  -0.46791  -0.46737
 Alpha  occ. eigenvalues --   -0.46593  -0.46294  -0.46093  -0.45914  -0.45777
 Alpha  occ. eigenvalues --   -0.45541  -0.45305  -0.45257  -0.45064  -0.44944
 Alpha  occ. eigenvalues --   -0.44490  -0.44219  -0.44028  -0.43854  -0.43727
 Alpha  occ. eigenvalues --   -0.43599  -0.43448  -0.43231  -0.43093  -0.42580
 Alpha  occ. eigenvalues --   -0.42448  -0.42255  -0.42164  -0.41971  -0.41742
 Alpha  occ. eigenvalues --   -0.41574  -0.41490  -0.41254  -0.41218  -0.40769
 Alpha  occ. eigenvalues --   -0.40668  -0.40432  -0.40348  -0.40084  -0.39871
 Alpha  occ. eigenvalues --   -0.39713  -0.39578  -0.39465  -0.39343  -0.39097
 Alpha  occ. eigenvalues --   -0.38931  -0.38856  -0.38604  -0.38458  -0.38318
 Alpha  occ. eigenvalues --   -0.38227  -0.38049  -0.37682  -0.37455  -0.36932
 Alpha  occ. eigenvalues --   -0.36897  -0.36697  -0.36632  -0.36462  -0.36025
 Alpha  occ. eigenvalues --   -0.35804  -0.35012  -0.35001  -0.34639  -0.34556
 Alpha  occ. eigenvalues --   -0.34350  -0.34194  -0.34153  -0.33708  -0.33578
 Alpha  occ. eigenvalues --   -0.33414  -0.33322  -0.32865  -0.32550  -0.32219
 Alpha  occ. eigenvalues --   -0.32122  -0.31490  -0.31430  -0.30791  -0.30670
 Alpha  occ. eigenvalues --   -0.30592  -0.29759  -0.28978  -0.28020  -0.26938
 Alpha  occ. eigenvalues --   -0.26804  -0.26575  -0.26185  -0.24901  -0.21260
 Alpha  occ. eigenvalues --   -0.19267
 Alpha virt. eigenvalues --   -0.07298  -0.02851  -0.00267   0.02564   0.03679
 Alpha virt. eigenvalues --    0.04098   0.04339   0.04894   0.05328   0.05479
 Alpha virt. eigenvalues --    0.06783   0.08610   0.08956   0.09283   0.09458

 Mulliken charges:
               1
     1  Mg   0.825870
     2  C    0.035029
     3  C   -0.152376
     4  C   -0.179900
     5  C   -0.159973
     6  N   -0.643985
     7  C    0.334646
     8  C   -0.137324
     9  C   -0.206950
    10  C    0.340209
    11  C   -0.281524
    12  C   -0.187119
    13  C   -0.247515
    14  C    0.593300
    15  O   -0.440886
    16  O   -0.492517
    17  N   -0.691900
    18  C    0.253297
    19  C    0.014153
    20  C   -0.039385
    21  C    0.338637
    22  C   -0.355939
    23  C   -0.057842
    24  C   -0.250541
    25  N   -0.686331
    26  C    0.297469
    27  C    0.072319
    28  C    0.016585
    29  C    0.316605
    30  C   -0.381324
    31  C   -0.246589
    32  C   -0.288309
    33  N   -0.708565
    34  C    0.261294
    35  C   -0.039137
    36  C    0.014635
    37  C    0.283778
    38  C   -0.370216
    39  C    0.373889
    40  O   -0.472940
    41  C   -0.297581
    42  C    0.612538
    43  O   -0.463562
    44  O   -0.477649
    45  C   -0.096746
    46  C    0.025714
    47  C   -0.057872
    48  C    0.109447
    49  C   -0.361571
    50  C   -0.242069
    51  C   -0.170719
    52  C   -0.173163
    53  C   -0.030084
    54  C   -0.282041
    55  C   -0.167772
    56  C   -0.207597
    57  C   -0.152554
    58  C   -0.089165
    59  C   -0.283735
    60  C   -0.143934
    61  C   -0.194904
    62  C   -0.170952
    63  C   -0.043920
    64  C   -0.294068
    65  C   -0.322813
    66  H    0.061558
    67  H    0.066292
    68  H    0.068938
    69  H    0.118021
    70  H    0.096468
    71  H    0.118983
    72  H    0.079002
    73  H    0.133345
    74  H    0.120651
    75  H    0.125581
    76  H    0.145248
    77  H    0.136852
    78  H    0.119655
    79  H    0.122259
    80  H    0.122595
    81  H    0.091025
    82  H    0.084436
    83  H    0.105067
    84  H    0.141756
    85  H    0.099711
    86  H    0.103411
    87  H    0.093173
    88  H    0.099498
    89  H    0.108833
    90  H    0.094435
    91  H    0.128438
    92  H    0.131557
    93  H    0.151941
    94  H    0.133898
    95  H    0.154984
    96  H    0.147997
    97  H    0.131574
    98  H    0.147949
    99  H    0.087935
   100  H    0.107786
   101  H    0.041741
   102  H    0.098628
   103  H    0.116486
   104  H    0.135790
   105  H    0.094709
   106  H    0.102577
   107  H    0.115797
   108  H    0.072872
   109  H    0.096199
   110  H    0.070666
   111  H    0.099261
   112  H    0.056166
   113  H    0.091052
   114  H    0.089848
   115  H    0.082241
   116  H    0.091888
   117  H    0.094899
   118  H    0.070135
   119  H    0.100063
   120  H    0.088374
   121  H    0.080664
   122  H    0.041839
   123  H    0.099533
   124  H    0.117293
   125  H    0.082648
   126  H    0.081118
   127  H    0.097207
   128  H    0.091603
   129  H    0.097004
   130  H    0.094619
   131  H    0.083718
   132  H    0.086275
   133  H    0.116325
   134  H    0.074124
   135  H    0.083657
   136  H    0.106345
   137  H    0.099932
 Sum of Mulliken charges =  -0.00000

 Dipole moment (field-independent basis, Debye):
    X=              2.0138    Y=              3.8537    Z=              0.8887  Tot=              4.4380
 Quadrupole moment (field-independent basis, Debye-Ang):
   XX=           -347.4904   YY=           -400.9715   ZZ=           -395.6915
   XY=             -3.0196   XZ=             14.3220   YZ=             -4.8058

 Normal termination of Gaussian 16 at Tue Sep 10 08:08:06 2019.
