 Gaussian 16, Revision A.03,
 Gaussian 16:  ES64L-G16RevA.03 25-Dec-2016

 ----------------------------------------------------------------------
 # td=(NStates=1) iop(3/107=0140000000,3/108=0140000000) CAM-B3LYP/6-31
 G(d,p)
 ----------------------------------------------------------------------

 --
 TD
 --
 Symbolic Z-matrix:
 Charge =  0 Multiplicity = 1

                         Standard orientation:
 ---------------------------------------------------------------------
 Center     Atomic      Atomic             Coordinates (Angstroms)
 Number     Number       Type             X           Y           Z
 ---------------------------------------------------------------------
      1         12           0       -7.231563    0.695016    0.169680
      2          6           0       -4.879571   -1.956924    0.534074
      3          6           0       -4.820449    2.742342    1.146815
      4          6           0       -9.451942    3.215578   -0.430061
      5          6           0       -9.535085   -1.674207   -0.879907
      6          7           0       -5.123835    0.442445    0.778563
      7          6           0       -4.366248   -0.737360    0.737744
      8          6           0       -2.982266   -0.444716    1.239279
      9          6           0       -3.017362    1.097204    1.751355
     10          6           0       -4.386609    1.404628    1.204517
     11          6           0       -2.750413    1.214283    3.268011
     12          6           0       -1.835756   -0.684177    0.062081
     13          6           0       -0.393269   -0.463749    0.492554
     14          6           0        0.528501   -0.796913   -0.593199
     15          8           0        0.302288   -1.284465   -1.714276
     16          8           0        1.832671   -0.527670   -0.268325
     17          7           0       -7.147271    2.577797    0.399476
     18          6           0       -6.019003    3.376963    0.741947
     19          6           0       -6.362642    4.762886    0.748176
     20          6           0       -7.579880    4.881994    0.296066
     21          6           0       -8.088635    3.524174    0.077474
     22          6           0       -5.327547    5.889888    1.162413
     23          6           0       -8.489649    6.076581    0.194528
     24          6           0       -8.307002    7.250582    0.796681
     25          7           0       -9.123668    0.804731   -0.587883
     26          6           0       -9.873244    1.893182   -0.711208
     27          6           0      -11.262072    1.563534   -1.180043
     28          6           0      -11.250374    0.244580   -1.339909
     29          6           0       -9.899235   -0.357982   -0.861028
     30          6           0      -12.321794    2.523122   -1.506445
     31          6           0      -12.414837   -0.728750   -1.717246
     32          6           0      -12.313840   -1.112289   -3.140883
     33          7           0       -7.307931   -1.362944   -0.035755
     34          6           0       -8.286313   -2.207625   -0.536457
     35          6           0       -7.884079   -3.576119   -0.506823
     36          6           0       -6.557594   -3.605827   -0.126335
     37          6           0       -6.272811   -2.171481    0.107428
     38          6           0       -8.663360   -4.819789   -0.893831
     39          6           0       -5.387335   -4.356988    0.107412
     40          8           0       -5.294137   -5.570291    0.161994
     41          6           0       -4.202935   -3.365647    0.534911
     42          6           0       -3.544859   -3.712806    1.854013
     43          8           0       -3.774854   -3.150786    2.987443
     44          8           0       -2.710952   -4.755730    1.860091
     45          6           0       -2.304905   -5.274533    3.042998
     46          6           0        2.837900   -0.801539   -1.329808
     47          6           0        4.083251   -0.453654   -0.562203
     48          6           0        5.068509    0.343856   -1.056701
     49          6           0        5.024143    1.124935   -2.367706
     50          6           0        6.380316    0.316963   -0.290739
     51          6           0        7.647668   -0.268877   -0.994563
     52          6           0        8.999841   -0.170180   -0.060175
     53          6           0       10.199143   -0.631832   -0.805921
     54          6           0       10.038924   -2.042213   -1.291611
     55          6           0       11.427827   -0.333330   -0.055591
     56          6           0       12.757142   -0.423037   -0.714420
     57          6           0       13.964777   -0.087687    0.178173
     58          6           0       15.418843   -0.241410   -0.520762
     59          6           0       15.863134   -1.551963   -0.897703
     60          6           0       16.417460    0.415303    0.485934
     61          6           0       17.728098    0.559421   -0.112074
     62          6           0       18.798961    1.395626    0.761235
     63          6           0       20.200422    1.440673    0.156311
     64          6           0       20.310197    2.171604   -1.038372
     65          6           0       21.301362    1.936208    1.240712
     66          1           0       -4.168406    3.409202    1.711841
     67          1           0      -10.225198    4.036624   -0.585553
     68          1           0      -10.278681   -2.287698   -1.206260
     69          1           0       -2.717866   -0.731184    2.210576
     70          1           0       -2.371196    1.612429    1.203493
     71          1           0       -1.924671    0.866534    3.619151
     72          1           0       -2.623851    2.267368    3.795825
     73          1           0       -3.545271    0.730850    3.863849
     74          1           0       -2.100199   -1.618182   -0.315467
     75          1           0       -1.980581    0.101595   -0.672178
     76          1           0       -0.244874    0.495891    0.974088
     77          1           0       -0.098357   -0.967894    1.451353
     78          1           0       -5.515069    6.756126    0.535872
     79          1           0       -5.308252    6.041460    2.300090
     80          1           0       -4.408838    5.658557    0.712210
     81          1           0       -9.309602    5.928614   -0.588597
     82          1           0       -8.899582    8.196914    0.802393
     83          1           0       -7.511729    7.460800    1.580805
     84          1           0      -12.083634    3.284968   -2.271724
     85          1           0      -13.218951    2.045636   -2.003921
     86          1           0      -12.742625    3.386865   -0.643554
     87          1           0      -12.091850   -1.554338   -0.866900
     88          1           0      -13.444123   -0.223203   -1.425993
     89          1           0      -13.221227   -1.702608   -3.508253
     90          1           0      -12.541690   -0.120248   -3.589809
     91          1           0      -11.235279   -1.664643   -3.410637
     92          1           0       -9.011605   -4.809839   -2.033491
     93          1           0       -8.219572   -5.827760   -0.842653
     94          1           0       -9.590921   -4.939250   -0.381882
     95          1           0       -3.487542   -3.371094   -0.281989
     96          1           0       -1.595590   -4.671552    3.606964
     97          1           0       -3.171219   -5.290642    3.658235
     98          1           0       -1.808080   -6.282086    2.909563
     99          1           0        2.835948   -1.745777   -1.556485
    100          1           0        2.488811   -0.118254   -2.290186
    101          1           0        4.155124   -0.784623    0.387526
    102          1           0        3.994087    0.955192   -2.788259
    103          1           0        5.179915    2.169059   -2.046981
    104          1           0        5.749366    0.453094   -3.098415
    105          1           0        6.748587    1.507443    0.019687
    106          1           0        6.198661   -0.260269    0.623146
    107          1           0        7.432605   -1.347184   -1.274002
    108          1           0        7.953860    0.305858   -1.943059
    109          1           0        8.839560    0.952977    0.211769
    110          1           0        8.794786   -0.825076    0.820910
    111          1           0       10.240246    0.020824   -1.682908
    112          1           0        9.380774   -2.126676   -2.165751
    113          1           0       11.105487   -2.479335   -1.544675
    114          1           0        9.933441   -2.599544   -0.230737
    115          1           0       11.153749    0.606943    0.321243
    116          1           0       11.220954   -1.009499    0.832125
    117          1           0       12.888453   -1.274223   -1.142456
    118          1           0       12.894683    0.036354   -1.712069
    119          1           0       13.826112    0.891499    0.834210
    120          1           0       14.056303   -0.964019    0.947187
    121          1           0       15.315100    0.573272   -1.280125
    122          1           0       16.090585   -2.162371   -0.072168
    123          1           0       15.165142   -2.045798   -1.650640
    124          1           0       16.736972   -1.290545   -1.548122
    125          1           0       15.888687    1.367880    0.591575
    126          1           0       16.319489   -0.171077    1.541635
    127          1           0       18.238974   -0.502889   -0.130768
    128          1           0       17.592509    1.090906   -1.118637
    129          1           0       18.335590    2.371915    0.916844
    130          1           0       18.767119    1.091690    1.787436
    131          1           0       20.407288    0.334240   -0.052446
    132          1           0       19.956870    3.145615   -0.674325
    133          1           0       21.396537    2.454659   -1.242773
    134          1           0       19.933631    1.746056   -2.050327
    135          1           0       21.067381    1.413026    2.398197
    136          1           0       22.404960    1.749345    0.784714
    137          1           0       21.084318    3.113205    1.431577
 ---------------------------------------------------------------------

 SCF Done:  E(RCAM-B3LYP) =  -2933.46544918     A.U. after   15 cycles

 Excitation energies and oscillator strengths:

 Excited State   1:      Singlet-A      2.0245 eV  612.43 nm  f=0.2777  <S**2>=0.000
     240 -> 243       -0.19230
     241 -> 242        0.67909
 This state for optimization and/or second-order correction.
 Total Energy, E(TD-HF/TD-DFT) =  -2933.39105176
 Copying the excited state density for this state as the 1-particle RhoCI density.

 The electronic state is 1-A.
 Alpha  occ. eigenvalues --  -46.80038 -19.22107 -19.20783 -19.16255 -19.15429
 Alpha  occ. eigenvalues --  -19.15272 -14.37812 -14.35984 -14.35807 -14.35595
 Alpha  occ. eigenvalues --  -10.34922 -10.34344 -10.29982 -10.27224 -10.26571
 Alpha  occ. eigenvalues --  -10.26343 -10.26087 -10.25601 -10.25500 -10.25346
 Alpha  occ. eigenvalues --  -10.25134 -10.25017 -10.24641 -10.24616 -10.24448
 Alpha  occ. eigenvalues --  -10.24279 -10.24040 -10.23982 -10.23917 -10.23478
 Alpha  occ. eigenvalues --  -10.23420 -10.23285 -10.23194 -10.23097 -10.22968
 Alpha  occ. eigenvalues --  -10.22950 -10.22949 -10.22931 -10.22830 -10.22823
 Alpha  occ. eigenvalues --  -10.22753 -10.22734 -10.22628 -10.22560 -10.22483
 Alpha  occ. eigenvalues --  -10.22051 -10.22044 -10.21924 -10.21917 -10.21908
 Alpha  occ. eigenvalues --  -10.21899 -10.21840 -10.21821 -10.21709 -10.21595
 Alpha  occ. eigenvalues --  -10.21407 -10.20840 -10.20631 -10.20490 -10.20484
 Alpha  occ. eigenvalues --  -10.20444 -10.20223 -10.20146 -10.19727 -10.19438
 Alpha  occ. eigenvalues --   -3.08828  -1.83742  -1.83291  -1.83272  -1.14104
 Alpha  occ. eigenvalues --   -1.11176  -1.05389  -1.01944  -1.00718  -1.00384
 Alpha  occ. eigenvalues --   -0.99225  -0.98440  -0.97117  -0.86855  -0.86780
 Alpha  occ. eigenvalues --   -0.85613  -0.85296  -0.84620  -0.84453  -0.83912
 Alpha  occ. eigenvalues --   -0.83761  -0.83123  -0.82721  -0.81990  -0.81699
 Alpha  occ. eigenvalues --   -0.80097  -0.79622  -0.78954  -0.78097  -0.77909
 Alpha  occ. eigenvalues --   -0.76852  -0.76564  -0.76099  -0.75056  -0.73775
 Alpha  occ. eigenvalues --   -0.73506  -0.72338  -0.71864  -0.71132  -0.70873
 Alpha  occ. eigenvalues --   -0.70785  -0.70495  -0.69289  -0.68516  -0.68228
 Alpha  occ. eigenvalues --   -0.67336  -0.66287  -0.65205  -0.64736  -0.63633
 Alpha  occ. eigenvalues --   -0.62804  -0.62015  -0.60958  -0.60825  -0.60261
 Alpha  occ. eigenvalues --   -0.60161  -0.59348  -0.58773  -0.58117  -0.58003
 Alpha  occ. eigenvalues --   -0.56957  -0.56511  -0.55733  -0.55567  -0.55295
 Alpha  occ. eigenvalues --   -0.55030  -0.54068  -0.53875  -0.53536  -0.53323
 Alpha  occ. eigenvalues --   -0.52200  -0.51861  -0.51536  -0.51275  -0.51061
 Alpha  occ. eigenvalues --   -0.50489  -0.50307  -0.50068  -0.49737  -0.49417
 Alpha  occ. eigenvalues --   -0.49312  -0.48997  -0.48631  -0.48473  -0.47956
 Alpha  occ. eigenvalues --   -0.47721  -0.47468  -0.47279  -0.47103  -0.46913
 Alpha  occ. eigenvalues --   -0.46648  -0.46209  -0.46015  -0.45735  -0.45630
 Alpha  occ. eigenvalues --   -0.45422  -0.45408  -0.45253  -0.45115  -0.44905
 Alpha  occ. eigenvalues --   -0.44460  -0.44191  -0.43951  -0.43749  -0.43694
 Alpha  occ. eigenvalues --   -0.43492  -0.43391  -0.42903  -0.42556  -0.42510
 Alpha  occ. eigenvalues --   -0.42455  -0.42284  -0.42022  -0.41813  -0.41619
 Alpha  occ. eigenvalues --   -0.41406  -0.41224  -0.40976  -0.40825  -0.40269
 Alpha  occ. eigenvalues --   -0.40221  -0.40028  -0.39783  -0.39642  -0.39538
 Alpha  occ. eigenvalues --   -0.39365  -0.39094  -0.39006  -0.38917  -0.38643
 Alpha  occ. eigenvalues --   -0.38573  -0.38526  -0.38223  -0.38003  -0.37770
 Alpha  occ. eigenvalues --   -0.37585  -0.37333  -0.37287  -0.36991  -0.36868
 Alpha  occ. eigenvalues --   -0.36552  -0.36399  -0.36342  -0.36173  -0.36050
 Alpha  occ. eigenvalues --   -0.35721  -0.35242  -0.35080  -0.34777  -0.34387
 Alpha  occ. eigenvalues --   -0.33963  -0.33727  -0.33691  -0.33412  -0.33391
 Alpha  occ. eigenvalues --   -0.33020  -0.33001  -0.32800  -0.32534  -0.32113
 Alpha  occ. eigenvalues --   -0.31701  -0.31292  -0.31164  -0.31025  -0.29944
 Alpha  occ. eigenvalues --   -0.29890  -0.29508  -0.28926  -0.28864  -0.27390
 Alpha  occ. eigenvalues --   -0.26785  -0.26628  -0.26504  -0.26321  -0.21944
 Alpha  occ. eigenvalues --   -0.19928
 Alpha virt. eigenvalues --   -0.07273  -0.03136  -0.00121   0.02216   0.02861
 Alpha virt. eigenvalues --    0.03132   0.04180   0.04645   0.05187   0.05257
 Alpha virt. eigenvalues --    0.06002   0.08576   0.08968   0.09442   0.09519

 Mulliken charges:
               1
     1  Mg   0.842764
     2  C    0.091215
     3  C   -0.222886
     4  C   -0.192822
     5  C   -0.164581
     6  N   -0.602983
     7  C    0.263391
     8  C   -0.195862
     9  C   -0.133503
    10  C    0.358762
    11  C   -0.334866
    12  C   -0.165498
    13  C   -0.290389
    14  C    0.629734
    15  O   -0.497280
    16  O   -0.498668
    17  N   -0.728778
    18  C    0.292079
    19  C    0.015819
    20  C    0.027242
    21  C    0.302543
    22  C   -0.368993
    23  C   -0.051984
    24  C   -0.258713
    25  N   -0.710672
    26  C    0.330612
    27  C    0.088469
    28  C    0.001780
    29  C    0.282655
    30  C   -0.397745
    31  C   -0.230068
    32  C   -0.280131
    33  N   -0.689118
    34  C    0.263076
    35  C    0.025699
    36  C    0.090434
    37  C    0.253961
    38  C   -0.390908
    39  C    0.320103
    40  O   -0.463289
    41  C   -0.323039
    42  C    0.621433
    43  O   -0.513748
    44  O   -0.400388
    45  C   -0.080791
    46  C    0.030289
    47  C   -0.123762
    48  C    0.110938
    49  C   -0.341821
    50  C   -0.201604
    51  C   -0.190517
    52  C   -0.167874
    53  C   -0.065609
    54  C   -0.294856
    55  C   -0.145724
    56  C   -0.162078
    57  C   -0.174881
    58  C   -0.074085
    59  C   -0.299649
    60  C   -0.152234
    61  C   -0.172897
    62  C   -0.177952
    63  C   -0.033660
    64  C   -0.288571
    65  C   -0.290700
    66  H    0.071055
    67  H    0.087254
    68  H    0.076836
    69  H    0.135217
    70  H    0.112245
    71  H    0.133092
    72  H    0.089230
    73  H    0.132241
    74  H    0.127827
    75  H    0.120210
    76  H    0.143770
    77  H    0.142195
    78  H    0.126474
    79  H    0.125135
    80  H    0.126017
    81  H    0.091568
    82  H    0.109897
    83  H    0.100750
    84  H    0.128550
    85  H    0.109197
    86  H    0.083192
    87  H    0.084873
    88  H    0.096282
    89  H    0.100665
    90  H    0.112753
    91  H    0.101291
    92  H    0.098200
    93  H    0.147909
    94  H    0.125992
    95  H    0.164103
    96  H    0.110949
    97  H    0.130798
    98  H    0.113509
    99  H    0.141791
   100  H    0.111393
   101  H    0.094538
   102  H    0.100473
   103  H    0.129819
   104  H    0.111135
   105  H    0.041002
   106  H    0.098945
   107  H    0.094527
   108  H    0.087355
   109  H    0.085862
   110  H    0.086238
   111  H    0.075981
   112  H    0.117885
   113  H    0.085627
   114  H    0.081284
   115  H    0.096942
   116  H    0.068515
   117  H    0.100368
   118  H    0.074676
   119  H    0.075448
   120  H    0.068132
   121  H    0.081576
   122  H    0.114645
   123  H    0.088992
   124  H    0.113646
   125  H    0.089133
   126  H    0.065430
   127  H    0.085117
   128  H    0.089931
   129  H    0.078739
   130  H    0.090813
   131  H    0.072634
   132  H    0.099113
   133  H    0.089453
   134  H    0.102138
   135  H    0.073078
   136  H    0.096963
   137  H    0.084574
 Sum of Mulliken charges =  -0.00000

 Dipole moment (field-independent basis, Debye):
    X=              1.3378    Y=              5.9375    Z=             -0.1636  Tot=              6.0885
 Quadrupole moment (field-independent basis, Debye-Ang):
   XX=           -352.1758   YY=           -394.9667   ZZ=           -395.9960
   XY=            -34.6261   XZ=              6.3307   YZ=              2.2075

 Normal termination of Gaussian 16 at Mon Sep 23 03:51:53 2019.
