 Gaussian 16, Revision A.03,
 Gaussian 16:  ES64L-G16RevA.03 25-Dec-2016

 ----------------------------------------------------------------------
 # td=(NStates=1) iop(3/107=0140000000,3/108=0140000000) CAM-B3LYP/6-31
 G(d,p)
 ----------------------------------------------------------------------

 --
 TD
 --
 Symbolic Z-matrix:
 Charge =  0 Multiplicity = 1

                         Standard orientation:
 ---------------------------------------------------------------------
 Center     Atomic      Atomic             Coordinates (Angstroms)
 Number     Number       Type             X           Y           Z
 ---------------------------------------------------------------------
      1         12           0       -7.088508    0.622880    0.144376
      2          6           0       -4.856539   -2.018586    0.553538
      3          6           0       -4.733991    2.866824    1.091196
      4          6           0       -9.383262    3.059415   -0.341997
      5          6           0       -9.564510   -1.754111   -0.932959
      6          7           0       -5.187466    0.389495    0.769232
      7          6           0       -4.380018   -0.742110    0.824640
      8          6           0       -2.966998   -0.431567    1.265015
      9          6           0       -3.042823    1.008600    1.740616
     10          6           0       -4.368391    1.459549    1.202668
     11          6           0       -2.964788    1.172435    3.269412
     12          6           0       -1.887952   -0.630156    0.118513
     13          6           0       -0.441706   -0.471873    0.662681
     14          6           0        0.528332   -0.669529   -0.509765
     15          8           0        0.132317   -1.077683   -1.569894
     16          8           0        1.812216   -0.408263   -0.197580
     17          7           0       -7.064229    2.659391    0.285851
     18          6           0       -6.046983    3.431749    0.742164
     19          6           0       -6.493077    4.811326    0.855509
     20          6           0       -7.804088    4.900944    0.337137
     21          6           0       -8.077436    3.547648    0.073483
     22          6           0       -5.485514    5.861806    1.092550
     23          6           0       -8.594776    6.188480    0.186902
     24          6           0       -8.295482    7.410830    0.742999
     25          7           0       -9.156415    0.607665   -0.431268
     26          6           0       -9.870264    1.792429   -0.722997
     27          6           0      -11.246411    1.486382   -1.088397
     28          6           0      -11.186630    0.161161   -1.330160
     29          6           0       -9.898014   -0.484531   -0.878541
     30          6           0      -12.293757    2.614505   -1.497482
     31          6           0      -12.219406   -0.766828   -1.921671
     32          6           0      -12.284022   -0.921692   -3.414837
     33          7           0       -7.257298   -1.411998   -0.143051
     34          6           0       -8.298066   -2.275943   -0.548889
     35          6           0       -7.781063   -3.663851   -0.547608
     36          6           0       -6.487709   -3.509842   -0.114494
     37          6           0       -6.203099   -2.212451    0.085684
     38          6           0       -8.587395   -4.767569   -0.880688
     39          6           0       -5.333698   -4.361690    0.218776
     40          8           0       -5.180712   -5.584941    0.202756
     41          6           0       -4.090697   -3.262351    0.579573
     42          6           0       -3.560447   -3.654518    1.876148
     43          8           0       -3.780883   -2.997995    2.845887
     44          8           0       -2.865539   -4.843752    1.845862
     45          6           0       -2.317398   -5.209677    3.218570
     46          6           0        2.831458   -0.681783   -1.277229
     47          6           0        4.096913   -0.548117   -0.589994
     48          6           0        5.156280    0.261071   -0.912881
     49          6           0        5.192207    1.119605   -2.232215
     50          6           0        6.446256    0.255606   -0.153620
     51          6           0        7.700396   -0.396050   -1.021706
     52          6           0        8.871414   -0.331844   -0.174448
     53          6           0       10.183960   -0.553738   -0.885565
     54          6           0       10.109991   -2.080361   -1.543062
     55          6           0       11.448855   -0.360054   -0.002542
     56          6           0       12.736255   -0.487339   -0.666060
     57          6           0       13.903945   -0.254876    0.129297
     58          6           0       15.395037   -0.245634   -0.449907
     59          6           0       15.761712   -1.699541   -0.899247
     60          6           0       16.451508    0.441221    0.485169
     61          6           0       17.717981    0.654371   -0.279918
     62          6           0       18.812242    1.354245    0.704322
     63          6           0       20.278492    1.450988    0.217884
     64          6           0       20.442260    2.242797   -1.049299
     65          6           0       21.111371    2.217660    1.345477
     66          1           0       -3.920677    3.432659    1.422775
     67          1           0      -10.346677    3.858869   -0.493716
     68          1           0      -10.271512   -2.469474   -1.144974
     69          1           0       -2.534392   -0.922276    2.076804
     70          1           0       -2.289717    1.681628    1.312981
     71          1           0       -1.934593    0.973150    3.752363
     72          1           0       -3.172840    2.093001    3.413532
     73          1           0       -3.444221    0.537542    3.806134
     74          1           0       -1.852658   -1.551830   -0.433868
     75          1           0       -2.093982    0.211810   -0.551216
     76          1           0       -0.303622    0.621458    1.055481
     77          1           0       -0.255957   -1.148696    1.367688
     78          1           0       -5.537238    6.690557    0.265142
     79          1           0       -5.759444    6.450130    1.968441
     80          1           0       -4.362868    5.616328    1.150640
     81          1           0       -9.471199    6.137688   -0.509005
     82          1           0       -8.991355    8.081025    0.497467
     83          1           0       -7.680412    7.390074    1.759153
     84          1           0      -11.906378    3.390326   -2.248068
     85          1           0      -13.276583    2.131725   -1.827450
     86          1           0      -12.417472    3.045129   -0.602192
     87          1           0      -12.353625   -1.743321   -1.522455
     88          1           0      -13.293868   -0.408474   -1.500215
     89          1           0      -13.003647   -1.732771   -3.606566
     90          1           0      -12.454237    0.043308   -3.979224
     91          1           0      -11.443179   -1.337719   -3.585757
     92          1           0       -8.830811   -4.895089   -1.999953
     93          1           0       -8.230562   -5.823832   -0.614223
     94          1           0       -9.813124   -4.861775   -0.588066
     95          1           0       -3.275106   -3.187769   -0.088290
     96          1           0       -1.948120   -4.397627    3.918368
     97          1           0       -3.165943   -5.677950    3.617507
     98          1           0       -1.551448   -6.025054    2.932328
     99          1           0        2.541138   -1.794447   -1.675890
    100          1           0        2.594409   -0.017662   -2.077648
    101          1           0        4.181678   -1.043193    0.537233
    102          1           0        4.117432    1.072694   -2.633979
    103          1           0        5.371177    2.243266   -2.036736
    104          1           0        5.610443    0.577380   -2.978163
    105          1           0        6.487520    1.242337    0.164355
    106          1           0        6.338530   -0.197481    0.694773
    107          1           0        7.126870   -1.521474   -1.295500
    108          1           0        7.721408    0.205098   -1.929945
    109          1           0        8.837954    0.698801    0.433650
    110          1           0        8.763704   -1.190741    0.611453
    111          1           0       10.327912    0.178554   -1.698464
    112          1           0        9.306152   -1.955828   -2.450964
    113          1           0       11.195019   -2.300437   -1.997763
    114          1           0        9.966172   -2.756287   -0.735739
    115          1           0       11.136236    0.526509    0.444188
    116          1           0       11.316493   -1.274188    0.957885
    117          1           0       12.903673   -1.525644   -1.002233
    118          1           0       12.623787    0.161409   -1.572861
    119          1           0       13.697420    0.736280    0.576336
    120          1           0       13.982436   -0.864266    1.106595
    121          1           0       15.285089    0.393817   -1.402384
    122          1           0       15.860726   -2.603101   -0.106471
    123          1           0       14.888687   -1.990553   -1.400502
    124          1           0       16.764664   -1.576191   -1.532194
    125          1           0       15.952136    1.456363    0.635556
    126          1           0       16.668300   -0.216780    1.288776
    127          1           0       18.329511   -0.344451   -0.659576
    128          1           0       17.720408    1.350950   -1.086564
    129          1           0       18.531147    2.405378    0.633079
    130          1           0       18.831822    0.822810    1.523485
    131          1           0       20.684801    0.477772    0.131541
    132          1           0       20.082513    3.228342   -0.837567
    133          1           0       21.534952    2.380137   -1.424029
    134          1           0       19.825847    1.623661   -1.765335
    135          1           0       21.207710    1.566682    2.235543
    136          1           0       22.274207    2.569375    1.027597
    137          1           0       20.595400    3.226407    1.652293
 ---------------------------------------------------------------------

 SCF Done:  E(RCAM-B3LYP) =  -2933.42884438     A.U. after   16 cycles

 Excitation energies and oscillator strengths:

 Excited State   1:      Singlet-A      1.9206 eV  645.55 nm  f=0.3078  <S**2>=0.000
     240 -> 243        0.21033
     241 -> 242        0.67145
 This state for optimization and/or second-order correction.
 Total Energy, E(TD-HF/TD-DFT) =  -2933.35826324
 Copying the excited state density for this state as the 1-particle RhoCI density.

 The electronic state is 1-A.
 Alpha  occ. eigenvalues --  -46.79820 -19.21588 -19.21168 -19.16617 -19.16257
 Alpha  occ. eigenvalues --  -19.15727 -14.37928 -14.35513 -14.34864 -14.34810
 Alpha  occ. eigenvalues --  -10.33905 -10.33009 -10.31059 -10.28560 -10.27236
 Alpha  occ. eigenvalues --  -10.26825 -10.25838 -10.25644 -10.25581 -10.24935
 Alpha  occ. eigenvalues --  -10.24897 -10.24324 -10.24300 -10.24012 -10.23938
 Alpha  occ. eigenvalues --  -10.23816 -10.23482 -10.23481 -10.23395 -10.23000
 Alpha  occ. eigenvalues --  -10.22979 -10.22965 -10.22860 -10.22812 -10.22684
 Alpha  occ. eigenvalues --  -10.22666 -10.22644 -10.22612 -10.22557 -10.22495
 Alpha  occ. eigenvalues --  -10.22438 -10.22409 -10.22364 -10.22246 -10.22210
 Alpha  occ. eigenvalues --  -10.22187 -10.22097 -10.22033 -10.22017 -10.21937
 Alpha  occ. eigenvalues --  -10.21911 -10.21714 -10.21687 -10.21679 -10.21580
 Alpha  occ. eigenvalues --  -10.21555 -10.21161 -10.21092 -10.20782 -10.20518
 Alpha  occ. eigenvalues --  -10.20471 -10.20152 -10.19699 -10.19394 -10.19062
 Alpha  occ. eigenvalues --   -3.08375  -1.83320  -1.82838  -1.82791  -1.12164
 Alpha  occ. eigenvalues --   -1.11339  -1.05036  -1.04133  -1.03410  -0.99142
 Alpha  occ. eigenvalues --   -0.98666  -0.97168  -0.95845  -0.87227  -0.86530
 Alpha  occ. eigenvalues --   -0.85567  -0.84912  -0.84464  -0.83469  -0.83368
 Alpha  occ. eigenvalues --   -0.83242  -0.82862  -0.82672  -0.81927  -0.81302
 Alpha  occ. eigenvalues --   -0.80629  -0.79072  -0.78810  -0.78173  -0.77501
 Alpha  occ. eigenvalues --   -0.76800  -0.76383  -0.75216  -0.74827  -0.73945
 Alpha  occ. eigenvalues --   -0.73371  -0.72412  -0.72221  -0.71372  -0.70462
 Alpha  occ. eigenvalues --   -0.70287  -0.69666  -0.69103  -0.68464  -0.67727
 Alpha  occ. eigenvalues --   -0.66961  -0.65787  -0.65063  -0.64357  -0.63573
 Alpha  occ. eigenvalues --   -0.62740  -0.62483  -0.60786  -0.60375  -0.60099
 Alpha  occ. eigenvalues --   -0.59545  -0.58610  -0.58398  -0.58105  -0.57500
 Alpha  occ. eigenvalues --   -0.56759  -0.56584  -0.56050  -0.55501  -0.55077
 Alpha  occ. eigenvalues --   -0.54798  -0.54163  -0.53501  -0.53061  -0.52522
 Alpha  occ. eigenvalues --   -0.51827  -0.51770  -0.51667  -0.51290  -0.50813
 Alpha  occ. eigenvalues --   -0.50718  -0.50235  -0.49866  -0.49197  -0.49085
 Alpha  occ. eigenvalues --   -0.48663  -0.48555  -0.48303  -0.48088  -0.48032
 Alpha  occ. eigenvalues --   -0.47769  -0.47423  -0.47203  -0.47083  -0.46981
 Alpha  occ. eigenvalues --   -0.46657  -0.46252  -0.46223  -0.46037  -0.45795
 Alpha  occ. eigenvalues --   -0.45575  -0.45341  -0.45215  -0.45012  -0.44655
 Alpha  occ. eigenvalues --   -0.44575  -0.44194  -0.43844  -0.43668  -0.43602
 Alpha  occ. eigenvalues --   -0.43224  -0.43165  -0.42958  -0.42696  -0.42277
 Alpha  occ. eigenvalues --   -0.42073  -0.41883  -0.41830  -0.41419  -0.41155
 Alpha  occ. eigenvalues --   -0.40887  -0.40837  -0.40766  -0.40640  -0.40490
 Alpha  occ. eigenvalues --   -0.40313  -0.40207  -0.40098  -0.39833  -0.39668
 Alpha  occ. eigenvalues --   -0.39562  -0.39306  -0.39160  -0.39140  -0.39061
 Alpha  occ. eigenvalues --   -0.38833  -0.38690  -0.38453  -0.38280  -0.38125
 Alpha  occ. eigenvalues --   -0.37908  -0.37883  -0.37695  -0.37488  -0.37136
 Alpha  occ. eigenvalues --   -0.36807  -0.36728  -0.36643  -0.36338  -0.36161
 Alpha  occ. eigenvalues --   -0.36116  -0.36045  -0.35715  -0.34880  -0.34584
 Alpha  occ. eigenvalues --   -0.34319  -0.34123  -0.33883  -0.33534  -0.33451
 Alpha  occ. eigenvalues --   -0.33197  -0.32941  -0.32819  -0.32485  -0.32456
 Alpha  occ. eigenvalues --   -0.32056  -0.31688  -0.31540  -0.30242  -0.30142
 Alpha  occ. eigenvalues --   -0.29769  -0.29523  -0.29156  -0.27923  -0.26838
 Alpha  occ. eigenvalues --   -0.26601  -0.26283  -0.25898  -0.24964  -0.21177
 Alpha  occ. eigenvalues --   -0.19935
 Alpha virt. eigenvalues --   -0.07717  -0.03197   0.00064   0.01417   0.03074
 Alpha virt. eigenvalues --    0.04070   0.04612   0.05351   0.05501   0.05606
 Alpha virt. eigenvalues --    0.06338   0.08514   0.08622   0.08987   0.09926

 Mulliken charges:
               1
     1  Mg   0.817762
     2  C    0.091642
     3  C   -0.188155
     4  C   -0.185542
     5  C   -0.144856
     6  N   -0.654334
     7  C    0.320975
     8  C   -0.145396
     9  C   -0.162975
    10  C    0.307336
    11  C   -0.288406
    12  C   -0.178098
    13  C   -0.271137
    14  C    0.602530
    15  O   -0.464780
    16  O   -0.482071
    17  N   -0.683550
    18  C    0.312285
    19  C   -0.009458
    20  C    0.062401
    21  C    0.279369
    22  C   -0.387676
    23  C   -0.078867
    24  C   -0.232994
    25  N   -0.676896
    26  C    0.270199
    27  C    0.023099
    28  C    0.007009
    29  C    0.355777
    30  C   -0.361266
    31  C   -0.276238
    32  C   -0.286911
    33  N   -0.742734
    34  C    0.228634
    35  C    0.102181
    36  C    0.041599
    37  C    0.338811
    38  C   -0.440778
    39  C    0.354302
    40  O   -0.456768
    41  C   -0.360542
    42  C    0.635925
    43  O   -0.463232
    44  O   -0.478381
    45  C   -0.105992
    46  C   -0.000605
    47  C   -0.101664
    48  C    0.071048
    49  C   -0.364809
    50  C   -0.215228
    51  C   -0.164675
    52  C   -0.142807
    53  C   -0.080475
    54  C   -0.306997
    55  C   -0.133726
    56  C   -0.150127
    57  C   -0.182609
    58  C   -0.065759
    59  C   -0.301325
    60  C   -0.144134
    61  C   -0.196240
    62  C   -0.150557
    63  C   -0.076915
    64  C   -0.291824
    65  C   -0.297017
    66  H    0.067593
    67  H    0.059522
    68  H    0.078076
    69  H    0.120680
    70  H    0.102179
    71  H    0.082660
    72  H    0.113577
    73  H    0.139316
    74  H    0.129172
    75  H    0.110532
    76  H    0.115221
    77  H    0.140572
    78  H    0.118977
    79  H    0.117951
    80  H    0.110824
    81  H    0.091472
    82  H    0.104333
    83  H    0.100949
    84  H    0.124782
    85  H    0.114857
    86  H    0.146186
    87  H    0.110053
    88  H    0.063769
    89  H    0.097360
    90  H    0.104991
    91  H    0.125078
    92  H    0.125988
    93  H    0.142192
    94  H    0.094900
    95  H    0.155018
    96  H    0.139281
    97  H    0.152665
    98  H    0.123474
    99  H    0.119377
   100  H    0.137448
   101  H    0.079916
   102  H    0.087990
   103  H    0.118835
   104  H    0.144100
   105  H    0.104263
   106  H    0.101678
   107  H    0.078740
   108  H    0.107523
   109  H    0.079209
   110  H    0.091097
   111  H    0.078887
   112  H    0.094795
   113  H    0.085658
   114  H    0.117795
   115  H    0.098780
   116  H    0.022270
   117  H    0.098839
   118  H    0.087235
   119  H    0.072014
   120  H    0.079185
   121  H    0.073086
   122  H    0.079451
   123  H    0.110606
   124  H    0.093708
   125  H    0.095987
   126  H    0.104031
   127  H    0.064663
   128  H    0.104106
   129  H    0.089774
   130  H    0.096434
   131  H    0.089293
   132  H    0.102426
   133  H    0.092149
   134  H    0.093749
   135  H    0.099143
   136  H    0.066540
   137  H    0.087660
 Sum of Mulliken charges =  -0.00000

 Dipole moment (field-independent basis, Debye):
    X=              2.5612    Y=              4.0332    Z=              0.4924  Tot=              4.8030
 Quadrupole moment (field-independent basis, Debye-Ang):
   XX=           -358.9134   YY=           -396.8875   ZZ=           -394.8588
   XY=            -14.7244   XZ=             11.1459   YZ=             -4.6083

 Normal termination of Gaussian 16 at Thu Sep  5 18:55:40 2019.
