 Gaussian 16, Revision A.03,
 Gaussian 16:  ES64L-G16RevA.03 25-Dec-2016

 ----------------------------------------------------------------------
 # td=(NStates=1) iop(3/107=0140000000,3/108=0140000000) CAM-B3LYP/6-31
 G(d,p)
 ----------------------------------------------------------------------

 --
 TD
 --
 Symbolic Z-matrix:
 Charge =  0 Multiplicity = 1

                         Standard orientation:
 ---------------------------------------------------------------------
 Center     Atomic      Atomic             Coordinates (Angstroms)
 Number     Number       Type             X           Y           Z
 ---------------------------------------------------------------------
      1         12           0       -7.177338    0.605880    0.125899
      2          6           0       -4.827508   -1.942455    0.464879
      3          6           0       -4.779896    2.760775    1.285131
      4          6           0       -9.330528    2.961761   -0.416718
      5          6           0       -9.434667   -1.740551   -0.931789
      6          7           0       -5.080744    0.439413    0.780994
      7          6           0       -4.363076   -0.703753    0.823223
      8          6           0       -2.967798   -0.424506    1.262240
      9          6           0       -3.066549    1.053404    1.792605
     10          6           0       -4.347513    1.481334    1.347007
     11          6           0       -2.985076    1.209458    3.309839
     12          6           0       -2.042620   -0.539497    0.171515
     13          6           0       -0.525999   -0.495237    0.592071
     14          6           0        0.461837   -0.719515   -0.519086
     15          8           0        0.188067   -0.956409   -1.671147
     16          8           0        1.818146   -0.526874   -0.092977
     17          7           0       -7.110015    2.582450    0.402445
     18          6           0       -6.011220    3.359351    0.794440
     19          6           0       -6.342343    4.813810    0.698458
     20          6           0       -7.752296    4.840851    0.401233
     21          6           0       -8.063585    3.453812    0.067688
     22          6           0       -5.500835    5.933612    1.193958
     23          6           0       -8.429771    6.065388    0.126362
     24          6           0       -8.350539    7.297243    0.616604
     25          7           0       -9.044100    0.609077   -0.578581
     26          6           0       -9.772161    1.728425   -0.660475
     27          6           0      -11.116461    1.444177   -1.119913
     28          6           0      -11.094642    0.084060   -1.242421
     29          6           0       -9.811340   -0.413231   -0.879224
     30          6           0      -12.246449    2.568599   -1.461709
     31          6           0      -12.249457   -0.747534   -1.828261
     32          6           0      -12.008314   -1.222771   -3.235021
     33          7           0       -7.259380   -1.375291   -0.185135
     34          6           0       -8.214007   -2.289079   -0.658338
     35          6           0       -7.820829   -3.614432   -0.634610
     36          6           0       -6.463663   -3.511730   -0.167902
     37          6           0       -6.204112   -2.214044    0.010998
     38          6           0       -8.580777   -4.894612   -0.876400
     39          6           0       -5.367118   -4.338681    0.228925
     40          8           0       -5.150673   -5.556173    0.218637
     41          6           0       -4.215098   -3.393002    0.618214
     42          6           0       -3.456058   -3.616331    1.890787
     43          8           0       -3.739466   -3.124593    2.956570
     44          8           0       -2.701618   -4.751741    1.797296
     45          6           0       -2.100229   -5.341091    2.941759
     46          6           0        2.805987   -0.622163   -1.201956
     47          6           0        4.078184   -0.364478   -0.553292
     48          6           0        4.983571    0.528663   -0.988817
     49          6           0        4.943379    1.453029   -2.117666
     50          6           0        6.249564    0.422709   -0.168167
     51          6           0        7.525773   -0.044554   -1.082814
     52          6           0        8.843671   -0.097652   -0.167130
     53          6           0       10.130900   -0.437846   -0.893743
     54          6           0       10.147234   -1.932295   -1.350150
     55          6           0       11.299523   -0.199007    0.024620
     56          6           0       12.722216   -0.362718   -0.760064
     57          6           0       14.008803   -0.140876    0.166494
     58          6           0       15.305018   -0.101284   -0.616262
     59          6           0       15.687078   -1.491904   -1.134931
     60          6           0       16.350868    0.341837    0.394557
     61          6           0       17.770729    0.436883   -0.169185
     62          6           0       18.817879    1.076722    0.808633
     63          6           0       20.188060    1.146743    0.219615
     64          6           0       20.190941    2.048452   -1.012229
     65          6           0       21.112841    1.779878    1.344544
     66          1           0       -3.986903    3.449404    1.764912
     67          1           0      -10.118161    3.918899   -0.617248
     68          1           0      -10.198962   -2.440460   -1.464062
     69          1           0       -2.701842   -1.174402    2.077316
     70          1           0       -2.139368    1.554754    1.298631
     71          1           0       -1.958693    1.050382    3.739927
     72          1           0       -3.277043    2.287497    3.466092
     73          1           0       -3.680569    0.568471    3.916846
     74          1           0       -2.216599   -1.497431   -0.406393
     75          1           0       -2.322138    0.370001   -0.548321
     76          1           0       -0.347540    0.431628    0.957666
     77          1           0       -0.437109   -1.190224    1.348554
     78          1           0       -5.444700    6.835853    0.538728
     79          1           0       -5.580399    6.112729    2.281559
     80          1           0       -4.470762    5.596510    1.101133
     81          1           0       -9.389497    5.941737   -0.441126
     82          1           0       -9.174256    7.968596    0.198541
     83          1           0       -7.641248    7.477709    1.458902
     84          1           0      -12.014229    3.175573   -2.517720
     85          1           0      -13.110704    1.944079   -1.784424
     86          1           0      -12.311845    3.261330   -0.661133
     87          1           0      -12.406613   -1.513892   -1.162135
     88          1           0      -13.133100   -0.149548   -1.756655
     89          1           0      -12.857494   -1.811335   -3.644410
     90          1           0      -11.825618   -0.399158   -3.895685
     91          1           0      -11.107176   -1.875498   -3.264880
     92          1           0       -9.087436   -4.808126   -2.044829
     93          1           0       -7.939698   -5.956383   -1.107152
     94          1           0       -9.573420   -4.961182   -0.216736
     95          1           0       -3.320886   -3.578053   -0.026525
     96          1           0       -1.454928   -4.607794    3.552719
     97          1           0       -2.866332   -5.368907    3.790086
     98          1           0       -1.515741   -6.235854    2.643327
     99          1           0        2.616906   -1.531033   -1.670800
    100          1           0        2.270298   -0.049225   -1.960353
    101          1           0        4.163295   -0.998259    0.379356
    102          1           0        3.948316    1.668655   -2.608412
    103          1           0        5.336848    2.593534   -1.893524
    104          1           0        5.693003    0.784215   -2.617695
    105          1           0        6.389674    1.447166    0.149669
    106          1           0        6.347722   -0.493089    0.560359
    107          1           0        7.506427   -1.078754   -1.406064
    108          1           0        7.582039    0.589872   -1.955397
    109          1           0        9.140219    0.770905    0.442805
    110          1           0        8.570177   -0.813059    0.676815
    111          1           0       10.308490    0.158442   -1.810976
    112          1           0        9.210229   -1.927735   -1.969156
    113          1           0       10.900582   -2.085320   -2.142427
    114          1           0       10.195564   -2.600776   -0.622991
    115          1           0       11.254370    0.881733    0.456413
    116          1           0       11.458280   -0.803217    0.833301
    117          1           0       12.640775   -1.354515   -1.048229
    118          1           0       12.710777    0.234656   -1.657626
    119          1           0       13.866882    0.787517    0.788800
    120          1           0       14.132264   -0.877132    0.899425
    121          1           0       15.284758    0.622713   -1.579038
    122          1           0       15.711023   -2.110320   -0.443258
    123          1           0       14.565979   -1.890443   -1.654523
    124          1           0       16.478651   -1.646824   -1.682849
    125          1           0       16.012357    1.328316    0.827684
    126          1           0       16.587880   -0.238027    1.519947
    127          1           0       18.120648   -0.520877   -0.441040
    128          1           0       17.532728    1.116024   -1.092957
    129          1           0       18.450693    2.111839    0.922081
    130          1           0       18.881959    0.406646    1.732156
    131          1           0       20.666064    0.136813    0.028962
    132          1           0       19.973981    3.195544   -0.839193
    133          1           0       21.182604    2.088609   -1.383341
    134          1           0       19.464827    1.809276   -1.566534
    135          1           0       21.039530    1.415575    2.199454
    136          1           0       22.190798    1.865375    0.951462
    137          1           0       20.806337    2.889598    1.497538
 ---------------------------------------------------------------------

 SCF Done:  E(RCAM-B3LYP) =  -2933.46957441     A.U. after   16 cycles

 Excitation energies and oscillator strengths:

 Excited State   1:      Singlet-A      2.0242 eV  612.50 nm  f=0.2812  <S**2>=0.000
     240 -> 243       -0.21149
     241 -> 242        0.66321
 This state for optimization and/or second-order correction.
 Total Energy, E(TD-HF/TD-DFT) =  -2933.39518584
 Copying the excited state density for this state as the 1-particle RhoCI density.

 The electronic state is 1-A.
 Alpha  occ. eigenvalues --  -46.79786 -19.21708 -19.19692 -19.17102 -19.16537
 Alpha  occ. eigenvalues --  -19.15386 -14.37184 -14.36016 -14.34899 -14.34803
 Alpha  occ. eigenvalues --  -10.34364 -10.34228 -10.30082 -10.27683 -10.26648
 Alpha  occ. eigenvalues --  -10.25998 -10.25696 -10.25453 -10.25344 -10.24861
 Alpha  occ. eigenvalues --  -10.24387 -10.24322 -10.24298 -10.24176 -10.24145
 Alpha  occ. eigenvalues --  -10.24002 -10.23969 -10.23858 -10.23709 -10.23606
 Alpha  occ. eigenvalues --  -10.23398 -10.23076 -10.23003 -10.22890 -10.22804
 Alpha  occ. eigenvalues --  -10.22799 -10.22637 -10.22632 -10.22585 -10.22456
 Alpha  occ. eigenvalues --  -10.22431 -10.22149 -10.22144 -10.22140 -10.22118
 Alpha  occ. eigenvalues --  -10.22014 -10.21968 -10.21930 -10.21649 -10.21636
 Alpha  occ. eigenvalues --  -10.21595 -10.21468 -10.20932 -10.20914 -10.20834
 Alpha  occ. eigenvalues --  -10.20828 -10.20754 -10.20712 -10.20645 -10.20323
 Alpha  occ. eigenvalues --  -10.20217 -10.19509 -10.19198 -10.18744 -10.18557
 Alpha  occ. eigenvalues --   -3.08527  -1.83454  -1.83024  -1.82928  -1.12637
 Alpha  occ. eigenvalues --   -1.10326  -1.04480  -1.04277  -1.02568  -1.00987
 Alpha  occ. eigenvalues --   -0.99402  -0.98856  -0.98123  -0.87381  -0.86289
 Alpha  occ. eigenvalues --   -0.85659  -0.85515  -0.84558  -0.84338  -0.84171
 Alpha  occ. eigenvalues --   -0.83824  -0.83567  -0.83173  -0.81917  -0.80924
 Alpha  occ. eigenvalues --   -0.79709  -0.79187  -0.78691  -0.77874  -0.77503
 Alpha  occ. eigenvalues --   -0.76846  -0.76347  -0.75812  -0.74892  -0.73840
 Alpha  occ. eigenvalues --   -0.73537  -0.72347  -0.72030  -0.71671  -0.71457
 Alpha  occ. eigenvalues --   -0.71388  -0.70769  -0.69786  -0.68542  -0.67988
 Alpha  occ. eigenvalues --   -0.67232  -0.66223  -0.65725  -0.64859  -0.64169
 Alpha  occ. eigenvalues --   -0.62620  -0.62347  -0.60981  -0.60754  -0.60217
 Alpha  occ. eigenvalues --   -0.59634  -0.59431  -0.58450  -0.58383  -0.58099
 Alpha  occ. eigenvalues --   -0.57988  -0.56703  -0.56512  -0.55734  -0.55306
 Alpha  occ. eigenvalues --   -0.55017  -0.54201  -0.53558  -0.52576  -0.52417
 Alpha  occ. eigenvalues --   -0.52205  -0.51765  -0.51269  -0.50802  -0.50748
 Alpha  occ. eigenvalues --   -0.50480  -0.49759  -0.49551  -0.49342  -0.49098
 Alpha  occ. eigenvalues --   -0.48756  -0.48600  -0.48530  -0.48145  -0.48085
 Alpha  occ. eigenvalues --   -0.47817  -0.47545  -0.47532  -0.47233  -0.47051
 Alpha  occ. eigenvalues --   -0.46849  -0.46627  -0.46441  -0.46390  -0.46137
 Alpha  occ. eigenvalues --   -0.45902  -0.45345  -0.45098  -0.44995  -0.44649
 Alpha  occ. eigenvalues --   -0.44541  -0.44340  -0.44180  -0.44080  -0.43576
 Alpha  occ. eigenvalues --   -0.43475  -0.43361  -0.43170  -0.42743  -0.42019
 Alpha  occ. eigenvalues --   -0.41986  -0.41913  -0.41775  -0.41638  -0.41579
 Alpha  occ. eigenvalues --   -0.41392  -0.41244  -0.41140  -0.40709  -0.40513
 Alpha  occ. eigenvalues --   -0.40381  -0.40334  -0.40187  -0.39867  -0.39631
 Alpha  occ. eigenvalues --   -0.39534  -0.39233  -0.39174  -0.39023  -0.38928
 Alpha  occ. eigenvalues --   -0.38841  -0.38668  -0.38101  -0.37946  -0.37659
 Alpha  occ. eigenvalues --   -0.37576  -0.37401  -0.37350  -0.37248  -0.37122
 Alpha  occ. eigenvalues --   -0.37009  -0.36976  -0.36207  -0.36123  -0.36002
 Alpha  occ. eigenvalues --   -0.35956  -0.35618  -0.35423  -0.35233  -0.35087
 Alpha  occ. eigenvalues --   -0.34580  -0.34513  -0.33999  -0.33954  -0.33608
 Alpha  occ. eigenvalues --   -0.33529  -0.33257  -0.32835  -0.32693  -0.32070
 Alpha  occ. eigenvalues --   -0.31475  -0.31292  -0.31198  -0.31135  -0.30119
 Alpha  occ. eigenvalues --   -0.30044  -0.29906  -0.29735  -0.28833  -0.27121
 Alpha  occ. eigenvalues --   -0.26688  -0.26377  -0.25760  -0.24899  -0.21412
 Alpha  occ. eigenvalues --   -0.20681
 Alpha virt. eigenvalues --   -0.08072  -0.03509  -0.00024   0.01802   0.02810
 Alpha virt. eigenvalues --    0.04108   0.04439   0.04969   0.05271   0.05335
 Alpha virt. eigenvalues --    0.06843   0.08606   0.09196   0.09718   0.10007

 Mulliken charges:
               1
     1  Mg   0.817350
     2  C    0.059583
     3  C   -0.215699
     4  C   -0.211179
     5  C   -0.223064
     6  N   -0.641746
     7  C    0.316340
     8  C   -0.158438
     9  C   -0.165828
    10  C    0.378538
    11  C   -0.308319
    12  C   -0.172466
    13  C   -0.252983
    14  C    0.594890
    15  O   -0.456382
    16  O   -0.521736
    17  N   -0.693656
    18  C    0.294629
    19  C    0.010024
    20  C    0.024370
    21  C    0.319184
    22  C   -0.395385
    23  C   -0.068502
    24  C   -0.249130
    25  N   -0.725481
    26  C    0.348450
    27  C    0.038645
    28  C   -0.044817
    29  C    0.373086
    30  C   -0.349270
    31  C   -0.229256
    32  C   -0.309742
    33  N   -0.728027
    34  C    0.277485
    35  C    0.112252
    36  C    0.013904
    37  C    0.305816
    38  C   -0.380904
    39  C    0.356579
    40  O   -0.478411
    41  C   -0.282970
    42  C    0.586102
    43  O   -0.459195
    44  O   -0.435754
    45  C   -0.085999
    46  C    0.006217
    47  C   -0.125529
    48  C    0.107774
    49  C   -0.345483
    50  C   -0.203868
    51  C   -0.219645
    52  C   -0.172405
    53  C   -0.051290
    54  C   -0.312417
    55  C   -0.184657
    56  C   -0.204651
    57  C   -0.175471
    58  C   -0.052123
    59  C   -0.278064
    60  C   -0.156746
    61  C   -0.184913
    62  C   -0.153579
    63  C   -0.058446
    64  C   -0.291969
    65  C   -0.293806
    66  H    0.071873
    67  H    0.068220
    68  H    0.081652
    69  H    0.115701
    70  H    0.099575
    71  H    0.104132
    72  H    0.099917
    73  H    0.130341
    74  H    0.113723
    75  H    0.092242
    76  H    0.140983
    77  H    0.141807
    78  H    0.128448
    79  H    0.133232
    80  H    0.114085
    81  H    0.072884
    82  H    0.102200
    83  H    0.103920
    84  H    0.099285
    85  H    0.119922
    86  H    0.137471
    87  H    0.112705
    88  H    0.096958
    89  H    0.102324
    90  H    0.116110
    91  H    0.104427
    92  H    0.082982
    93  H    0.143092
    94  H    0.128554
    95  H    0.150806
    96  H    0.105350
    97  H    0.128348
    98  H    0.136855
    99  H    0.124682
   100  H    0.115534
   101  H    0.099083
   102  H    0.126138
   103  H    0.097746
   104  H    0.138980
   105  H    0.105168
   106  H    0.100342
   107  H    0.112131
   108  H    0.097376
   109  H    0.087418
   110  H    0.079512
   111  H    0.086646
   112  H    0.087731
   113  H    0.101393
   114  H    0.115648
   115  H    0.066122
   116  H    0.101128
   117  H    0.110040
   118  H    0.090685
   119  H    0.085410
   120  H    0.102678
   121  H    0.072344
   122  H    0.118931
   123  H    0.042118
   124  H    0.111478
   125  H    0.082621
   126  H    0.040235
   127  H    0.098778
   128  H    0.077713
   129  H    0.094787
   130  H    0.079090
   131  H    0.081459
   132  H    0.074139
   133  H    0.104426
   134  H    0.111503
   135  H    0.106207
   136  H    0.081182
   137  H    0.079463
 Sum of Mulliken charges =  -0.00000

 Dipole moment (field-independent basis, Debye):
    X=              0.7505    Y=              3.8462    Z=              0.2368  Tot=              3.9259
 Quadrupole moment (field-independent basis, Debye-Ang):
   XX=           -340.6105   YY=           -395.8083   ZZ=           -396.4864
   XY=            -26.1984   XZ=             12.4033   YZ=             -1.6360

 Normal termination of Gaussian 16 at Sun Sep 15 06:31:04 2019.
