 Gaussian 16, Revision A.03,
 Gaussian 16:  ES64L-G16RevA.03 25-Dec-2016

 ----------------------------------------------------------------------
 # td=(NStates=1) iop(3/107=0140000000,3/108=0140000000) CAM-B3LYP/6-31
 G(d,p)
 ----------------------------------------------------------------------

 --
 TD
 --
 Symbolic Z-matrix:
 Charge =  0 Multiplicity = 1

                         Standard orientation:
 ---------------------------------------------------------------------
 Center     Atomic      Atomic             Coordinates (Angstroms)
 Number     Number       Type             X           Y           Z
 ---------------------------------------------------------------------
      1         12           0       -7.076289    0.632267    0.114052
      2          6           0       -4.879194   -1.962777    0.605690
      3          6           0       -4.641907    2.810483    1.186944
      4          6           0       -9.312836    3.106152   -0.363437
      5          6           0       -9.518767   -1.709498   -0.879105
      6          7           0       -5.074600    0.412557    0.697278
      7          6           0       -4.366946   -0.772741    0.939859
      8          6           0       -2.944014   -0.476060    1.329275
      9          6           0       -3.068314    1.023238    1.834584
     10          6           0       -4.313578    1.469041    1.207225
     11          6           0       -2.913876    1.193419    3.378716
     12          6           0       -1.923022   -0.584477    0.157021
     13          6           0       -0.521718   -0.583877    0.555815
     14          6           0        0.479982   -0.619615   -0.541933
     15          8           0        0.186942   -0.890379   -1.667433
     16          8           0        1.796335   -0.331752   -0.212678
     17          7           0       -7.023571    2.641535    0.199851
     18          6           0       -5.951980    3.356688    0.784739
     19          6           0       -6.337896    4.738890    0.901968
     20          6           0       -7.630566    4.881143    0.313552
     21          6           0       -8.057651    3.500762    0.016803
     22          6           0       -5.439250    5.812613    1.174424
     23          6           0       -8.450425    6.064156    0.102178
     24          6           0       -8.315569    7.242262    0.731576
     25          7           0       -9.062066    0.666917   -0.593826
     26          6           0       -9.837858    1.838558   -0.620149
     27          6           0      -11.236824    1.502914   -1.102396
     28          6           0      -11.178097    0.107901   -1.258201
     29          6           0       -9.917728   -0.432386   -0.943429
     30          6           0      -12.320345    2.533014   -1.353434
     31          6           0      -12.317424   -0.696949   -1.658860
     32          6           0      -12.446690   -1.004571   -3.182447
     33          7           0       -7.260968   -1.362159   -0.339781
     34          6           0       -8.223042   -2.245232   -0.653812
     35          6           0       -7.798486   -3.624645   -0.573762
     36          6           0       -6.563762   -3.635855   -0.258997
     37          6           0       -6.232635   -2.221079   -0.047234
     38          6           0       -8.706352   -4.751768   -0.963665
     39          6           0       -5.300375   -4.360629    0.141867
     40          8           0       -5.306318   -5.545083    0.192514
     41          6           0       -4.146945   -3.291167    0.511247
     42          6           0       -3.587233   -3.717383    1.871561
     43          8           0       -3.698734   -3.076695    2.878260
     44          8           0       -2.687230   -4.758517    1.758664
     45          6           0       -2.329680   -5.347982    2.962901
     46          6           0        2.756274   -0.641834   -1.172787
     47          6           0        4.076532   -0.476483   -0.447418
     48          6           0        5.131178    0.296704   -0.958611
     49          6           0        4.969829    1.262637   -2.177770
     50          6           0        6.487007    0.423608   -0.210822
     51          6           0        7.651690   -0.239713   -0.986338
     52          6           0        8.955793   -0.154167   -0.156843
     53          6           0       10.214780   -0.570475   -0.807528
     54          6           0       10.181514   -2.036690   -1.271138
     55          6           0       11.448783   -0.391711    0.096668
     56          6           0       12.725591   -0.530719   -0.620765
     57          6           0       13.944147   -0.067406    0.128178
     58          6           0       15.300858   -0.204316   -0.538564
     59          6           0       15.650984   -1.709909   -0.982328
     60          6           0       16.432607    0.328216    0.306925
     61          6           0       17.834536    0.470421   -0.205168
     62          6           0       18.808353    1.179123    0.698571
     63          6           0       20.099125    1.390747    0.229892
     64          6           0       20.138412    2.345570   -1.072453
     65          6           0       21.114156    1.944529    1.413300
     66          1           0       -3.791845    3.374411    1.416782
     67          1           0      -10.211034    3.883231   -0.238637
     68          1           0      -10.492224   -2.420110   -1.154470
     69          1           0       -2.675571   -1.116838    2.107732
     70          1           0       -2.341394    1.648608    1.333271
     71          1           0       -1.859103    0.858972    3.638886
     72          1           0       -3.241207    2.153210    3.646773
     73          1           0       -3.621711    0.556425    3.743248
     74          1           0       -2.118905   -1.362637   -0.511778
     75          1           0       -2.216288    0.201241   -0.655382
     76          1           0       -0.522616    0.239013    1.564562
     77          1           0       -0.414495   -1.542788    1.300365
     78          1           0       -5.593762    6.635201    0.571141
     79          1           0       -5.567571    6.259005    2.190074
     80          1           0       -4.349774    5.675590    0.889353
     81          1           0       -9.198267    5.965763   -0.782522
     82          1           0       -8.927999    8.232388    0.442048
     83          1           0       -7.638757    7.364207    1.454534
     84          1           0      -12.207053    3.032708   -2.415005
     85          1           0      -13.412869    2.029204   -1.561490
     86          1           0      -12.484818    3.188899   -0.324719
     87          1           0      -12.487576   -1.647147   -1.067027
     88          1           0      -13.127564    0.006895   -1.328446
     89          1           0      -13.455018   -1.399036   -3.486482
     90          1           0      -12.243453    0.005639   -3.635191
     91          1           0      -11.573282   -1.602539   -3.436388
     92          1           0       -9.323210   -4.573932   -1.834317
     93          1           0       -7.940921   -5.587183   -1.136299
     94          1           0       -9.505598   -5.200495   -0.144876
     95          1           0       -3.276935   -3.377176   -0.352976
     96          1           0       -1.716210   -4.630480    3.527738
     97          1           0       -3.052781   -6.093135    3.506458
     98          1           0       -1.507834   -6.031274    2.596417
     99          1           0        2.862080   -1.441678   -1.619010
    100          1           0        2.737129    0.160209   -1.968400
    101          1           0        4.315646   -1.032020    0.591806
    102          1           0        3.923720    1.200885   -2.813371
    103          1           0        5.108377    2.294964   -1.767606
    104          1           0        5.830135    0.832328   -2.829917
    105          1           0        6.766942    1.494460   -0.055142
    106          1           0        6.155812   -0.012279    0.834296
    107          1           0        7.348337   -1.272827   -1.363263
    108          1           0        7.827365    0.485593   -1.887874
    109          1           0        8.976418    1.053552    0.106073
    110          1           0        8.914304   -0.679628    0.626267
    111          1           0       10.435472    0.104292   -1.466406
    112          1           0        9.373498   -2.498042   -2.035360
    113          1           0       11.067674   -2.358164   -1.989583
    114          1           0       10.111190   -2.648090   -0.370438
    115          1           0       11.287575    0.737268    0.426594
    116          1           0       11.478855   -1.134831    0.878097
    117          1           0       13.017117   -1.666648   -0.986555
    118          1           0       12.482484   -0.016577   -1.510829
    119          1           0       13.787818    0.911985    0.361697
    120          1           0       14.050109   -0.750812    1.050219
    121          1           0       15.381225    0.382200   -1.419779
    122          1           0       15.594045   -2.327927   -0.213100
    123          1           0       14.892895   -1.981890   -1.758198
    124          1           0       16.827134   -1.742989   -1.538520
    125          1           0       16.199171    1.424790    0.550110
    126          1           0       16.436794   -0.236919    1.365826
    127          1           0       18.236643   -0.424506   -0.471186
    128          1           0       17.772397    0.918010   -1.222501
    129          1           0       18.503015    2.299585    0.850080
    130          1           0       18.846948    0.812404    1.602828
    131          1           0       20.575984    0.397853   -0.180643
    132          1           0       19.308367    3.235960   -1.043631
    133          1           0       21.193452    2.768916   -1.746517
    134          1           0       19.677353    1.888946   -1.921173
    135          1           0       21.320915    1.172167    2.376807
    136          1           0       22.216831    2.118952    0.918243
    137          1           0       20.765463    2.960873    1.636283
 ---------------------------------------------------------------------

 SCF Done:  E(RCAM-B3LYP) =  -2933.37827106     A.U. after   16 cycles

 Excitation energies and oscillator strengths:

 Excited State   1:      Singlet-A      1.9790 eV  626.50 nm  f=0.2770  <S**2>=0.000
     240 -> 243        0.21104
     241 -> 242        0.66852
 This state for optimization and/or second-order correction.
 Total Energy, E(TD-HF/TD-DFT) =  -2933.30554479
 Copying the excited state density for this state as the 1-particle RhoCI density.

 The electronic state is 1-A.
 Alpha  occ. eigenvalues --  -46.79934 -19.22118 -19.21823 -19.17816 -19.17620
 Alpha  occ. eigenvalues --  -19.17339 -14.37200 -14.35895 -14.35442 -14.34767
 Alpha  occ. eigenvalues --  -10.35430 -10.35203 -10.31799 -10.27354 -10.26523
 Alpha  occ. eigenvalues --  -10.26462 -10.26333 -10.25781 -10.25662 -10.25519
 Alpha  occ. eigenvalues --  -10.25517 -10.25453 -10.25058 -10.24937 -10.24450
 Alpha  occ. eigenvalues --  -10.23773 -10.23531 -10.23528 -10.23512 -10.23453
 Alpha  occ. eigenvalues --  -10.23332 -10.23307 -10.23202 -10.23073 -10.22984
 Alpha  occ. eigenvalues --  -10.22974 -10.22911 -10.22862 -10.22806 -10.22768
 Alpha  occ. eigenvalues --  -10.22735 -10.22691 -10.22483 -10.22402 -10.22341
 Alpha  occ. eigenvalues --  -10.22284 -10.22155 -10.21981 -10.21681 -10.21566
 Alpha  occ. eigenvalues --  -10.21528 -10.21420 -10.21365 -10.21351 -10.21312
 Alpha  occ. eigenvalues --  -10.21144 -10.21068 -10.20932 -10.20877 -10.20769
 Alpha  occ. eigenvalues --  -10.20583 -10.20524 -10.20299 -10.19875 -10.19492
 Alpha  occ. eigenvalues --   -3.08474  -1.83416  -1.82946  -1.82878  -1.13882
 Alpha  occ. eigenvalues --   -1.13786  -1.08925  -1.05918  -1.05746  -0.99912
 Alpha  occ. eigenvalues --   -0.97790  -0.97112  -0.95092  -0.87135  -0.86725
 Alpha  occ. eigenvalues --   -0.86216  -0.85326  -0.84333  -0.84296  -0.84050
 Alpha  occ. eigenvalues --   -0.83593  -0.83474  -0.82688  -0.82151  -0.81207
 Alpha  occ. eigenvalues --   -0.80569  -0.79471  -0.78463  -0.78162  -0.77125
 Alpha  occ. eigenvalues --   -0.76378  -0.76097  -0.75445  -0.74583  -0.73442
 Alpha  occ. eigenvalues --   -0.72974  -0.72067  -0.71452  -0.70521  -0.70181
 Alpha  occ. eigenvalues --   -0.69987  -0.69965  -0.69088  -0.68941  -0.68097
 Alpha  occ. eigenvalues --   -0.66989  -0.66056  -0.65259  -0.64789  -0.64352
 Alpha  occ. eigenvalues --   -0.62809  -0.62599  -0.61218  -0.60800  -0.60687
 Alpha  occ. eigenvalues --   -0.60490  -0.59691  -0.59253  -0.58813  -0.57493
 Alpha  occ. eigenvalues --   -0.57364  -0.56985  -0.56248  -0.55981  -0.54286
 Alpha  occ. eigenvalues --   -0.53795  -0.53593  -0.53403  -0.53147  -0.52768
 Alpha  occ. eigenvalues --   -0.52200  -0.52025  -0.51575  -0.51393  -0.51242
 Alpha  occ. eigenvalues --   -0.50994  -0.50542  -0.50252  -0.50110  -0.49478
 Alpha  occ. eigenvalues --   -0.49053  -0.48887  -0.48380  -0.48089  -0.47958
 Alpha  occ. eigenvalues --   -0.47618  -0.47473  -0.47133  -0.46851  -0.46670
 Alpha  occ. eigenvalues --   -0.46438  -0.46215  -0.46025  -0.45992  -0.45635
 Alpha  occ. eigenvalues --   -0.45557  -0.45375  -0.45089  -0.44934  -0.44757
 Alpha  occ. eigenvalues --   -0.44449  -0.44362  -0.44290  -0.43694  -0.43596
 Alpha  occ. eigenvalues --   -0.43475  -0.42838  -0.42678  -0.42622  -0.42545
 Alpha  occ. eigenvalues --   -0.42115  -0.42090  -0.41994  -0.41934  -0.41671
 Alpha  occ. eigenvalues --   -0.41530  -0.41344  -0.41136  -0.40867  -0.40649
 Alpha  occ. eigenvalues --   -0.40499  -0.40306  -0.39837  -0.39678  -0.39643
 Alpha  occ. eigenvalues --   -0.39441  -0.39196  -0.38790  -0.38522  -0.38399
 Alpha  occ. eigenvalues --   -0.38375  -0.38047  -0.37911  -0.37861  -0.37194
 Alpha  occ. eigenvalues --   -0.37145  -0.37096  -0.37059  -0.36963  -0.36907
 Alpha  occ. eigenvalues --   -0.36805  -0.36386  -0.36334  -0.36071  -0.36003
 Alpha  occ. eigenvalues --   -0.35783  -0.35518  -0.35402  -0.35183  -0.34435
 Alpha  occ. eigenvalues --   -0.34251  -0.34018  -0.33758  -0.33534  -0.33528
 Alpha  occ. eigenvalues --   -0.33470  -0.33183  -0.32966  -0.32909  -0.32601
 Alpha  occ. eigenvalues --   -0.32408  -0.32243  -0.32149  -0.31777  -0.31193
 Alpha  occ. eigenvalues --   -0.31145  -0.30219  -0.29547  -0.28550  -0.28262
 Alpha  occ. eigenvalues --   -0.27206  -0.25774  -0.25079  -0.24702  -0.21624
 Alpha  occ. eigenvalues --   -0.20009
 Alpha virt. eigenvalues --   -0.07356  -0.03714   0.00086   0.01707   0.02068
 Alpha virt. eigenvalues --    0.02774   0.04315   0.04592   0.04691   0.05422
 Alpha virt. eigenvalues --    0.06600   0.08269   0.08492   0.09069   0.09287

 Mulliken charges:
               1
     1  Mg   0.809444
     2  C    0.043564
     3  C   -0.189394
     4  C   -0.180192
     5  C   -0.202770
     6  N   -0.647324
     7  C    0.306305
     8  C   -0.155541
     9  C   -0.174836
    10  C    0.354385
    11  C   -0.297408
    12  C   -0.152553
    13  C   -0.256067
    14  C    0.621529
    15  O   -0.444046
    16  O   -0.475665
    17  N   -0.721257
    18  C    0.298024
    19  C    0.014266
    20  C    0.029208
    21  C    0.335433
    22  C   -0.404330
    23  C   -0.072019
    24  C   -0.238319
    25  N   -0.690828
    26  C    0.277859
    27  C    0.061960
    28  C    0.022914
    29  C    0.349741
    30  C   -0.382278
    31  C   -0.271123
    32  C   -0.300591
    33  N   -0.666429
    34  C    0.263635
    35  C   -0.012802
    36  C    0.099576
    37  C    0.221507
    38  C   -0.381899
    39  C    0.372877
    40  O   -0.419738
    41  C   -0.335593
    42  C    0.626558
    43  O   -0.439002
    44  O   -0.441076
    45  C   -0.091419
    46  C    0.056692
    47  C   -0.160405
    48  C    0.087958
    49  C   -0.343391
    50  C   -0.212131
    51  C   -0.171919
    52  C   -0.135028
    53  C   -0.044923
    54  C   -0.309900
    55  C   -0.172900
    56  C   -0.164892
    57  C   -0.144445
    58  C   -0.064859
    59  C   -0.303837
    60  C   -0.151160
    61  C   -0.179801
    62  C   -0.117481
    63  C   -0.051360
    64  C   -0.311619
    65  C   -0.305223
    66  H    0.080588
    67  H    0.083191
    68  H    0.076952
    69  H    0.116519
    70  H    0.108903
    71  H    0.105782
    72  H    0.116403
    73  H    0.136922
    74  H    0.122159
    75  H    0.102608
    76  H    0.100356
    77  H    0.125888
    78  H    0.136074
    79  H    0.116049
    80  H    0.108544
    81  H    0.091694
    82  H    0.092878
    83  H    0.098282
    84  H    0.130988
    85  H    0.098462
    86  H    0.115847
    87  H    0.095908
    88  H    0.093486
    89  H    0.107786
    90  H    0.101654
    91  H    0.114005
    92  H    0.127244
    93  H    0.129012
    94  H    0.100879
    95  H    0.157841
    96  H    0.121636
    97  H    0.125104
    98  H    0.112386
    99  H    0.138640
   100  H    0.092257
   101  H    0.073830
   102  H    0.094983
   103  H    0.124276
   104  H    0.114303
   105  H    0.096748
   106  H    0.087492
   107  H    0.100042
   108  H    0.084487
   109  H    0.052940
   110  H    0.099734
   111  H    0.085250
   112  H    0.079652
   113  H    0.095305
   114  H    0.106987
   115  H    0.072530
   116  H    0.088499
   117  H    0.065959
   118  H    0.088345
   119  H    0.096407
   120  H    0.078085
   121  H    0.085221
   122  H    0.118956
   123  H    0.102368
   124  H    0.061455
   125  H    0.074300
   126  H    0.055067
   127  H    0.100588
   128  H    0.083209
   129  H    0.069240
   130  H    0.104173
   131  H    0.070637
   132  H    0.072876
   133  H    0.065555
   134  H    0.120078
   135  H    0.082898
   136  H    0.084999
   137  H    0.115934
 Sum of Mulliken charges =  -0.00000

 Dipole moment (field-independent basis, Debye):
    X=              0.8740    Y=              2.8690    Z=              0.7872  Tot=              3.1008
 Quadrupole moment (field-independent basis, Debye-Ang):
   XX=           -374.6691   YY=           -391.2921   ZZ=           -398.4260
   XY=            -24.7738   XZ=              2.4072   YZ=             -2.8663

 Normal termination of Gaussian 16 at Sun Sep 15 15:48:44 2019.
