 Gaussian 16, Revision A.03,
 Gaussian 16:  ES64L-G16RevA.03 25-Dec-2016

 ----------------------------------------------------------------------
 # td=(NStates=1) iop(3/107=0140000000,3/108=0140000000) CAM-B3LYP/6-31
 G(d,p)
 ----------------------------------------------------------------------

 --
 TD
 --
 Symbolic Z-matrix:
 Charge =  0 Multiplicity = 1

                         Standard orientation:
 ---------------------------------------------------------------------
 Center     Atomic      Atomic             Coordinates (Angstroms)
 Number     Number       Type             X           Y           Z
 ---------------------------------------------------------------------
      1         12           0       -7.012334    0.688895    0.088899
      2          6           0       -4.917458   -2.050041    0.574609
      3          6           0       -4.679912    2.804239    1.160070
      4          6           0       -9.250624    3.129566   -0.434055
      5          6           0       -9.476475   -1.591052   -0.927272
      6          7           0       -5.053687    0.340368    0.730814
      7          6           0       -4.377945   -0.828198    0.859745
      8          6           0       -2.937361   -0.496959    1.258528
      9          6           0       -3.014933    1.042657    1.713783
     10          6           0       -4.288590    1.460129    1.134619
     11          6           0       -2.897447    1.376314    3.232399
     12          6           0       -1.909678   -0.806818    0.159468
     13          6           0       -0.474458   -0.500803    0.571383
     14          6           0        0.608323   -0.777473   -0.509285
     15          8           0        0.281332   -1.096476   -1.639461
     16          8           0        1.865843   -0.568418   -0.028102
     17          7           0       -6.980395    2.626416    0.328173
     18          6           0       -5.915118    3.285040    0.806932
     19          6           0       -6.276725    4.747025    0.894919
     20          6           0       -7.510730    4.859503    0.360555
     21          6           0       -7.942672    3.474997    0.059725
     22          6           0       -5.336954    5.942623    1.380261
     23          6           0       -8.388449    6.001161    0.173167
     24          6           0       -8.280859    7.215264    0.762066
     25          7           0       -9.083243    0.780472   -0.445129
     26          6           0       -9.754907    1.907454   -0.723467
     27          6           0      -11.190689    1.622380   -1.245067
     28          6           0      -11.267659    0.291326   -1.337188
     29          6           0       -9.896646   -0.304935   -0.941445
     30          6           0      -12.244524    2.663921   -1.471434
     31          6           0      -12.325249   -0.624022   -1.722436
     32          6           0      -12.184223   -1.024708   -3.307126
     33          7           0       -7.273046   -1.390022   -0.061051
     34          6           0       -8.311706   -2.145405   -0.564312
     35          6           0       -7.829057   -3.518997   -0.497894
     36          6           0       -6.564169   -3.569216   -0.040790
     37          6           0       -6.243412   -2.145081    0.212451
     38          6           0       -8.613340   -4.787192   -0.874904
     39          6           0       -5.405282   -4.389790    0.099217
     40          8           0       -5.274296   -5.610553    0.009817
     41          6           0       -4.187960   -3.370938    0.591529
     42          6           0       -3.644376   -3.840556    1.891484
     43          8           0       -3.987595   -3.260318    3.085953
     44          8           0       -2.973020   -5.000843    1.753281
     45          6           0       -2.387066   -5.410382    2.924591
     46          6           0        2.724851   -0.494101   -1.299237
     47          6           0        4.047790   -0.506937   -0.632132
     48          6           0        5.055237    0.314336   -1.040425
     49          6           0        4.959987    1.259532   -2.233972
     50          6           0        6.385638    0.480147   -0.341192
     51          6           0        7.538462   -0.123583   -1.092456
     52          6           0        8.898874    0.011319   -0.309268
     53          6           0       10.144539   -0.599434   -0.996428
     54          6           0        9.913644   -2.087432   -1.250998
     55          6           0       11.412049   -0.249231   -0.179880
     56          6           0       12.810178   -0.516654   -0.848481
     57          6           0       13.918513   -0.084427    0.150741
     58          6           0       15.387425   -0.265715   -0.540597
     59          6           0       15.695449   -1.743478   -0.781777
     60          6           0       16.375391    0.312617    0.404481
     61          6           0       17.677389    0.587883   -0.246923
     62          6           0       18.728485    1.310200    0.828454
     63          6           0       20.239220    1.444405    0.320706
     64          6           0       20.355704    2.173811   -0.980815
     65          6           0       21.106822    1.911272    1.437234
     66          1           0       -3.893467    3.588166    1.303576
     67          1           0       -9.824368    3.943132   -0.526009
     68          1           0      -10.200476   -2.206898   -1.204111
     69          1           0       -2.453793   -1.187831    2.092208
     70          1           0       -2.428661    1.642716    1.072499
     71          1           0       -1.909198    1.076750    3.569189
     72          1           0       -2.956103    2.573683    3.245377
     73          1           0       -3.581280    0.922784    3.849863
     74          1           0       -2.059321   -1.683167   -0.360421
     75          1           0       -2.150395   -0.238071   -0.630445
     76          1           0       -0.457253    0.480869    0.928474
     77          1           0       -0.307356   -1.346496    1.468545
     78          1           0       -5.424748    6.618796    0.751118
     79          1           0       -5.708488    6.087955    2.474825
     80          1           0       -4.177394    5.592479    1.539778
     81          1           0       -9.229147    5.962373   -0.538905
     82          1           0       -8.987156    8.087063    0.215303
     83          1           0       -7.742901    7.466376    1.609762
     84          1           0      -11.779286    3.637577   -2.068233
     85          1           0      -13.229420    2.317355   -1.762294
     86          1           0      -12.500309    3.091388   -0.406089
     87          1           0      -12.321860   -1.550518   -1.258058
     88          1           0      -13.303992   -0.380778   -1.557495
     89          1           0      -13.013962   -1.747989   -3.439023
     90          1           0      -12.296417   -0.089103   -3.934143
     91          1           0      -11.045402   -1.247888   -3.425066
     92          1           0       -8.812798   -4.793059   -1.917311
     93          1           0       -7.887296   -5.670317   -0.798507
     94          1           0       -9.447461   -4.997541   -0.324612
     95          1           0       -3.367492   -3.303687   -0.206255
     96          1           0       -1.658325   -4.636673    3.206823
     97          1           0       -3.403929   -5.796894    3.467274
     98          1           0       -1.844094   -6.241082    2.639315
     99          1           0        2.554144   -1.479945   -1.850170
    100          1           0        2.194599    0.368199   -1.980746
    101          1           0        3.924058   -1.056826    0.338319
    102          1           0        3.846469    1.348245   -2.536467
    103          1           0        5.317315    2.198279   -1.829928
    104          1           0        5.682906    1.134387   -3.094149
    105          1           0        6.708831    1.409263   -0.080212
    106          1           0        6.138824    0.048194    0.618141
    107          1           0        7.356691   -1.297800   -1.160907
    108          1           0        7.756290    0.378259   -2.104182
    109          1           0        9.142728    0.852040    0.047121
    110          1           0        8.834433   -0.498649    0.606506
    111          1           0       10.060913   -0.207401   -2.154100
    112          1           0        9.063070   -2.253003   -2.004835
    113          1           0       10.824338   -2.696029   -1.670603
    114          1           0        9.793615   -2.836095   -0.336391
    115          1           0       11.296041    0.905016   -0.094218
    116          1           0       11.421099   -0.677199    0.818192
    117          1           0       12.788654   -1.635193   -0.840702
    118          1           0       12.930041   -0.173506   -1.981293
    119          1           0       13.757311    0.998937    0.408913
    120          1           0       13.807416   -0.546456    1.022962
    121          1           0       15.417054    0.240166   -1.411707
    122          1           0       15.811078   -2.436741    0.142552
    123          1           0       15.110771   -2.114488   -1.437085
    124          1           0       16.639225   -1.882941   -1.225106
    125          1           0       15.893192    1.281550    0.860678
    126          1           0       16.338606   -0.326998    1.333308
    127          1           0       18.034996   -0.382097   -0.481970
    128          1           0       17.855538    1.332594   -1.041784
    129          1           0       18.305508    2.191268    0.902522
    130          1           0       18.710449    0.849759    1.837819
    131          1           0       20.583043    0.407903    0.335371
    132          1           0       19.986145    3.273650   -0.775275
    133          1           0       21.301208    2.260848   -1.508448
    134          1           0       19.866193    1.669449   -1.745559
    135          1           0       20.712731    1.571055    2.525810
    136          1           0       21.970011    1.727881    1.127466
    137          1           0       20.906621    2.955067    1.403690
 ---------------------------------------------------------------------

 SCF Done:  E(RCAM-B3LYP) =  -2933.40521405     A.U. after   16 cycles

 Excitation energies and oscillator strengths:

 Excited State   1:      Singlet-A      1.9961 eV  621.12 nm  f=0.3183  <S**2>=0.000
     240 -> 243        0.19939
     241 -> 242        0.67749
 This state for optimization and/or second-order correction.
 Total Energy, E(TD-HF/TD-DFT) =  -2933.33185734
 Copying the excited state density for this state as the 1-particle RhoCI density.

 The electronic state is 1-A.
 Alpha  occ. eigenvalues --  -46.80144 -19.22998 -19.22782 -19.17364 -19.16220
 Alpha  occ. eigenvalues --  -19.15551 -14.37707 -14.35609 -14.35344 -14.34886
 Alpha  occ. eigenvalues --  -10.34971 -10.34958 -10.30767 -10.29113 -10.26699
 Alpha  occ. eigenvalues --  -10.26354 -10.25560 -10.25449 -10.25129 -10.24756
 Alpha  occ. eigenvalues --  -10.24703 -10.24638 -10.24044 -10.23995 -10.23947
 Alpha  occ. eigenvalues --  -10.23723 -10.23719 -10.23430 -10.23155 -10.23131
 Alpha  occ. eigenvalues --  -10.23085 -10.23051 -10.23028 -10.22966 -10.22826
 Alpha  occ. eigenvalues --  -10.22705 -10.22588 -10.22493 -10.22389 -10.22316
 Alpha  occ. eigenvalues --  -10.22282 -10.22184 -10.22109 -10.22068 -10.21991
 Alpha  occ. eigenvalues --  -10.21883 -10.21826 -10.21704 -10.20846 -10.20831
 Alpha  occ. eigenvalues --  -10.20787 -10.20601 -10.20567 -10.20482 -10.20448
 Alpha  occ. eigenvalues --  -10.20346 -10.20240 -10.20179 -10.20178 -10.20134
 Alpha  occ. eigenvalues --  -10.19980 -10.19442 -10.18738 -10.18475 -10.18417
 Alpha  occ. eigenvalues --   -3.08772  -1.83716  -1.83213  -1.83207  -1.13814
 Alpha  occ. eigenvalues --   -1.12428  -1.05088  -1.04442  -1.00544  -0.99470
 Alpha  occ. eigenvalues --   -0.97777  -0.97330  -0.96152  -0.87508  -0.86120
 Alpha  occ. eigenvalues --   -0.85244  -0.84644  -0.84461  -0.84235  -0.84085
 Alpha  occ. eigenvalues --   -0.83713  -0.83536  -0.83044  -0.81952  -0.80843
 Alpha  occ. eigenvalues --   -0.80258  -0.79110  -0.78569  -0.78086  -0.77773
 Alpha  occ. eigenvalues --   -0.77511  -0.76396  -0.75601  -0.74826  -0.73416
 Alpha  occ. eigenvalues --   -0.72986  -0.72467  -0.72155  -0.71684  -0.71393
 Alpha  occ. eigenvalues --   -0.70998  -0.70757  -0.69593  -0.69052  -0.68055
 Alpha  occ. eigenvalues --   -0.67520  -0.66157  -0.65651  -0.64662  -0.64478
 Alpha  occ. eigenvalues --   -0.63028  -0.62582  -0.61190  -0.60926  -0.60546
 Alpha  occ. eigenvalues --   -0.60511  -0.59591  -0.59509  -0.58440  -0.58293
 Alpha  occ. eigenvalues --   -0.57743  -0.56723  -0.56630  -0.56164  -0.55163
 Alpha  occ. eigenvalues --   -0.54809  -0.53971  -0.53790  -0.53079  -0.52772
 Alpha  occ. eigenvalues --   -0.52035  -0.51908  -0.51263  -0.50861  -0.50653
 Alpha  occ. eigenvalues --   -0.50575  -0.50508  -0.50385  -0.50030  -0.49749
 Alpha  occ. eigenvalues --   -0.49455  -0.49104  -0.48932  -0.48504  -0.48080
 Alpha  occ. eigenvalues --   -0.47959  -0.47653  -0.47266  -0.47163  -0.46870
 Alpha  occ. eigenvalues --   -0.46847  -0.46477  -0.46224  -0.45969  -0.45873
 Alpha  occ. eigenvalues --   -0.45622  -0.45529  -0.45011  -0.44867  -0.44618
 Alpha  occ. eigenvalues --   -0.44462  -0.43892  -0.43790  -0.43677  -0.43599
 Alpha  occ. eigenvalues --   -0.43489  -0.43371  -0.43124  -0.42924  -0.42571
 Alpha  occ. eigenvalues --   -0.42149  -0.42023  -0.41878  -0.41581  -0.41398
 Alpha  occ. eigenvalues --   -0.41376  -0.41209  -0.40927  -0.40649  -0.40571
 Alpha  occ. eigenvalues --   -0.40488  -0.40447  -0.40246  -0.40012  -0.39943
 Alpha  occ. eigenvalues --   -0.39690  -0.39617  -0.39098  -0.39054  -0.38897
 Alpha  occ. eigenvalues --   -0.38505  -0.38425  -0.38309  -0.38174  -0.38008
 Alpha  occ. eigenvalues --   -0.37716  -0.37490  -0.37351  -0.37163  -0.37038
 Alpha  occ. eigenvalues --   -0.36811  -0.36507  -0.36457  -0.36357  -0.36298
 Alpha  occ. eigenvalues --   -0.36119  -0.35661  -0.35393  -0.35377  -0.35105
 Alpha  occ. eigenvalues --   -0.34523  -0.34159  -0.33970  -0.33679  -0.33419
 Alpha  occ. eigenvalues --   -0.33234  -0.33089  -0.33042  -0.32772  -0.32277
 Alpha  occ. eigenvalues --   -0.32042  -0.31330  -0.30895  -0.30558  -0.29977
 Alpha  occ. eigenvalues --   -0.29742  -0.28920  -0.28521  -0.28179  -0.27414
 Alpha  occ. eigenvalues --   -0.26765  -0.26460  -0.25859  -0.25475  -0.21864
 Alpha  occ. eigenvalues --   -0.19251
 Alpha virt. eigenvalues --   -0.06740  -0.02880  -0.00553   0.01310   0.02303
 Alpha virt. eigenvalues --    0.03013   0.04157   0.04252   0.05223   0.05546
 Alpha virt. eigenvalues --    0.06649   0.08652   0.09082   0.09544   0.09838

 Mulliken charges:
               1
     1  Mg   0.818256
     2  C    0.095600
     3  C   -0.176355
     4  C   -0.162267
     5  C   -0.180165
     6  N   -0.666798
     7  C    0.341618
     8  C   -0.172088
     9  C   -0.143391
    10  C    0.307010
    11  C   -0.290887
    12  C   -0.172779
    13  C   -0.252959
    14  C    0.615382
    15  O   -0.467346
    16  O   -0.482047
    17  N   -0.743995
    18  C    0.324716
    19  C   -0.054479
    20  C    0.062321
    21  C    0.297213
    22  C   -0.332651
    23  C   -0.087398
    24  C   -0.242305
    25  N   -0.661816
    26  C    0.336844
    27  C    0.047551
    28  C    0.071741
    29  C    0.256198
    30  C   -0.379932
    31  C   -0.266777
    32  C   -0.317256
    33  N   -0.750778
    34  C    0.321408
    35  C   -0.043283
    36  C    0.091503
    37  C    0.326718
    38  C   -0.391993
    39  C    0.339471
    40  O   -0.463395
    41  C   -0.329271
    42  C    0.603023
    43  O   -0.527117
    44  O   -0.399641
    45  C   -0.070519
    46  C   -0.008384
    47  C   -0.135430
    48  C    0.108390
    49  C   -0.355570
    50  C   -0.223178
    51  C   -0.172713
    52  C   -0.156003
    53  C   -0.044540
    54  C   -0.305247
    55  C   -0.183726
    56  C   -0.181861
    57  C   -0.173977
    58  C   -0.047723
    59  C   -0.309641
    60  C   -0.158225
    61  C   -0.190521
    62  C   -0.196188
    63  C   -0.066506
    64  C   -0.317623
    65  C   -0.276412
    66  H    0.084132
    67  H    0.048529
    68  H    0.061906
    69  H    0.096526
    70  H    0.110232
    71  H    0.113205
    72  H    0.087687
    73  H    0.143359
    74  H    0.111725
    75  H    0.113622
    76  H    0.134179
    77  H    0.094567
    78  H    0.139471
    79  H    0.125437
    80  H    0.085268
    81  H    0.097113
    82  H    0.073610
    83  H    0.106161
    84  H    0.104022
    85  H    0.126283
    86  H    0.114960
    87  H    0.118816
    88  H    0.105475
    89  H    0.110083
    90  H    0.109166
    91  H    0.109761
    92  H    0.123866
    93  H    0.133747
    94  H    0.131354
    95  H    0.149540
    96  H    0.124260
    97  H    0.128156
    98  H    0.125070
    99  H    0.148919
   100  H    0.127049
   101  H    0.119028
   102  H    0.090084
   103  H    0.119671
   104  H    0.120759
   105  H    0.108141
   106  H    0.099122
   107  H    0.095150
   108  H    0.086903
   109  H    0.085510
   110  H    0.091667
   111  H    0.057867
   112  H    0.100532
   113  H    0.083151
   114  H    0.076624
   115  H    0.077209
   116  H    0.099503
   117  H    0.097776
   118  H    0.080754
   119  H    0.080773
   120  H    0.099698
   121  H    0.090291
   122  H    0.083882
   123  H    0.110876
   124  H    0.101055
   125  H    0.058742
   126  H    0.085459
   127  H    0.099591
   128  H    0.100674
   129  H    0.103627
   130  H    0.077034
   131  H    0.083164
   132  H    0.087183
   133  H    0.100341
   134  H    0.118931
   135  H    0.082251
   136  H    0.106054
   137  H    0.091858
 Sum of Mulliken charges =  -0.00000

 Dipole moment (field-independent basis, Debye):
    X=              2.2264    Y=              5.0575    Z=             -0.9373  Tot=              5.6048
 Quadrupole moment (field-independent basis, Debye-Ang):
   XX=           -336.2386   YY=           -397.7188   ZZ=           -400.9025
   XY=            -24.3760   XZ=              8.9711   YZ=             -1.5785

 Normal termination of Gaussian 16 at Mon Sep 16 15:58:55 2019.
