 Gaussian 16, Revision A.03,
 Gaussian 16:  ES64L-G16RevA.03 25-Dec-2016

 -------------------------------------
 # td=(NStates=1) CAM-B3LYP/6-31G(d,p)
 -------------------------------------

 --
 TD
 --
 Symbolic Z-matrix:
 Charge =  0 Multiplicity = 1

                         Standard orientation:
 ---------------------------------------------------------------------
 Center     Atomic      Atomic             Coordinates (Angstroms)
 Number     Number       Type             X           Y           Z
 ---------------------------------------------------------------------
      1         12           0       -7.088793    0.505628    0.023001
      2          6           0       -4.865976   -2.069828    0.514242
      3          6           0       -4.825450    2.832949    1.274604
      4          6           0       -9.383091    3.030223   -0.488089
      5          6           0       -9.640085   -1.759564   -0.883305
      6          7           0       -5.151693    0.393731    0.755398
      7          6           0       -4.339574   -0.700181    0.782808
      8          6           0       -2.847753   -0.334366    1.288849
      9          6           0       -3.002820    1.093141    1.671273
     10          6           0       -4.472629    1.459465    1.249752
     11          6           0       -2.805442    1.471495    3.120199
     12          6           0       -1.835223   -0.731169    0.140504
     13          6           0       -0.469599   -0.467297    0.600673
     14          6           0        0.635459   -0.645182   -0.533660
     15          8           0        0.252150   -1.044708   -1.590719
     16          8           0        1.802947   -0.502839   -0.050846
     17          7           0       -7.101647    2.563419    0.433648
     18          6           0       -6.018974    3.301660    0.794335
     19          6           0       -6.460335    4.726913    0.761880
     20          6           0       -7.660198    4.815388    0.215034
     21          6           0       -8.200233    3.397806   -0.035198
     22          6           0       -5.560141    5.854417    1.076511
     23          6           0       -8.434938    6.009280   -0.128470
     24          6           0       -8.557985    7.082419    0.677694
     25          7           0       -9.245911    0.579545   -0.463432
     26          6           0       -9.909697    1.696360   -0.655629
     27          6           0      -11.295275    1.436947   -1.118412
     28          6           0      -11.331032    0.107423   -1.248362
     29          6           0      -10.061211   -0.477609   -0.857958
     30          6           0      -12.372044    2.560632   -1.299453
     31          6           0      -12.460519   -0.641382   -1.659790
     32          6           0      -12.534513   -0.902878   -3.205207
     33          7           0       -7.323746   -1.423460   -0.224567
     34          6           0       -8.244328   -2.317522   -0.554994
     35          6           0       -7.892296   -3.648658   -0.511405
     36          6           0       -6.499493   -3.586236   -0.076708
     37          6           0       -6.221520   -2.211029    0.195821
     38          6           0       -8.665138   -4.859486   -0.735746
     39          6           0       -5.275103   -4.402913    0.100621
     40          8           0       -5.055060   -5.553915    0.035082
     41          6           0       -4.205282   -3.304296    0.430680
     42          6           0       -3.436326   -3.601587    1.757626
     43          8           0       -3.633374   -3.026235    2.765139
     44          8           0       -2.604783   -4.618123    1.717636
     45          6           0       -2.020417   -4.977188    2.914252
     46          6           0        2.902069   -0.780729   -0.967022
     47          6           0        4.217119   -0.517908   -0.391183
     48          6           0        5.167951    0.361909   -0.856600
     49          6           0        5.078920    1.174857   -2.077884
     50          6           0        6.440387    0.427238   -0.087545
     51          6           0        7.602190   -0.274424   -0.864682
     52          6           0        8.902320   -0.098280   -0.065700
     53          6           0       10.216618   -0.596242   -0.811458
     54          6           0        9.987305   -1.912607   -1.305195
     55          6           0       11.381387   -0.238537    0.012671
     56          6           0       12.796356   -0.471848   -0.675277
     57          6           0       14.024615   -0.222745    0.216575
     58          6           0       15.329234   -0.134514   -0.441804
     59          6           0       15.575019   -1.519899   -1.147808
     60          6           0       16.435216    0.402434    0.553545
     61          6           0       17.774119    0.537683   -0.142406
     62          6           0       18.860138    1.274591    0.759817
     63          6           0       20.242268    1.347450    0.079151
     64          6           0       20.283170    2.294390   -1.204864
     65          6           0       21.319173    1.811837    1.088863
     66          1           0       -4.172847    3.724532    1.517601
     67          1           0      -10.079752    3.912675   -0.474207
     68          1           0      -10.491843   -2.352908   -1.156264
     69          1           0       -2.686837   -0.897647    2.393286
     70          1           0       -2.397329    1.932652    1.035206
     71          1           0       -1.801096    1.404714    3.510112
     72          1           0       -3.096951    2.536803    3.203470
     73          1           0       -3.196184    0.825773    3.825828
     74          1           0       -2.021250   -1.872223   -0.072884
     75          1           0       -1.932912   -0.189300   -0.759606
     76          1           0       -0.256454    0.672102    0.888036
     77          1           0       -0.256364   -1.002951    1.661038
     78          1           0       -6.019393    6.762034    0.613066
     79          1           0       -5.367167    6.349114    2.177465
     80          1           0       -4.474417    5.521445    0.611002
     81          1           0       -9.041022    5.928107   -1.130450
     82          1           0       -9.179204    7.974659    0.499786
     83          1           0       -8.141226    7.195478    1.766446
     84          1           0      -12.313279    3.131632   -2.352726
     85          1           0      -13.216259    2.051151   -1.617654
     86          1           0      -12.608524    3.230220   -0.562112
     87          1           0      -12.351442   -1.636888   -1.230145
     88          1           0      -13.507920   -0.170251   -1.398424
     89          1           0      -13.368878   -1.525043   -3.549884
     90          1           0      -12.768335    0.177438   -3.654069
     91          1           0      -11.571584   -1.179540   -3.317817
     92          1           0       -9.270634   -5.020483   -1.888620
     93          1           0       -8.000594   -5.736685   -0.674594
     94          1           0       -9.402978   -5.143003    0.116542
     95          1           0       -3.236944   -3.257895   -0.386702
     96          1           0       -1.540153   -4.259365    3.236128
     97          1           0       -2.812761   -5.083498    3.638989
     98          1           0       -1.351674   -5.890493    2.752650
     99          1           0        2.878640   -1.911364   -1.326859
    100          1           0        2.680549   -0.211247   -1.866355
    101          1           0        4.472098   -1.009012    0.654719
    102          1           0        3.962566    1.290690   -2.161510
    103          1           0        6.012203    2.080366   -1.797647
    104          1           0        5.676828    0.563570   -2.801188
    105          1           0        6.634131    1.525523    0.052005
    106          1           0        6.296781    0.024271    0.693266
    107          1           0        7.330478   -1.394148   -1.065604
    108          1           0        7.759490    0.064380   -2.019121
    109          1           0        9.134734    0.960945    0.120347
    110          1           0        9.023621   -0.687652    0.869121
    111          1           0       10.222526   -0.058919   -1.767692
    112          1           0        9.106623   -2.047006   -2.172190
    113          1           0       10.816660   -2.355706   -2.047223
    114          1           0        9.883139   -2.662048   -0.547001
    115          1           0       11.479478    0.850865    0.285729
    116          1           0       11.289694   -0.841065    0.994356
    117          1           0       12.809613   -1.487936   -1.238133
    118          1           0       12.817420    0.123781   -1.578421
    119          1           0       13.843395    0.849286    0.776720
    120          1           0       13.926072   -0.852386    0.998142
    121          1           0       15.211665    0.518975   -1.139052
    122          1           0       15.729845   -2.259482   -0.385526
    123          1           0       14.726404   -1.743061   -1.832645
    124          1           0       16.572529   -1.375420   -1.561073
    125          1           0       16.133464    1.339405    0.747241
    126          1           0       16.474152   -0.182836    1.449309
    127          1           0       18.134743   -0.391347   -0.590432
    128          1           0       17.814095    1.327992   -1.083274
    129          1           0       18.458051    2.198327    1.197989
    130          1           0       18.963528    0.506254    1.592316
    131          1           0       20.508220    0.434702   -0.292188
    132          1           0       20.191100    3.340077   -1.187583
    133          1           0       21.162351    2.271945   -1.507576
    134          1           0       19.556366    1.951252   -1.890302
    135          1           0       21.164339    1.118505    1.915273
    136          1           0       22.317559    1.624514    0.592478
    137          1           0       21.292133    2.882203    1.428441
 ---------------------------------------------------------------------

 SCF Done:  E(RCAM-B3LYP) =  -2932.55225002     A.U. after   17 cycles

 Excitation energies and oscillator strengths:

 Excited State   1:      Singlet-A      2.2360 eV  554.48 nm  f=0.3241  <S**2>=0.000
     240 -> 243        0.16778
     241 -> 242        0.67525
 This state for optimization and/or second-order correction.
 Total Energy, E(TD-HF/TD-DFT) =  -2932.47007711
 Copying the excited state density for this state as the 1-particle RhoCI density.

 The electronic state is 1-A.
 Alpha  occ. eigenvalues --  -46.84831 -19.27763 -19.25178 -19.20256 -19.19728
 Alpha  occ. eigenvalues --  -19.19442 -14.42555 -14.39392 -14.39301 -14.38965
 Alpha  occ. eigenvalues --  -10.38672 -10.37883 -10.33977 -10.33342 -10.32115
 Alpha  occ. eigenvalues --  -10.30810 -10.30470 -10.30300 -10.30036 -10.29069
 Alpha  occ. eigenvalues --  -10.28814 -10.28744 -10.28567 -10.28481 -10.28478
 Alpha  occ. eigenvalues --  -10.28393 -10.28337 -10.28224 -10.28196 -10.28139
 Alpha  occ. eigenvalues --  -10.27940 -10.27776 -10.27760 -10.27708 -10.27485
 Alpha  occ. eigenvalues --  -10.27243 -10.26872 -10.26852 -10.26706 -10.26575
 Alpha  occ. eigenvalues --  -10.26543 -10.26542 -10.26490 -10.26396 -10.26262
 Alpha  occ. eigenvalues --  -10.26252 -10.26164 -10.26152 -10.26025 -10.25996
 Alpha  occ. eigenvalues --  -10.25983 -10.25692 -10.25671 -10.25446 -10.25406
 Alpha  occ. eigenvalues --  -10.25390 -10.24784 -10.24722 -10.24590 -10.24578
 Alpha  occ. eigenvalues --  -10.24230 -10.24080 -10.24027 -10.23960 -10.21621
 Alpha  occ. eigenvalues --   -3.13760  -1.88464  -1.88040  -1.87899  -1.21023
 Alpha  occ. eigenvalues --   -1.20327  -1.12378  -1.10747  -1.10107  -1.04337
 Alpha  occ. eigenvalues --   -1.03871  -1.02578  -1.01523  -0.92780  -0.92715
 Alpha  occ. eigenvalues --   -0.91363  -0.90376  -0.90337  -0.89726  -0.89433
 Alpha  occ. eigenvalues --   -0.88561  -0.88346  -0.86955  -0.86256  -0.85581
 Alpha  occ. eigenvalues --   -0.85004  -0.84083  -0.83389  -0.83096  -0.82839
 Alpha  occ. eigenvalues --   -0.82132  -0.81891  -0.80261  -0.79225  -0.77981
 Alpha  occ. eigenvalues --   -0.77156  -0.77068  -0.76738  -0.76719  -0.76280
 Alpha  occ. eigenvalues --   -0.75550  -0.75072  -0.74027  -0.73488  -0.71684
 Alpha  occ. eigenvalues --   -0.71213  -0.70511  -0.69784  -0.68559  -0.67712
 Alpha  occ. eigenvalues --   -0.67068  -0.66776  -0.65091  -0.65019  -0.64557
 Alpha  occ. eigenvalues --   -0.64516  -0.63950  -0.63799  -0.62970  -0.62744
 Alpha  occ. eigenvalues --   -0.62401  -0.60360  -0.59916  -0.59413  -0.58961
 Alpha  occ. eigenvalues --   -0.58144  -0.57768  -0.57741  -0.57251  -0.56713
 Alpha  occ. eigenvalues --   -0.56331  -0.56012  -0.55445  -0.54989  -0.54796
 Alpha  occ. eigenvalues --   -0.54173  -0.54056  -0.53883  -0.53329  -0.52946
 Alpha  occ. eigenvalues --   -0.52846  -0.52632  -0.52349  -0.52190  -0.51964
 Alpha  occ. eigenvalues --   -0.51890  -0.51664  -0.50879  -0.50849  -0.50593
 Alpha  occ. eigenvalues --   -0.50328  -0.50253  -0.49950  -0.49710  -0.49621
 Alpha  occ. eigenvalues --   -0.49164  -0.48958  -0.48780  -0.48481  -0.48426
 Alpha  occ. eigenvalues --   -0.48235  -0.47998  -0.47598  -0.47497  -0.47355
 Alpha  occ. eigenvalues --   -0.47104  -0.46787  -0.46679  -0.46172  -0.45907
 Alpha  occ. eigenvalues --   -0.45780  -0.45619  -0.45543  -0.45292  -0.44901
 Alpha  occ. eigenvalues --   -0.44706  -0.44529  -0.44377  -0.44205  -0.44047
 Alpha  occ. eigenvalues --   -0.43891  -0.43854  -0.43705  -0.43374  -0.43232
 Alpha  occ. eigenvalues --   -0.43083  -0.43046  -0.42901  -0.42655  -0.42293
 Alpha  occ. eigenvalues --   -0.42073  -0.41702  -0.41405  -0.41180  -0.41040
 Alpha  occ. eigenvalues --   -0.40904  -0.40730  -0.40526  -0.40425  -0.40171
 Alpha  occ. eigenvalues --   -0.40017  -0.39901  -0.39530  -0.39412  -0.39343
 Alpha  occ. eigenvalues --   -0.39114  -0.38906  -0.38535  -0.38403  -0.38076
 Alpha  occ. eigenvalues --   -0.37758  -0.37732  -0.37354  -0.37005  -0.36728
 Alpha  occ. eigenvalues --   -0.36614  -0.36135  -0.35894  -0.35473  -0.35337
 Alpha  occ. eigenvalues --   -0.35081  -0.34845  -0.33647  -0.33270  -0.33071
 Alpha  occ. eigenvalues --   -0.32959  -0.32298  -0.31723  -0.30390  -0.29212
 Alpha  occ. eigenvalues --   -0.29198  -0.28919  -0.28467  -0.27643  -0.23996
 Alpha  occ. eigenvalues --   -0.20138
 Alpha virt. eigenvalues --   -0.05384  -0.02741   0.01775   0.03887   0.04694
 Alpha virt. eigenvalues --    0.05116   0.05890   0.06878   0.07808   0.08112
 Alpha virt. eigenvalues --    0.08992   0.09703   0.10509   0.10924   0.11201

 Mulliken charges:
               1
     1  Mg   0.833038
     2  C    0.121157
     3  C   -0.186999
     4  C   -0.201030
     5  C   -0.170276
     6  N   -0.629369
     7  C    0.261865
     8  C   -0.149577
     9  C   -0.123300
    10  C    0.335463
    11  C   -0.314911
    12  C   -0.137617
    13  C   -0.266016
    14  C    0.596950
    15  O   -0.472003
    16  O   -0.421713
    17  N   -0.735365
    18  C    0.342435
    19  C    0.044132
    20  C    0.023839
    21  C    0.327401
    22  C   -0.380497
    23  C   -0.105004
    24  C   -0.242272
    25  N   -0.665295
    26  C    0.297577
    27  C    0.023706
    28  C    0.072669
    29  C    0.303870
    30  C   -0.363562
    31  C   -0.296362
    32  C   -0.286706
    33  N   -0.714285
    34  C    0.257133
    35  C    0.082781
    36  C   -0.077641
    37  C    0.254244
    38  C   -0.391284
    39  C    0.389777
    40  O   -0.431328
    41  C   -0.392216
    42  C    0.608761
    43  O   -0.460103
    44  O   -0.430417
    45  C   -0.067721
    46  C   -0.011387
    47  C   -0.140758
    48  C    0.093017
    49  C   -0.329003
    50  C   -0.165866
    51  C   -0.190626
    52  C   -0.163282
    53  C   -0.057530
    54  C   -0.296821
    55  C   -0.165254
    56  C   -0.202824
    57  C   -0.151754
    58  C   -0.055148
    59  C   -0.320488
    60  C   -0.168036
    61  C   -0.193612
    62  C   -0.171107
    63  C   -0.056609
    64  C   -0.319009
    65  C   -0.308966
    66  H    0.090068
    67  H    0.097412
    68  H    0.083263
    69  H    0.123189
    70  H    0.093021
    71  H    0.104836
    72  H    0.109452
    73  H    0.128811
    74  H    0.098130
    75  H    0.128753
    76  H    0.099457
    77  H    0.104279
    78  H    0.123484
    79  H    0.105117
    80  H    0.094032
    81  H    0.107955
    82  H    0.111141
    83  H    0.107583
    84  H    0.098918
    85  H    0.120399
    86  H    0.138311
    87  H    0.105826
    88  H    0.095800
    89  H    0.113027
    90  H    0.081171
    91  H    0.121257
    92  H    0.073559
    93  H    0.145640
    94  H    0.115102
    95  H    0.143434
    96  H    0.121213
    97  H    0.122663
    98  H    0.114177
    99  H    0.124079
   100  H    0.125084
   101  H    0.084694
   102  H    0.124454
   103  H    0.078817
   104  H    0.140995
   105  H    0.092676
   106  H    0.093535
   107  H    0.101768
   108  H    0.073506
   109  H    0.096666
   110  H    0.092863
   111  H    0.082833
   112  H    0.081523
   113  H    0.078377
   114  H    0.101870
   115  H    0.098532
   116  H    0.074937
   117  H    0.080458
   118  H    0.091335
   119  H    0.040221
   120  H    0.101218
   121  H    0.095410
   122  H    0.103001
   123  H    0.106798
   124  H    0.096974
   125  H    0.107860
   126  H    0.096576
   127  H    0.095797
   128  H    0.062490
   129  H    0.095846
   130  H    0.074494
   131  H    0.101620
   132  H    0.096923
   133  H    0.105344
   134  H    0.098383
   135  H    0.099764
   136  H    0.090082
   137  H    0.102853
 Sum of Mulliken charges =  -0.00000

 Dipole moment (field-independent basis, Debye):
    X=              3.0768    Y=              6.6926    Z=              0.2778  Tot=              7.3712
 Quadrupole moment (field-independent basis, Debye-Ang):
   XX=           -324.8388   YY=           -395.3829   ZZ=           -397.7091
   XY=            -40.0227   XZ=             10.6018   YZ=             -2.8776

 Normal termination of Gaussian 16 at Sun Jun 30 11:30:57 2019.
