 Gaussian 09, Revision D.01,
 Gaussian 09:  ES64L-G09RevD.01 24-Apr-2013

 -------------------------------------
 # td=(NStates=1) CAM-B3LYP/6-31G(d,p)
 -------------------------------------

 --
 TD
 --
 Symbolic Z-matrix:
 Charge =  0 Multiplicity = 1

                         Standard orientation:
 ---------------------------------------------------------------------
 Center     Atomic      Atomic             Coordinates (Angstroms)
 Number     Number       Type             X           Y           Z
 ---------------------------------------------------------------------
      1         12           0       -7.129880    0.590622    0.090317
      2          6           0       -4.849117   -1.991239    0.542305
      3          6           0       -4.796505    2.882769    1.152706
      4          6           0       -9.417347    2.987667   -0.542364
      5          6           0       -9.440310   -1.762346   -0.946748
      6          7           0       -5.165693    0.429625    0.812609
      7          6           0       -4.417501   -0.718886    0.836678
      8          6           0       -3.042578   -0.458102    1.168388
      9          6           0       -3.080440    1.095720    1.574254
     10          6           0       -4.440132    1.566226    1.151301
     11          6           0       -2.823510    1.345733    3.083715
     12          6           0       -1.923460   -0.686817    0.142411
     13          6           0       -0.458641   -0.546612    0.577153
     14          6           0        0.553395   -0.640299   -0.580407
     15          8           0        0.232189   -1.001006   -1.648967
     16          8           0        1.737472   -0.241402   -0.220133
     17          7           0       -7.142244    2.595856    0.279890
     18          6           0       -6.064206    3.375522    0.756511
     19          6           0       -6.526826    4.794435    0.874916
     20          6           0       -7.805350    4.842726    0.367575
     21          6           0       -8.209780    3.397597    0.093148
     22          6           0       -5.599063    5.925318    1.261416
     23          6           0       -8.597654    6.020958    0.164044
     24          6           0       -8.578801    7.247993    0.701088
     25          7           0       -9.188888    0.623576   -0.580848
     26          6           0       -9.940627    1.754422   -0.845254
     27          6           0      -11.309669    1.478438   -1.160663
     28          6           0      -11.262182    0.133345   -1.282935
     29          6           0       -9.977862   -0.373622   -0.961027
     30          6           0      -12.464260    2.406519   -1.446406
     31          6           0      -12.410734   -0.949130   -1.688550
     32          6           0      -12.303020   -1.426918   -3.190230
     33          7           0       -7.239540   -1.412266   -0.122375
     34          6           0       -8.269552   -2.211398   -0.510524
     35          6           0       -7.823235   -3.670545   -0.440268
     36          6           0       -6.470334   -3.588107   -0.074065
     37          6           0       -6.134808   -2.247036    0.062706
     38          6           0       -8.636195   -4.871814   -0.957054
     39          6           0       -5.230032   -4.351096    0.239714
     40          8           0       -5.078348   -5.559267    0.381766
     41          6           0       -4.164925   -3.318811    0.608552
     42          6           0       -3.535440   -3.611791    2.027549
     43          8           0       -3.828345   -2.993061    2.989866
     44          8           0       -2.637002   -4.546333    1.854163
     45          6           0       -2.047585   -4.946147    3.117978
     46          6           0        2.752952   -0.575146   -1.247432
     47          6           0        4.102820   -0.317314   -0.648530
     48          6           0        5.163043    0.428727   -1.185596
     49          6           0        5.110319    1.106090   -2.502525
     50          6           0        6.431227    0.459943   -0.341191
     51          6           0        7.705110   -0.080278   -0.991576
     52          6           0        9.010642   -0.049078   -0.073014
     53          6           0       10.230838   -0.691838   -0.757873
     54          6           0       10.011264   -2.184197   -1.114836
     55          6           0       11.432139   -0.341730    0.151490
     56          6           0       12.744060   -0.579238   -0.605266
     57          6           0       13.980502   -0.133303    0.223077
     58          6           0       15.378583   -0.148303   -0.520856
     59          6           0       15.828494   -1.647075   -0.971242
     60          6           0       16.484420    0.448743    0.399194
     61          6           0       17.901193    0.636384   -0.304227
     62          6           0       18.807216    1.288971    0.763673
     63          6           0       20.320358    1.236764    0.175597
     64          6           0       20.519483    2.157566   -1.097250
     65          6           0       21.234834    1.880151    1.323054
     66          1           0       -4.072353    3.532811    1.478687
     67          1           0      -10.272392    3.784546   -0.449448
     68          1           0      -10.149175   -2.418403   -1.225128
     69          1           0       -2.673874   -0.966387    2.097014
     70          1           0       -2.340963    1.609496    1.013053
     71          1           0       -1.907802    1.099831    3.537604
     72          1           0       -3.037659    2.327300    3.374466
     73          1           0       -3.525361    0.758942    3.719916
     74          1           0       -2.085742   -1.760848   -0.334933
     75          1           0       -2.111698    0.051466   -0.864213
     76          1           0       -0.400638    0.447137    0.784525
     77          1           0       -0.068902   -1.199238    1.411162
     78          1           0       -5.916135    6.814870    0.860967
     79          1           0       -5.671231    6.249737    2.324205
     80          1           0       -4.616498    5.828874    1.064841
     81          1           0       -9.344208    5.755032   -0.744298
     82          1           0       -9.544679    7.987673    0.370690
     83          1           0       -7.870425    7.302724    1.586210
     84          1           0      -12.287807    3.178436   -2.343215
     85          1           0      -13.396671    1.741448   -1.633509
     86          1           0      -12.589876    2.995798   -0.482326
     87          1           0      -12.450463   -1.739827   -0.976967
     88          1           0      -13.519604   -0.485970   -1.676995
     89          1           0      -13.185208   -2.003442   -3.522950
     90          1           0      -12.102676   -0.478273   -3.809518
     91          1           0      -11.538657   -2.205332   -3.350572
     92          1           0       -8.373524   -4.711610   -1.969458
     93          1           0       -8.034879   -5.759764   -0.543902
     94          1           0       -9.849046   -4.703200   -0.502075
     95          1           0       -3.591943   -3.667268   -0.172929
     96          1           0       -1.490571   -4.025723    3.501498
     97          1           0       -3.039429   -4.943787    3.751230
     98          1           0       -1.451791   -5.822720    2.929274
     99          1           0        2.579113   -1.612309   -1.474784
    100          1           0        2.430873    0.097725   -2.217860
    101          1           0        4.127505   -0.731300    0.330698
    102          1           0        4.107293    1.025846   -2.945200
    103          1           0        5.154764    2.226536   -2.325164
    104          1           0        5.894507    0.985937   -3.271278
    105          1           0        6.730613    1.648883   -0.309856
    106          1           0        6.203428   -0.187985    0.608328
    107          1           0        7.518665   -1.164275   -1.020761
    108          1           0        7.866441    0.097032   -1.995057
    109          1           0        9.088181    1.152301    0.103786
    110          1           0        8.908228   -0.487664    0.819794
    111          1           0       10.481470    0.060716   -1.652499
    112          1           0        9.241961   -2.189697   -1.990659
    113          1           0       11.020486   -2.450119   -1.430343
    114          1           0        9.815667   -2.639736   -0.101575
    115          1           0       11.415496    0.758664    0.409307
    116          1           0       11.479779   -1.002296    1.190737
    117          1           0       12.984814   -1.656849   -0.893980
    118          1           0       12.839534   -0.077631   -1.489100
    119          1           0       13.876336    0.837325    0.738464
    120          1           0       13.997811   -0.682349    1.012108
    121          1           0       15.318033    0.518696   -1.329373
    122          1           0       16.173248   -2.255231   -0.093153
    123          1           0       14.990148   -2.203848   -1.516320
    124          1           0       16.687418   -1.632894   -1.700168
    125          1           0       16.076497    1.460742    0.682280
    126          1           0       16.730872   -0.000716    1.380571
    127          1           0       18.088730   -0.468507   -0.628381
    128          1           0       17.961781    1.222019   -1.254185
    129          1           0       18.631626    2.253580    0.959447
    130          1           0       18.684322    0.636385    1.691566
    131          1           0       20.494429    0.255808   -0.102627
    132          1           0       20.358801    3.188417   -0.656497
    133          1           0       21.768815    1.971143   -1.603125
    134          1           0       19.727592    1.881250   -1.673092
    135          1           0       21.064250    1.396837    2.313736
    136          1           0       22.269931    1.582341    0.997809
    137          1           0       21.120534    2.911390    1.257461
 ---------------------------------------------------------------------

 SCF Done:  E(RCAM-B3LYP) =  -2932.67058200     A.U. after   15 cycles

 Excitation energies and oscillator strengths:

 Excited State   1:      Singlet-A      2.0361 eV  608.94 nm  f=0.2237  <S**2>=0.000
     240 -> 242       -0.13004
     240 -> 243       -0.23524
     241 -> 242        0.63168
     241 -> 243       -0.14733
 This state for optimization and/or second-order correction.
 Total Energy, E(TD-HF/TD-KS) =  -2932.59575839
 Copying the excited state density for this state as the 1-particle RhoCI density.

 The electronic state is 1-A.
 Alpha  occ. eigenvalues --  -46.84010 -19.27393 -19.26527 -19.22018 -19.20747
 Alpha  occ. eigenvalues --  -19.20082 -14.41253 -14.39741 -14.39018 -14.38551
 Alpha  occ. eigenvalues --  -10.39697 -10.38093 -10.35557 -10.33162 -10.32828
 Alpha  occ. eigenvalues --  -10.30575 -10.30085 -10.30009 -10.29994 -10.29199
 Alpha  occ. eigenvalues --  -10.29132 -10.29079 -10.29059 -10.29006 -10.28498
 Alpha  occ. eigenvalues --  -10.28373 -10.28215 -10.28053 -10.27499 -10.27449
 Alpha  occ. eigenvalues --  -10.27444 -10.27417 -10.27230 -10.27195 -10.27105
 Alpha  occ. eigenvalues --  -10.27010 -10.26855 -10.26794 -10.26784 -10.26754
 Alpha  occ. eigenvalues --  -10.26671 -10.26599 -10.26582 -10.26549 -10.26543
 Alpha  occ. eigenvalues --  -10.26458 -10.26189 -10.26107 -10.26027 -10.25990
 Alpha  occ. eigenvalues --  -10.25979 -10.25859 -10.25759 -10.25717 -10.25648
 Alpha  occ. eigenvalues --  -10.25584 -10.25409 -10.25166 -10.25042 -10.24874
 Alpha  occ. eigenvalues --  -10.24676 -10.24392 -10.24381 -10.24183 -10.23432
 Alpha  occ. eigenvalues --   -3.13012  -1.87728  -1.87230  -1.87203  -1.20777
 Alpha  occ. eigenvalues --   -1.20147  -1.12074  -1.11075  -1.10624  -1.04080
 Alpha  occ. eigenvalues --   -1.03394  -1.02614  -1.01485  -0.93622  -0.91014
 Alpha  occ. eigenvalues --   -0.89978  -0.89097  -0.88782  -0.88501  -0.88442
 Alpha  occ. eigenvalues --   -0.87539  -0.87219  -0.86712  -0.86625  -0.85603
 Alpha  occ. eigenvalues --   -0.84668  -0.84054  -0.83375  -0.82705  -0.81752
 Alpha  occ. eigenvalues --   -0.81535  -0.81272  -0.80654  -0.79649  -0.78300
 Alpha  occ. eigenvalues --   -0.77726  -0.77138  -0.76414  -0.76307  -0.75195
 Alpha  occ. eigenvalues --   -0.75090  -0.74643  -0.73943  -0.73013  -0.71940
 Alpha  occ. eigenvalues --   -0.71710  -0.70002  -0.68784  -0.68331  -0.67704
 Alpha  occ. eigenvalues --   -0.66640  -0.66000  -0.65380  -0.64703  -0.64316
 Alpha  occ. eigenvalues --   -0.63956  -0.63936  -0.63192  -0.63071  -0.62733
 Alpha  occ. eigenvalues --   -0.61801  -0.60606  -0.60337  -0.59791  -0.59036
 Alpha  occ. eigenvalues --   -0.58585  -0.58119  -0.57571  -0.57415  -0.56974
 Alpha  occ. eigenvalues --   -0.56221  -0.55770  -0.55077  -0.54774  -0.54510
 Alpha  occ. eigenvalues --   -0.54095  -0.54009  -0.53850  -0.53183  -0.52993
 Alpha  occ. eigenvalues --   -0.52832  -0.52618  -0.52095  -0.51793  -0.51330
 Alpha  occ. eigenvalues --   -0.51052  -0.50929  -0.50650  -0.50411  -0.50151
 Alpha  occ. eigenvalues --   -0.50086  -0.49901  -0.49432  -0.49347  -0.49060
 Alpha  occ. eigenvalues --   -0.48992  -0.48787  -0.48745  -0.48360  -0.48137
 Alpha  occ. eigenvalues --   -0.47718  -0.47574  -0.47545  -0.47480  -0.47153
 Alpha  occ. eigenvalues --   -0.46827  -0.46394  -0.46366  -0.45964  -0.45857
 Alpha  occ. eigenvalues --   -0.45514  -0.45472  -0.45262  -0.45000  -0.44948
 Alpha  occ. eigenvalues --   -0.44842  -0.44639  -0.44548  -0.44256  -0.44234
 Alpha  occ. eigenvalues --   -0.43936  -0.43770  -0.43421  -0.43294  -0.43206
 Alpha  occ. eigenvalues --   -0.43119  -0.43086  -0.42686  -0.42265  -0.42036
 Alpha  occ. eigenvalues --   -0.41803  -0.41767  -0.41686  -0.41577  -0.41475
 Alpha  occ. eigenvalues --   -0.41192  -0.41145  -0.40904  -0.40692  -0.40572
 Alpha  occ. eigenvalues --   -0.40318  -0.40143  -0.39834  -0.39308  -0.39302
 Alpha  occ. eigenvalues --   -0.38831  -0.38712  -0.38332  -0.38250  -0.37701
 Alpha  occ. eigenvalues --   -0.37400  -0.37393  -0.36957  -0.36846  -0.36745
 Alpha  occ. eigenvalues --   -0.36659  -0.36492  -0.36215  -0.35966  -0.35865
 Alpha  occ. eigenvalues --   -0.35472  -0.35255  -0.34510  -0.33925  -0.33317
 Alpha  occ. eigenvalues --   -0.32881  -0.32613  -0.31606  -0.30996  -0.30136
 Alpha  occ. eigenvalues --   -0.29364  -0.29145  -0.28465  -0.27067  -0.23253
 Alpha  occ. eigenvalues --   -0.20347
 Alpha virt. eigenvalues --   -0.05753  -0.03338   0.01604   0.04370   0.04470
 Alpha virt. eigenvalues --    0.06388   0.06836   0.07072   0.07546   0.08667
 Alpha virt. eigenvalues --    0.09157   0.10459   0.10831   0.11272   0.11439

 Mulliken charges:
               1
     1  Mg   0.817418
     2  C    0.078458
     3  C   -0.165861
     4  C   -0.189814
     5  C   -0.168275
     6  N   -0.693398
     7  C    0.360934
     8  C   -0.174560
     9  C   -0.160108
    10  C    0.353777
    11  C   -0.329765
    12  C   -0.172037
    13  C   -0.254781
    14  C    0.585509
    15  O   -0.455307
    16  O   -0.463680
    17  N   -0.695827
    18  C    0.274739
    19  C    0.011554
    20  C    0.012457
    21  C    0.297683
    22  C   -0.383890
    23  C   -0.053991
    24  C   -0.274959
    25  N   -0.643726
    26  C    0.239188
    27  C    0.062850
    28  C   -0.017191
    29  C    0.299975
    30  C   -0.360937
    31  C   -0.235751
    32  C   -0.307913
    33  N   -0.729529
    34  C    0.338242
    35  C   -0.043606
    36  C    0.037152
    37  C    0.263097
    38  C   -0.347898
    39  C    0.327015
    40  O   -0.463720
    41  C   -0.292504
    42  C    0.640821
    43  O   -0.460087
    44  O   -0.431566
    45  C   -0.098087
    46  C   -0.000482
    47  C   -0.149978
    48  C    0.154499
    49  C   -0.381677
    50  C   -0.212974
    51  C   -0.197654
    52  C   -0.150312
    53  C   -0.067974
    54  C   -0.301466
    55  C   -0.166621
    56  C   -0.184893
    57  C   -0.182265
    58  C   -0.054034
    59  C   -0.327281
    60  C   -0.188223
    61  C   -0.189815
    62  C   -0.163381
    63  C   -0.087085
    64  C   -0.276951
    65  C   -0.305459
    66  H    0.080078
    67  H    0.081126
    68  H    0.064080
    69  H    0.127471
    70  H    0.106227
    71  H    0.111533
    72  H    0.111693
    73  H    0.116699
    74  H    0.099082
    75  H    0.083329
    76  H    0.140908
    77  H    0.122838
    78  H    0.128963
    79  H    0.111835
    80  H    0.123561
    81  H    0.075253
    82  H    0.104036
    83  H    0.101588
    84  H    0.116088
    85  H    0.115319
    86  H    0.121645
    87  H    0.111681
    88  H    0.079751
    89  H    0.102817
    90  H    0.110765
    91  H    0.103050
    92  H    0.160409
    93  H    0.150537
    94  H    0.106663
    95  H    0.164326
    96  H    0.125620
    97  H    0.141306
    98  H    0.141246
    99  H    0.141161
   100  H    0.116163
   101  H    0.099697
   102  H    0.115777
   103  H    0.116272
   104  H    0.128177
   105  H    0.075024
   106  H    0.099149
   107  H    0.092575
   108  H    0.101035
   109  H    0.059696
   110  H    0.099596
   111  H    0.067507
   112  H    0.112951
   113  H    0.114191
   114  H    0.107046
   115  H    0.101752
   116  H    0.059766
   117  H    0.086085
   118  H    0.101505
   119  H    0.074420
   120  H    0.102588
   121  H    0.095866
   122  H    0.104761
   123  H    0.091160
   124  H    0.101076
   125  H    0.078382
   126  H    0.090204
   127  H    0.086753
   128  H    0.089558
   129  H    0.104105
   130  H    0.085710
   131  H    0.095877
   132  H    0.094911
   133  H    0.062649
   134  H    0.111329
   135  H    0.096033
   136  H    0.091849
   137  H    0.108044
 Sum of Mulliken charges =   0.00000

 Dipole moment (field-independent basis, Debye):
    X=              3.6958    Y=              1.3453    Z=              0.2502  Tot=              3.9410
 Quadrupole moment (field-independent basis, Debye-Ang):
   XX=           -373.4256   YY=           -397.0758   ZZ=           -395.1001
   XY=             -8.8040   XZ=              8.9904   YZ=             -2.0734

 Normal termination of Gaussian 09 at Sat Jul  6 17:06:25 2019.
