 Gaussian 16, Revision A.03,
 Gaussian 16:  ES64L-G16RevA.03 25-Dec-2016

 ----------------------------------------------------------------------
 # td=(NStates=1) iop(3/107=0140000000,3/108=0140000000) CAM-B3LYP/6-31
 G(d,p)
 ----------------------------------------------------------------------

 --
 TD
 --
 Symbolic Z-matrix:
 Charge =  0 Multiplicity = 1

                         Standard orientation:
 ---------------------------------------------------------------------
 Center     Atomic      Atomic             Coordinates (Angstroms)
 Number     Number       Type             X           Y           Z
 ---------------------------------------------------------------------
      1         12           0       -7.117600    0.580539    0.072094
      2          6           0       -4.875468   -1.979201    0.682306
      3          6           0       -4.746070    2.886572    1.192938
      4          6           0       -9.301588    3.080733   -0.468405
      5          6           0       -9.534089   -1.773211   -0.912184
      6          7           0       -5.057534    0.445900    0.826592
      7          6           0       -4.359971   -0.716715    0.822622
      8          6           0       -2.936389   -0.432279    1.173647
      9          6           0       -2.997544    1.023729    1.680862
     10          6           0       -4.293776    1.523980    1.225484
     11          6           0       -2.853270    1.265983    3.162902
     12          6           0       -1.849018   -0.654523    0.039994
     13          6           0       -0.408903   -0.409423    0.514229
     14          6           0        0.541425   -0.557333   -0.700125
     15          8           0        0.300102   -1.016736   -1.807794
     16          8           0        1.778011   -0.334217   -0.306587
     17          7           0       -7.090030    2.641782    0.221182
     18          6           0       -6.056693    3.438860    0.773072
     19          6           0       -6.344352    4.849652    0.816153
     20          6           0       -7.679570    4.933998    0.396757
     21          6           0       -8.091865    3.526860    0.057448
     22          6           0       -5.394821    5.926788    1.188598
     23          6           0       -8.475064    6.013630    0.119906
     24          6           0       -8.453058    7.232831    0.683465
     25          7           0       -9.104639    0.639925   -0.493663
     26          6           0       -9.752009    1.839158   -0.688128
     27          6           0      -11.144666    1.516863   -1.124691
     28          6           0      -11.248811    0.178965   -1.221134
     29          6           0       -9.942060   -0.382592   -0.879099
     30          6           0      -12.277328    2.529367   -1.308553
     31          6           0      -12.288878   -0.598861   -1.668148
     32          6           0      -12.397079   -1.162604   -3.157538
     33          7           0       -7.257419   -1.463200   -0.049636
     34          6           0       -8.349329   -2.230654   -0.485011
     35          6           0       -7.816361   -3.601145   -0.506673
     36          6           0       -6.456799   -3.607665   -0.089385
     37          6           0       -6.191749   -2.182157    0.249093
     38          6           0       -8.718707   -4.765394   -0.833890
     39          6           0       -5.272227   -4.377868    0.210096
     40          8           0       -5.182252   -5.568862    0.312377
     41          6           0       -4.092409   -3.289884    0.584934
     42          6           0       -3.516636   -3.672454    1.896880
     43          8           0       -3.827869   -3.210577    2.937041
     44          8           0       -2.666331   -4.784568    1.759150
     45          6           0       -2.153390   -5.292311    3.071190
     46          6           0        2.784209   -0.548214   -1.236588
     47          6           0        4.066831   -0.395596   -0.587148
     48          6           0        5.063806    0.313445   -1.043656
     49          6           0        5.156013    1.036197   -2.446218
     50          6           0        6.432183    0.318243   -0.282660
     51          6           0        7.638169   -0.245006   -1.030478
     52          6           0        8.942658   -0.123429   -0.231673
     53          6           0       10.205359   -0.566094   -1.064474
     54          6           0       10.071678   -2.006714   -1.500627
     55          6           0       11.421667   -0.331924   -0.142076
     56          6           0       12.791836   -0.519008   -0.727144
     57          6           0       13.998015   -0.291812    0.226062
     58          6           0       15.385352   -0.329929   -0.459313
     59          6           0       15.699656   -1.712510   -0.853193
     60          6           0       16.416162    0.370472    0.443668
     61          6           0       17.719132    0.560650   -0.110109
     62          6           0       18.568253    1.337479    0.769071
     63          6           0       20.093839    1.523878    0.350047
     64          6           0       20.139102    2.174524   -0.851868
     65          6           0       21.013203    2.093059    1.461661
     66          1           0       -3.998902    3.660856    1.476605
     67          1           0       -9.927694    3.999939   -0.579196
     68          1           0      -10.368637   -2.405320   -1.220121
     69          1           0       -2.695792   -1.140825    1.978649
     70          1           0       -2.146728    1.585002    1.222978
     71          1           0       -1.778312    0.993073    3.315939
     72          1           0       -3.071494    2.233391    3.368913
     73          1           0       -3.466670    0.617977    3.869044
     74          1           0       -2.008890   -1.651531   -0.399723
     75          1           0       -2.121191    0.128250   -0.743423
     76          1           0       -0.339468    0.612791    0.943648
     77          1           0       -0.324150   -1.255972    1.137178
     78          1           0       -5.474681    6.905322    0.609284
     79          1           0       -5.249195    5.786157    2.312681
     80          1           0       -4.424986    5.438757    0.978858
     81          1           0       -9.488907    5.545476   -0.271437
     82          1           0       -9.258093    8.095147    0.356512
     83          1           0       -7.946711    7.533156    1.571230
     84          1           0      -12.227418    2.939269   -2.341601
     85          1           0      -13.267429    1.990647   -1.414172
     86          1           0      -12.325950    3.229758   -0.544246
     87          1           0      -12.236826   -1.610958   -1.117366
     88          1           0      -13.419748   -0.307260   -1.378508
     89          1           0      -13.271677   -1.794734   -3.267836
     90          1           0      -12.151244   -0.280662   -3.787843
     91          1           0      -11.584169   -1.995760   -3.602380
     92          1           0       -8.930332   -4.693708   -2.045069
     93          1           0       -7.941938   -5.776358   -0.821844
     94          1           0       -9.486021   -4.826097   -0.204874
     95          1           0       -3.288307   -3.580741   -0.359945
     96          1           0       -1.576982   -4.634241    3.741937
     97          1           0       -3.067622   -5.565623    3.492133
     98          1           0       -1.472451   -6.263579    2.681864
     99          1           0        2.647741   -1.596079   -1.714672
    100          1           0        2.614371    0.349139   -2.140618
    101          1           0        4.131630   -1.110358    0.274662
    102          1           0        4.083858    1.026373   -2.814261
    103          1           0        5.464383    1.944093   -2.251677
    104          1           0        5.943432    0.722375   -3.174794
    105          1           0        6.517230    1.238980    0.087069
    106          1           0        6.252054   -0.100587    0.678889
    107          1           0        7.469256   -1.276996   -1.401177
    108          1           0        7.672280    0.364664   -1.930326
    109          1           0        9.068298    0.778785    0.231179
    110          1           0        8.744981   -0.655532    0.614191
    111          1           0       10.251829    0.189883   -2.010318
    112          1           0        9.196015   -1.992698   -2.335233
    113          1           0       10.983435   -2.347680   -1.780706
    114          1           0        9.649177   -2.577875   -0.690936
    115          1           0       11.294774    0.680422    0.195960
    116          1           0       11.407447   -1.112332    0.674308
    117          1           0       12.882633   -1.589393   -1.223713
    118          1           0       12.738574    0.117873   -1.417980
    119          1           0       13.935918    0.734284    0.683237
    120          1           0       14.000119   -0.985918    1.074720
    121          1           0       15.198990    0.130300   -1.482904
    122          1           0       15.557002   -2.497283   -0.033818
    123          1           0       14.785668   -2.142803   -1.423726
    124          1           0       16.581996   -1.863774   -1.462373
    125          1           0       15.978988    1.324198    0.892028
    126          1           0       16.395452   -0.009904    1.445867
    127          1           0       18.018293   -0.282547   -0.186835
    128          1           0       17.662734    1.018451   -1.210672
    129          1           0       18.260767    2.424514    0.959041
    130          1           0       18.661094    0.878556    1.901085
    131          1           0       20.589044    0.480538    0.178805
    132          1           0       20.009649    3.248702   -0.946030
    133          1           0       21.124655    2.289070   -1.375725
    134          1           0       19.576835    1.800080   -1.654756
    135          1           0       20.886432    1.688749    2.516710
    136          1           0       21.993682    2.149772    1.144571
    137          1           0       20.601563    3.116288    1.505733
 ---------------------------------------------------------------------

 SCF Done:  E(RCAM-B3LYP) =  -2933.45270923     A.U. after   16 cycles

 Excitation energies and oscillator strengths:

 Excited State   1:      Singlet-A      1.9631 eV  631.57 nm  f=0.2830  <S**2>=0.000
     240 -> 243       -0.22097
     241 -> 242        0.66789
 This state for optimization and/or second-order correction.
 Total Energy, E(TD-HF/TD-DFT) =  -2933.38056655
 Copying the excited state density for this state as the 1-particle RhoCI density.

 The electronic state is 1-A.
 Alpha  occ. eigenvalues --  -46.80736 -19.22477 -19.20621 -19.16976 -19.16567
 Alpha  occ. eigenvalues --  -19.16483 -14.37464 -14.35847 -14.35441 -14.35314
 Alpha  occ. eigenvalues --  -10.34592 -10.33828 -10.30877 -10.28459 -10.27365
 Alpha  occ. eigenvalues --  -10.26486 -10.26073 -10.25998 -10.25744 -10.25180
 Alpha  occ. eigenvalues --  -10.25135 -10.25048 -10.24685 -10.24642 -10.24444
 Alpha  occ. eigenvalues --  -10.23692 -10.23331 -10.23224 -10.23127 -10.23079
 Alpha  occ. eigenvalues --  -10.23073 -10.23045 -10.22963 -10.22858 -10.22854
 Alpha  occ. eigenvalues --  -10.22793 -10.22786 -10.22764 -10.22754 -10.22708
 Alpha  occ. eigenvalues --  -10.22691 -10.22223 -10.22142 -10.22045 -10.21899
 Alpha  occ. eigenvalues --  -10.21644 -10.21621 -10.21506 -10.21368 -10.21157
 Alpha  occ. eigenvalues --  -10.21151 -10.21090 -10.21053 -10.20918 -10.20840
 Alpha  occ. eigenvalues --  -10.20442 -10.20413 -10.20216 -10.20014 -10.19970
 Alpha  occ. eigenvalues --  -10.19952 -10.19792 -10.19394 -10.18874 -10.18528
 Alpha  occ. eigenvalues --   -3.09128  -1.84089  -1.83595  -1.83514  -1.15376
 Alpha  occ. eigenvalues --   -1.11942  -1.07237  -1.04303  -1.03583  -0.99318
 Alpha  occ. eigenvalues --   -0.98287  -0.98028  -0.96948  -0.87221  -0.87059
 Alpha  occ. eigenvalues --   -0.86171  -0.85314  -0.84976  -0.84762  -0.84510
 Alpha  occ. eigenvalues --   -0.84101  -0.83403  -0.82784  -0.82200  -0.81780
 Alpha  occ. eigenvalues --   -0.81020  -0.80100  -0.79180  -0.78607  -0.77627
 Alpha  occ. eigenvalues --   -0.77466  -0.75947  -0.75522  -0.75195  -0.73677
 Alpha  occ. eigenvalues --   -0.73061  -0.72508  -0.72385  -0.72057  -0.70855
 Alpha  occ. eigenvalues --   -0.70755  -0.70672  -0.70352  -0.69612  -0.67922
 Alpha  occ. eigenvalues --   -0.67469  -0.66197  -0.65667  -0.64834  -0.64059
 Alpha  occ. eigenvalues --   -0.63510  -0.63083  -0.61769  -0.61239  -0.60280
 Alpha  occ. eigenvalues --   -0.59955  -0.59506  -0.58839  -0.58531  -0.57917
 Alpha  occ. eigenvalues --   -0.57129  -0.56711  -0.55931  -0.55542  -0.55191
 Alpha  occ. eigenvalues --   -0.54813  -0.54157  -0.54122  -0.53280  -0.52332
 Alpha  occ. eigenvalues --   -0.51859  -0.51718  -0.51322  -0.50925  -0.50802
 Alpha  occ. eigenvalues --   -0.50661  -0.50561  -0.50336  -0.49743  -0.49659
 Alpha  occ. eigenvalues --   -0.49302  -0.49241  -0.48605  -0.48429  -0.48133
 Alpha  occ. eigenvalues --   -0.48010  -0.47896  -0.47617  -0.47422  -0.47350
 Alpha  occ. eigenvalues --   -0.47145  -0.46979  -0.46597  -0.46383  -0.46151
 Alpha  occ. eigenvalues --   -0.46014  -0.45686  -0.45624  -0.45393  -0.45239
 Alpha  occ. eigenvalues --   -0.45047  -0.44747  -0.44548  -0.44334  -0.43939
 Alpha  occ. eigenvalues --   -0.43775  -0.43464  -0.43238  -0.43169  -0.42784
 Alpha  occ. eigenvalues --   -0.42442  -0.42386  -0.42174  -0.41824  -0.41667
 Alpha  occ. eigenvalues --   -0.41543  -0.41340  -0.41072  -0.40828  -0.40745
 Alpha  occ. eigenvalues --   -0.40499  -0.40448  -0.40293  -0.39918  -0.39852
 Alpha  occ. eigenvalues --   -0.39815  -0.39269  -0.39188  -0.39047  -0.38958
 Alpha  occ. eigenvalues --   -0.38763  -0.38573  -0.38504  -0.38320  -0.38136
 Alpha  occ. eigenvalues --   -0.38079  -0.37959  -0.37939  -0.37657  -0.37188
 Alpha  occ. eigenvalues --   -0.36890  -0.36741  -0.36459  -0.36327  -0.35824
 Alpha  occ. eigenvalues --   -0.35589  -0.35365  -0.34959  -0.34728  -0.34271
 Alpha  occ. eigenvalues --   -0.34243  -0.34039  -0.33620  -0.33522  -0.33294
 Alpha  occ. eigenvalues --   -0.33053  -0.32830  -0.32695  -0.32607  -0.32347
 Alpha  occ. eigenvalues --   -0.32087  -0.31929  -0.31234  -0.30618  -0.30481
 Alpha  occ. eigenvalues --   -0.30450  -0.29920  -0.29637  -0.28403  -0.27611
 Alpha  occ. eigenvalues --   -0.27244  -0.26484  -0.25845  -0.24172  -0.21947
 Alpha  occ. eigenvalues --   -0.19653
 Alpha virt. eigenvalues --   -0.07204  -0.04117  -0.00469   0.01283   0.03430
 Alpha virt. eigenvalues --    0.03520   0.04396   0.04883   0.05145   0.05376
 Alpha virt. eigenvalues --    0.06433   0.08452   0.09046   0.09601   0.09933

 Mulliken charges:
               1
     1  Mg   0.813362
     2  C    0.096436
     3  C   -0.211644
     4  C   -0.172161
     5  C   -0.167460
     6  N   -0.648465
     7  C    0.343619
     8  C   -0.172229
     9  C   -0.162353
    10  C    0.339448
    11  C   -0.295311
    12  C   -0.185354
    13  C   -0.256796
    14  C    0.593609
    15  O   -0.473917
    16  O   -0.423013
    17  N   -0.683855
    18  C    0.270198
    19  C    0.056816
    20  C    0.055951
    21  C    0.291737
    22  C   -0.387560
    23  C   -0.092364
    24  C   -0.265378
    25  N   -0.713110
    26  C    0.319391
    27  C    0.017243
    28  C    0.121231
    29  C    0.273865
    30  C   -0.376397
    31  C   -0.313665
    32  C   -0.295597
    33  N   -0.771579
    34  C    0.349301
    35  C   -0.036828
    36  C    0.058762
    37  C    0.312474
    38  C   -0.362245
    39  C    0.334139
    40  O   -0.430489
    41  C   -0.345349
    42  C    0.652347
    43  O   -0.449361
    44  O   -0.490898
    45  C   -0.084074
    46  C    0.009129
    47  C   -0.100757
    48  C    0.083496
    49  C   -0.356509
    50  C   -0.234534
    51  C   -0.177266
    52  C   -0.172181
    53  C   -0.054297
    54  C   -0.296612
    55  C   -0.177298
    56  C   -0.163407
    57  C   -0.184862
    58  C   -0.036544
    59  C   -0.312176
    60  C   -0.189791
    61  C   -0.104840
    62  C   -0.177484
    63  C   -0.049118
    64  C   -0.307125
    65  C   -0.313399
    66  H    0.066083
    67  H    0.070148
    68  H    0.093995
    69  H    0.114617
    70  H    0.095548
    71  H    0.096582
    72  H    0.118943
    73  H    0.120719
    74  H    0.121504
    75  H    0.102548
    76  H    0.128919
    77  H    0.150726
    78  H    0.135807
    79  H    0.130154
    80  H    0.119701
    81  H    0.076826
    82  H    0.081125
    83  H    0.118672
    84  H    0.123746
    85  H    0.106913
    86  H    0.130491
    87  H    0.091426
    88  H    0.095090
    89  H    0.119431
    90  H    0.114623
    91  H    0.070099
    92  H    0.107773
    93  H    0.113946
    94  H    0.142935
    95  H    0.141767
    96  H    0.129482
    97  H    0.150104
    98  H    0.106150
    99  H    0.123639
   100  H    0.075561
   101  H    0.093040
   102  H    0.096465
   103  H    0.131783
   104  H    0.123565
   105  H    0.111300
   106  H    0.085874
   107  H    0.099805
   108  H    0.088105
   109  H    0.089306
   110  H    0.100481
   111  H    0.057025
   112  H    0.083287
   113  H    0.109190
   114  H    0.110448
   115  H    0.090422
   116  H    0.078907
   117  H    0.070409
   118  H    0.103325
   119  H    0.081027
   120  H    0.088388
   121  H    0.079406
   122  H    0.086780
   123  H    0.085869
   124  H    0.105743
   125  H    0.069085
   126  H    0.094333
   127  H    0.108581
   128  H    0.076254
   129  H    0.082505
   130  H    0.058545
   131  H    0.066628
   132  H    0.094166
   133  H    0.081809
   134  H    0.111731
   135  H    0.097077
   136  H    0.113492
   137  H    0.093148
 Sum of Mulliken charges =  -0.00000

 Dipole moment (field-independent basis, Debye):
    X=              1.9530    Y=              3.9147    Z=              0.6957  Tot=              4.4298
 Quadrupole moment (field-independent basis, Debye-Ang):
   XX=           -347.7569   YY=           -400.2128   ZZ=           -397.9081
   XY=            -12.3695   XZ=              8.3228   YZ=              1.1514

 Normal termination of Gaussian 16 at Sun Sep 15 15:07:13 2019.
