 Gaussian 09, Revision D.01,
 Gaussian 09:  ES64L-G09RevD.01 24-Apr-2013

 -------------------------------------
 # td=(NStates=1) CAM-B3LYP/6-31G(d,p)
 -------------------------------------

 --
 TD
 --
 Symbolic Z-matrix:
 Charge =  0 Multiplicity = 1

                         Standard orientation:
 ---------------------------------------------------------------------
 Center     Atomic      Atomic             Coordinates (Angstroms)
 Number     Number       Type             X           Y           Z
 ---------------------------------------------------------------------
      1         12           0       -7.171308    0.595350    0.215263
      2          6           0       -4.842875   -2.029772    0.479636
      3          6           0       -4.817219    2.851979    1.184749
      4          6           0       -9.336589    3.058305   -0.444390
      5          6           0       -9.453221   -1.645839   -0.856539
      6          7           0       -5.055502    0.395091    0.702309
      7          6           0       -4.334035   -0.730731    0.827950
      8          6           0       -2.918304   -0.449549    1.327209
      9          6           0       -3.019716    1.047994    1.665995
     10          6           0       -4.348311    1.490650    1.224917
     11          6           0       -2.869498    1.354046    3.176302
     12          6           0       -1.948457   -0.587236    0.100910
     13          6           0       -0.501692   -0.534774    0.595141
     14          6           0        0.423877   -0.730070   -0.466496
     15          8           0        0.227857   -0.764979   -1.697832
     16          8           0        1.773898   -0.569309   -0.068108
     17          7           0       -7.080956    2.635878    0.246263
     18          6           0       -5.983797    3.347212    0.704640
     19          6           0       -6.371936    4.803147    0.790960
     20          6           0       -7.648540    4.786780    0.333992
     21          6           0       -8.019024    3.479495   -0.107442
     22          6           0       -5.512656    5.910240    1.236000
     23          6           0       -8.512472    5.963999    0.026216
     24          6           0       -8.392004    7.191990    0.762088
     25          7           0       -9.093945    0.649699   -0.534940
     26          6           0       -9.822846    1.777068   -0.686028
     27          6           0      -11.179215    1.502953   -1.156644
     28          6           0      -11.216155    0.115907   -1.275070
     29          6           0       -9.930089   -0.368291   -0.831348
     30          6           0      -12.228401    2.487453   -1.313863
     31          6           0      -12.430726   -0.703027   -1.634810
     32          6           0      -12.431881   -1.053853   -3.074093
     33          7           0       -7.163790   -1.357507   -0.249820
     34          6           0       -8.180608   -2.191958   -0.669726
     35          6           0       -7.830203   -3.575280   -0.530093
     36          6           0       -6.521485   -3.591598   -0.135785
     37          6           0       -6.188639   -2.218901    0.065217
     38          6           0       -8.513894   -4.837471   -0.953449
     39          6           0       -5.306561   -4.372115    0.238328
     40          8           0       -5.118771   -5.571797    0.188258
     41          6           0       -4.155755   -3.370250    0.427424
     42          6           0       -3.561705   -3.717533    1.830899
     43          8           0       -3.629150   -3.217662    2.900460
     44          8           0       -2.721662   -4.755504    1.727170
     45          6           0       -2.174858   -5.157335    3.055996
     46          6           0        2.707945   -0.672696   -1.169354
     47          6           0        4.108917   -0.457132   -0.489323
     48          6           0        5.132580    0.273949   -1.052388
     49          6           0        5.071776    1.101187   -2.312817
     50          6           0        6.406909    0.426195   -0.223143
     51          6           0        7.589815   -0.090928   -0.992542
     52          6           0        8.838342   -0.171650   -0.148255
     53          6           0       10.168767   -0.558236   -0.923831
     54          6           0       10.115712   -2.030756   -1.447481
     55          6           0       11.326070   -0.282845    0.062406
     56          6           0       12.690539   -0.441360   -0.636253
     57          6           0       13.846730   -0.093842    0.201714
     58          6           0       15.292984   -0.133841   -0.400747
     59          6           0       15.626287   -1.460788   -1.071641
     60          6           0       16.382410    0.247600    0.510034
     61          6           0       17.723928    0.479739   -0.106739
     62          6           0       18.818966    1.316706    0.729593
     63          6           0       20.188013    1.332568    0.203187
     64          6           0       20.287315    2.215543   -1.019827
     65          6           0       21.243449    1.839862    1.284272
     66          1           0       -4.203590    3.519839    1.597575
     67          1           0      -10.138272    4.021525   -0.582509
     68          1           0      -10.207451   -2.523308   -1.030646
     69          1           0       -2.644884   -1.153648    2.261971
     70          1           0       -2.203225    1.628441    1.198827
     71          1           0       -1.740321    1.255186    3.444438
     72          1           0       -3.079825    2.401807    3.491732
     73          1           0       -3.570094    0.556483    3.591155
     74          1           0       -1.983043   -1.526260   -0.538866
     75          1           0       -2.069817    0.378047   -0.549420
     76          1           0       -0.224747    0.522364    0.885954
     77          1           0       -0.265123   -1.344463    1.553166
     78          1           0       -5.711052    6.869757    0.622448
     79          1           0       -5.705268    6.122298    2.280848
     80          1           0       -4.261850    5.814207    1.185400
     81          1           0       -9.300585    6.051892   -0.685777
     82          1           0       -9.010050    7.870809    0.404075
     83          1           0       -7.889143    7.505390    1.550842
     84          1           0      -12.004116    3.239756   -2.162695
     85          1           0      -13.124352    1.949073   -1.564193
     86          1           0      -12.581580    3.068564   -0.518813
     87          1           0      -12.209200   -1.754547   -1.123240
     88          1           0      -13.382489   -0.332340   -1.369954
     89          1           0      -13.302465   -1.468907   -3.289848
     90          1           0      -12.506768   -0.253702   -3.716716
     91          1           0      -11.414029   -1.453643   -3.179279
     92          1           0       -8.706874   -4.895502   -1.954113
     93          1           0       -7.934359   -5.546192   -0.727095
     94          1           0       -9.454351   -5.071600   -0.427734
     95          1           0       -3.469060   -3.686127   -0.304565
     96          1           0       -1.821925   -4.409475    3.520974
     97          1           0       -3.032711   -5.533258    3.618234
     98          1           0       -1.409760   -5.979324    2.630936
     99          1           0        2.412049   -1.583356   -1.270270
    100          1           0        2.514791    0.118730   -1.991304
    101          1           0        4.023363   -1.061083    0.615509
    102          1           0        4.171888    0.936900   -2.720584
    103          1           0        5.324862    2.133617   -2.070216
    104          1           0        5.836057    0.649640   -3.078364
    105          1           0        6.504519    1.645007   -0.069372
    106          1           0        6.367573   -0.028114    0.737954
    107          1           0        7.186681   -1.190330   -1.452129
    108          1           0        7.981579    0.378930   -1.950976
    109          1           0        8.829905    1.017990    0.362869
    110          1           0        8.856300   -0.879966    0.631478
    111          1           0       10.267999   -0.010763   -1.932371
    112          1           0        9.255631   -2.122376   -2.118039
    113          1           0       10.881380   -2.398410   -2.036259
    114          1           0        9.993685   -2.564524   -0.615993
    115          1           0       11.128925    0.833286    0.295472
    116          1           0       11.141901   -0.974216    0.964244
    117          1           0       12.769642   -1.480446   -0.858052
    118          1           0       12.836046    0.035622   -1.806921
    119          1           0       13.593317    0.894276    0.593455
    120          1           0       13.838082   -0.906666    0.964980
    121          1           0       15.108388    0.503348   -1.357443
    122          1           0       15.520291   -2.172567   -0.342954
    123          1           0       15.051682   -1.814558   -1.990470
    124          1           0       16.652398   -1.569278   -1.458567
    125          1           0       16.202354    1.287739    1.047459
    126          1           0       16.474120   -0.588772    1.120628
    127          1           0       18.380003   -0.512025   -0.138059
    128          1           0       17.634885    0.870622   -1.065702
    129          1           0       18.425660    2.549617    0.961627
    130          1           0       18.671927    0.867566    1.734239
    131          1           0       20.491529    0.245753    0.004548
    132          1           0       20.126380    3.364638   -0.766576
    133          1           0       21.318212    2.452071   -1.382857
    134          1           0       19.805778    1.922891   -1.941207
    135          1           0       21.453639    1.164799    2.171602
    136          1           0       22.223569    1.980888    0.832176
    137          1           0       20.935287    2.930602    1.639952
 ---------------------------------------------------------------------

 SCF Done:  E(RCAM-B3LYP) =  -2932.60990836     A.U. after   18 cycles

 Excitation energies and oscillator strengths:

 Excited State   1:      Singlet-A      2.0341 eV  609.52 nm  f=0.2097  <S**2>=0.000
     240 -> 243       -0.27339
     241 -> 242        0.64727
 This state for optimization and/or second-order correction.
 Total Energy, E(TD-HF/TD-KS) =  -2932.53515515
 Copying the excited state density for this state as the 1-particle RhoCI density.

 The electronic state is 1-A.
 Alpha  occ. eigenvalues --  -46.84991 -19.24754 -19.24126 -19.20900 -19.20839
 Alpha  occ. eigenvalues --  -19.20649 -14.42378 -14.39487 -14.39281 -14.39145
 Alpha  occ. eigenvalues --  -10.39086 -10.38647 -10.35512 -10.31677 -10.31060
 Alpha  occ. eigenvalues --  -10.30520 -10.30040 -10.30036 -10.29785 -10.28909
 Alpha  occ. eigenvalues --  -10.28890 -10.28840 -10.28770 -10.28633 -10.28585
 Alpha  occ. eigenvalues --  -10.28480 -10.28432 -10.28232 -10.28177 -10.28045
 Alpha  occ. eigenvalues --  -10.27904 -10.27866 -10.27704 -10.27637 -10.27471
 Alpha  occ. eigenvalues --  -10.27451 -10.27411 -10.27193 -10.27095 -10.26867
 Alpha  occ. eigenvalues --  -10.26780 -10.26697 -10.26693 -10.26603 -10.26527
 Alpha  occ. eigenvalues --  -10.26412 -10.26363 -10.26273 -10.26101 -10.26020
 Alpha  occ. eigenvalues --  -10.25845 -10.25832 -10.25640 -10.25631 -10.25551
 Alpha  occ. eigenvalues --  -10.25290 -10.25237 -10.25053 -10.24932 -10.24717
 Alpha  occ. eigenvalues --  -10.24531 -10.23761 -10.23384 -10.22761 -10.22650
 Alpha  occ. eigenvalues --   -3.13984  -1.88678  -1.88206  -1.88176  -1.19126
 Alpha  occ. eigenvalues --   -1.15976  -1.11521  -1.08380  -1.06961  -1.05153
 Alpha  occ. eigenvalues --   -1.04524  -1.04022  -1.03273  -0.92793  -0.91137
 Alpha  occ. eigenvalues --   -0.90872  -0.90432  -0.89596  -0.89146  -0.89064
 Alpha  occ. eigenvalues --   -0.88770  -0.88240  -0.88093  -0.87804  -0.86924
 Alpha  occ. eigenvalues --   -0.85173  -0.84536  -0.84117  -0.82834  -0.82562
 Alpha  occ. eigenvalues --   -0.81625  -0.80907  -0.80405  -0.79988  -0.78730
 Alpha  occ. eigenvalues --   -0.78201  -0.77647  -0.76921  -0.76405  -0.75905
 Alpha  occ. eigenvalues --   -0.75323  -0.75004  -0.74675  -0.72900  -0.72377
 Alpha  occ. eigenvalues --   -0.71864  -0.70060  -0.69791  -0.68866  -0.68499
 Alpha  occ. eigenvalues --   -0.67805  -0.65852  -0.65154  -0.64572  -0.63606
 Alpha  occ. eigenvalues --   -0.63561  -0.62377  -0.62254  -0.62022  -0.61440
 Alpha  occ. eigenvalues --   -0.61264  -0.60858  -0.60713  -0.60119  -0.59032
 Alpha  occ. eigenvalues --   -0.58801  -0.58705  -0.58175  -0.58052  -0.57199
 Alpha  occ. eigenvalues --   -0.56365  -0.56029  -0.55603  -0.55389  -0.55035
 Alpha  occ. eigenvalues --   -0.54689  -0.54333  -0.54074  -0.53789  -0.53468
 Alpha  occ. eigenvalues --   -0.53406  -0.52867  -0.52332  -0.51696  -0.51581
 Alpha  occ. eigenvalues --   -0.51520  -0.51220  -0.50990  -0.50750  -0.50542
 Alpha  occ. eigenvalues --   -0.50449  -0.50074  -0.49732  -0.49658  -0.49308
 Alpha  occ. eigenvalues --   -0.49156  -0.49070  -0.48997  -0.48546  -0.48192
 Alpha  occ. eigenvalues --   -0.48065  -0.47895  -0.47660  -0.47509  -0.47217
 Alpha  occ. eigenvalues --   -0.47139  -0.46944  -0.46668  -0.46484  -0.46272
 Alpha  occ. eigenvalues --   -0.46158  -0.45951  -0.45751  -0.45405  -0.45228
 Alpha  occ. eigenvalues --   -0.45130  -0.45050  -0.44673  -0.44470  -0.44269
 Alpha  occ. eigenvalues --   -0.44038  -0.43861  -0.43605  -0.43568  -0.43174
 Alpha  occ. eigenvalues --   -0.43051  -0.42907  -0.42683  -0.42644  -0.42455
 Alpha  occ. eigenvalues --   -0.41968  -0.41879  -0.41857  -0.41591  -0.41499
 Alpha  occ. eigenvalues --   -0.41222  -0.40921  -0.40613  -0.40359  -0.40143
 Alpha  occ. eigenvalues --   -0.40108  -0.39809  -0.39654  -0.39520  -0.39355
 Alpha  occ. eigenvalues --   -0.38732  -0.38554  -0.37823  -0.37676  -0.37569
 Alpha  occ. eigenvalues --   -0.37136  -0.36981  -0.36803  -0.36588  -0.36246
 Alpha  occ. eigenvalues --   -0.36193  -0.35886  -0.35872  -0.35824  -0.35145
 Alpha  occ. eigenvalues --   -0.34688  -0.34628  -0.34286  -0.34019  -0.33783
 Alpha  occ. eigenvalues --   -0.33748  -0.33202  -0.32475  -0.30790  -0.30437
 Alpha  occ. eigenvalues --   -0.30157  -0.29085  -0.28346  -0.27308  -0.22797
 Alpha  occ. eigenvalues --   -0.20884
 Alpha virt. eigenvalues --   -0.06143  -0.03091   0.01258   0.03320   0.04201
 Alpha virt. eigenvalues --    0.04218   0.06071   0.06426   0.07033   0.07630
 Alpha virt. eigenvalues --    0.08724   0.10484   0.10780   0.11465   0.11955

 Mulliken charges:
               1
     1  Mg   0.844052
     2  C    0.059339
     3  C   -0.177844
     4  C   -0.201115
     5  C   -0.214559
     6  N   -0.623900
     7  C    0.302978
     8  C   -0.157656
     9  C   -0.169810
    10  C    0.335333
    11  C   -0.301537
    12  C   -0.174782
    13  C   -0.253812
    14  C    0.609730
    15  O   -0.488365
    16  O   -0.536609
    17  N   -0.699051
    18  C    0.307198
    19  C    0.065913
    20  C    0.002066
    21  C    0.307678
    22  C   -0.392244
    23  C   -0.121155
    24  C   -0.227713
    25  N   -0.695196
    26  C    0.316605
    27  C    0.044614
    28  C    0.027490
    29  C    0.321524
    30  C   -0.385946
    31  C   -0.246523
    32  C   -0.289090
    33  N   -0.714799
    34  C    0.257521
    35  C   -0.035092
    36  C    0.039671
    37  C    0.276367
    38  C   -0.358755
    39  C    0.369013
    40  O   -0.452662
    41  C   -0.310587
    42  C    0.604933
    43  O   -0.477025
    44  O   -0.468744
    45  C   -0.070509
    46  C    0.066564
    47  C   -0.137105
    48  C    0.078717
    49  C   -0.334782
    50  C   -0.195232
    51  C   -0.156910
    52  C   -0.149840
    53  C   -0.092660
    54  C   -0.312916
    55  C   -0.161745
    56  C   -0.169714
    57  C   -0.157033
    58  C   -0.067038
    59  C   -0.331841
    60  C   -0.149823
    61  C   -0.179527
    62  C   -0.140901
    63  C   -0.043933
    64  C   -0.309064
    65  C   -0.311873
    66  H    0.062166
    67  H    0.078169
    68  H    0.083585
    69  H    0.134240
    70  H    0.108003
    71  H    0.095563
    72  H    0.113285
    73  H    0.123364
    74  H    0.128969
    75  H    0.122788
    76  H    0.151798
    77  H    0.119140
    78  H    0.125985
    79  H    0.136535
    80  H    0.091888
    81  H    0.107457
    82  H    0.091769
    83  H    0.103537
    84  H    0.110523
    85  H    0.109300
    86  H    0.134463
    87  H    0.089361
    88  H    0.105242
    89  H    0.105361
    90  H    0.108648
    91  H    0.110076
    92  H    0.135406
    93  H    0.146319
    94  H    0.108693
    95  H    0.177742
    96  H    0.141737
    97  H    0.136213
    98  H    0.114503
    99  H    0.120219
   100  H    0.116335
   101  H    0.088289
   102  H    0.116819
   103  H    0.125621
   104  H    0.111441
   105  H    0.066574
   106  H    0.113947
   107  H    0.063270
   108  H    0.099123
   109  H    0.052656
   110  H    0.097566
   111  H    0.074011
   112  H    0.099576
   113  H    0.113484
   114  H    0.104333
   115  H    0.091183
   116  H    0.088837
   117  H    0.103856
   118  H    0.050821
   119  H    0.092087
   120  H    0.077562
   121  H    0.066774
   122  H    0.103874
   123  H    0.095194
   124  H    0.107468
   125  H    0.087447
   126  H    0.100691
   127  H    0.068727
   128  H    0.106397
   129  H    0.030777
   130  H    0.090907
   131  H    0.085004
   132  H    0.087855
   133  H    0.094744
   134  H    0.113310
   135  H    0.098938
   136  H    0.105117
   137  H    0.087057
 Sum of Mulliken charges =   0.00000

 Dipole moment (field-independent basis, Debye):
    X=              0.2943    Y=              3.8818    Z=              1.5257  Tot=              4.1812
 Quadrupole moment (field-independent basis, Debye-Ang):
   XX=           -336.6675   YY=           -393.5210   ZZ=           -396.7069
   XY=            -31.0746   XZ=             -0.1286   YZ=             -0.5962

 Normal termination of Gaussian 09 at Sun Jul  7 00:22:41 2019.
