 Gaussian 09, Revision D.01,
 Gaussian 09:  ES64L-G09RevD.01 24-Apr-2013

 -------------------------------------
 # td=(NStates=1) CAM-B3LYP/6-31G(d,p)
 -------------------------------------

 --
 TD
 --
 Symbolic Z-matrix:
 Charge =  0 Multiplicity = 1

                         Standard orientation:
 ---------------------------------------------------------------------
 Center     Atomic      Atomic             Coordinates (Angstroms)
 Number     Number       Type             X           Y           Z
 ---------------------------------------------------------------------
      1         12           0       -7.239887    0.609497    0.185002
      2          6           0       -4.848616   -1.920089    0.544665
      3          6           0       -4.770210    2.804905    1.124583
      4          6           0       -9.397994    3.069103   -0.397225
      5          6           0       -9.527146   -1.766442   -0.800385
      6          7           0       -5.173007    0.459571    0.695590
      7          6           0       -4.383935   -0.693998    0.792711
      8          6           0       -2.906953   -0.379795    1.143486
      9          6           0       -2.998987    1.077117    1.715220
     10          6           0       -4.363054    1.492091    1.300042
     11          6           0       -2.790003    1.230161    3.243797
     12          6           0       -1.909545   -0.469932    0.004179
     13          6           0       -0.434785   -0.403135    0.519689
     14          6           0        0.510523   -0.671001   -0.674091
     15          8           0        0.179243   -0.944508   -1.777711
     16          8           0        1.785180   -0.452202   -0.244512
     17          7           0       -7.098533    2.694088    0.278324
     18          6           0       -6.141415    3.354913    0.786905
     19          6           0       -6.410774    4.775688    0.604732
     20          6           0       -7.667586    4.859793    0.291699
     21          6           0       -8.167499    3.496702    0.102496
     22          6           0       -5.431215    5.899482    0.957775
     23          6           0       -8.619051    5.976347    0.207623
     24          6           0       -8.295305    7.216314    0.728078
     25          7           0       -9.189158    0.623419   -0.448986
     26          6           0       -9.886779    1.795050   -0.602131
     27          6           0      -11.204685    1.456793   -1.064530
     28          6           0      -11.243019    0.104976   -1.166557
     29          6           0      -10.020092   -0.412927   -0.773670
     30          6           0      -12.327101    2.500512   -1.354818
     31          6           0      -12.358319   -0.783403   -1.642983
     32          6           0      -12.266859   -1.251997   -3.107996
     33          7           0       -7.238993   -1.418362   -0.110726
     34          6           0       -8.258068   -2.304795   -0.440251
     35          6           0       -7.735540   -3.658518   -0.511630
     36          6           0       -6.417550   -3.537698   -0.047668
     37          6           0       -6.136309   -2.166881    0.127821
     38          6           0       -8.617638   -4.928177   -0.769822
     39          6           0       -5.254502   -4.331938    0.078802
     40          8           0       -5.081582   -5.540819    0.002923
     41          6           0       -4.117520   -3.213851    0.486619
     42          6           0       -3.549694   -3.698353    1.816009
     43          8           0       -3.765923   -3.144358    2.855768
     44          8           0       -2.675151   -4.703504    1.771655
     45          6           0       -2.102754   -5.237294    2.965979
     46          6           0        2.866630   -0.642425   -1.204226
     47          6           0        4.205037   -0.399477   -0.698568
     48          6           0        5.122362    0.497493   -1.095510
     49          6           0        5.078147    1.254806   -2.324779
     50          6           0        6.470696    0.563265   -0.324228
     51          6           0        7.612494   -0.104234   -1.053810
     52          6           0        8.848007   -0.169776   -0.146106
     53          6           0       10.141928   -0.638028   -0.854978
     54          6           0        9.995559   -2.096117   -1.256722
     55          6           0       11.402910   -0.433464    0.067381
     56          6           0       12.717606   -0.562782   -0.781621
     57          6           0       13.911511   -0.166547    0.153179
     58          6           0       15.250907   -0.347298   -0.404322
     59          6           0       15.690159   -1.765010   -0.585166
     60          6           0       16.359522    0.407667    0.451928
     61          6           0       17.807539    0.500513   -0.155508
     62          6           0       18.714714    1.335581    0.707350
     63          6           0       20.202396    1.359953    0.277466
     64          6           0       20.424846    2.086168   -1.115911
     65          6           0       21.112208    2.204986    1.269704
     66          1           0       -4.222906    3.703399    1.391718
     67          1           0      -10.076676    3.807738   -0.452892
     68          1           0      -10.085306   -2.635511   -1.012614
     69          1           0       -2.642932   -0.959213    2.000861
     70          1           0       -2.163305    1.689085    1.166548
     71          1           0       -1.777494    0.848983    3.431467
     72          1           0       -2.846482    2.233593    3.734003
     73          1           0       -3.394669    0.497902    3.719012
     74          1           0       -1.944346   -1.435071   -0.495175
     75          1           0       -2.206615    0.187203   -0.801951
     76          1           0        0.007945    0.657463    0.936942
     77          1           0       -0.075496   -1.014999    1.260714
     78          1           0       -5.837230    6.704412    0.373206
     79          1           0       -5.730119    6.313983    2.060436
     80          1           0       -4.372264    5.755302    0.734396
     81          1           0       -9.527349    5.969150   -0.445759
     82          1           0       -8.972986    8.042951    0.508496
     83          1           0       -7.471202    7.518911    1.474747
     84          1           0      -11.868050    3.039932   -2.281502
     85          1           0      -13.183156    1.839120   -1.891324
     86          1           0      -12.782671    3.223569   -0.518966
     87          1           0      -12.386363   -1.724114   -1.052197
     88          1           0      -13.168450   -0.223261   -1.548879
     89          1           0      -13.242818   -1.554548   -3.515935
     90          1           0      -12.246087   -0.297954   -3.563190
     91          1           0      -11.247686   -1.983207   -3.127667
     92          1           0       -8.853606   -5.022385   -1.774421
     93          1           0       -8.162283   -5.835906   -0.686745
     94          1           0       -9.560789   -5.035524   -0.139700
     95          1           0       -3.455058   -3.178396   -0.368334
     96          1           0       -1.681568   -4.396438    3.566155
     97          1           0       -2.800553   -5.631135    3.722849
     98          1           0       -1.312004   -5.902002    2.660286
     99          1           0        2.738411   -1.602626   -1.774026
    100          1           0        2.441574    0.111330   -2.045693
    101          1           0        4.278016   -1.023869    0.385358
    102          1           0        3.984503    1.503217   -2.651446
    103          1           0        5.551228    2.127747   -2.277505
    104          1           0        5.636591    0.539368   -3.146553
    105          1           0        6.798329    1.630824   -0.062443
    106          1           0        6.315184    0.067598    0.681961
    107          1           0        7.349473   -1.226638   -1.332563
    108          1           0        7.745351    0.564078   -2.029760
    109          1           0        8.909663    0.663926    0.323653
    110          1           0        8.586487   -0.735258    0.852050
    111          1           0       10.204989   -0.102254   -1.755817
    112          1           0        9.157031   -2.161174   -1.844049
    113          1           0       10.853878   -2.516814   -1.756508
    114          1           0        9.919942   -2.736853   -0.394222
    115          1           0       11.406458    0.495264    0.549518
    116          1           0       11.232929   -1.045479    1.080899
    117          1           0       12.868299   -1.631609   -0.944964
    118          1           0       12.696711    0.156002   -1.588802
    119          1           0       13.619408    0.811503    0.475781
    120          1           0       13.806518   -0.740818    1.094542
    121          1           0       15.355170    0.281126   -1.411446
    122          1           0       15.227837   -2.345980    0.313135
    123          1           0       15.163110   -2.254103   -1.409602
    124          1           0       16.771067   -1.911213   -1.107465
    125          1           0       16.064053    1.391149    0.846477
    126          1           0       16.568794   -0.079795    1.439095
    127          1           0       18.162116   -0.601058   -0.302765
    128          1           0       17.754769    1.107989   -1.062151
    129          1           0       18.493735    2.508914    0.664200
    130          1           0       18.708512    1.068309    1.844710
    131          1           0       20.604776    0.429160    0.279390
    132          1           0       19.960687    3.066088   -1.251445
    133          1           0       21.415125    2.158445   -1.466769
    134          1           0       19.912276    1.226815   -1.815520
    135          1           0       21.124018    1.731789    2.329694
    136          1           0       22.111553    2.187981    0.972234
    137          1           0       20.723148    3.152053    1.561608
 ---------------------------------------------------------------------

 SCF Done:  E(RCAM-B3LYP) =  -2932.72715671     A.U. after   16 cycles

 Excitation energies and oscillator strengths:

 Excited State   1:      Singlet-A      2.0759 eV  597.26 nm  f=0.2629  <S**2>=0.000
     240 -> 243       -0.24345
     241 -> 242        0.65130
 This state for optimization and/or second-order correction.
 Total Energy, E(TD-HF/TD-KS) =  -2932.65086900
 Copying the excited state density for this state as the 1-particle RhoCI density.

 The electronic state is 1-A.
 Alpha  occ. eigenvalues --  -46.84502 -19.25590 -19.25327 -19.21369 -19.20309
 Alpha  occ. eigenvalues --  -19.19551 -14.41095 -14.39372 -14.38982 -14.38843
 Alpha  occ. eigenvalues --  -10.38909 -10.38439 -10.34699 -10.32522 -10.30978
 Alpha  occ. eigenvalues --  -10.30657 -10.29864 -10.29797 -10.29427 -10.29218
 Alpha  occ. eigenvalues --  -10.29139 -10.28784 -10.28577 -10.28439 -10.28263
 Alpha  occ. eigenvalues --  -10.28256 -10.28253 -10.28250 -10.28038 -10.27919
 Alpha  occ. eigenvalues --  -10.27836 -10.27456 -10.27407 -10.27329 -10.27143
 Alpha  occ. eigenvalues --  -10.26997 -10.26870 -10.26794 -10.26732 -10.26666
 Alpha  occ. eigenvalues --  -10.26596 -10.26349 -10.26322 -10.26200 -10.26194
 Alpha  occ. eigenvalues --  -10.26183 -10.25888 -10.25661 -10.25660 -10.25660
 Alpha  occ. eigenvalues --  -10.25646 -10.25631 -10.25587 -10.25518 -10.25475
 Alpha  occ. eigenvalues --  -10.25046 -10.25005 -10.24914 -10.24911 -10.24850
 Alpha  occ. eigenvalues --  -10.24634 -10.24526 -10.24429 -10.23753 -10.22864
 Alpha  occ. eigenvalues --   -3.13411  -1.88133  -1.87651  -1.87571  -1.18192
 Alpha  occ. eigenvalues --   -1.17959  -1.10288  -1.10144  -1.08543  -1.06810
 Alpha  occ. eigenvalues --   -1.03805  -1.03062  -1.00858  -0.92792  -0.91724
 Alpha  occ. eigenvalues --   -0.90554  -0.89878  -0.89499  -0.89217  -0.89175
 Alpha  occ. eigenvalues --   -0.88034  -0.87945  -0.87168  -0.86135  -0.85661
 Alpha  occ. eigenvalues --   -0.84821  -0.83742  -0.83183  -0.82895  -0.82512
 Alpha  occ. eigenvalues --   -0.81734  -0.81073  -0.80601  -0.80454  -0.78705
 Alpha  occ. eigenvalues --   -0.77911  -0.77126  -0.76349  -0.76219  -0.75128
 Alpha  occ. eigenvalues --   -0.75003  -0.74724  -0.74035  -0.73602  -0.72867
 Alpha  occ. eigenvalues --   -0.71789  -0.70549  -0.69399  -0.68915  -0.68391
 Alpha  occ. eigenvalues --   -0.67393  -0.66137  -0.65140  -0.65090  -0.64897
 Alpha  occ. eigenvalues --   -0.64637  -0.64210  -0.62611  -0.62531  -0.62160
 Alpha  occ. eigenvalues --   -0.61971  -0.60498  -0.60258  -0.59837  -0.59206
 Alpha  occ. eigenvalues --   -0.58813  -0.58412  -0.58009  -0.57487  -0.56225
 Alpha  occ. eigenvalues --   -0.55730  -0.55505  -0.55208  -0.54894  -0.54464
 Alpha  occ. eigenvalues --   -0.54342  -0.53739  -0.53304  -0.53218  -0.52788
 Alpha  occ. eigenvalues --   -0.52556  -0.52374  -0.52237  -0.52168  -0.51644
 Alpha  occ. eigenvalues --   -0.51413  -0.51231  -0.50755  -0.50709  -0.50343
 Alpha  occ. eigenvalues --   -0.49925  -0.49791  -0.49639  -0.49380  -0.49234
 Alpha  occ. eigenvalues --   -0.48967  -0.48889  -0.48442  -0.48319  -0.48275
 Alpha  occ. eigenvalues --   -0.48183  -0.47954  -0.47733  -0.47605  -0.47338
 Alpha  occ. eigenvalues --   -0.46803  -0.46619  -0.46539  -0.46358  -0.46016
 Alpha  occ. eigenvalues --   -0.45561  -0.45456  -0.45247  -0.45036  -0.44900
 Alpha  occ. eigenvalues --   -0.44798  -0.44696  -0.44592  -0.44473  -0.43961
 Alpha  occ. eigenvalues --   -0.43722  -0.43637  -0.43557  -0.43296  -0.43236
 Alpha  occ. eigenvalues --   -0.42927  -0.42800  -0.42534  -0.42400  -0.42164
 Alpha  occ. eigenvalues --   -0.41876  -0.41710  -0.41527  -0.41262  -0.40966
 Alpha  occ. eigenvalues --   -0.40751  -0.40645  -0.40458  -0.40441  -0.40352
 Alpha  occ. eigenvalues --   -0.40227  -0.39797  -0.39727  -0.39486  -0.39123
 Alpha  occ. eigenvalues --   -0.38745  -0.38719  -0.38429  -0.38161  -0.38008
 Alpha  occ. eigenvalues --   -0.37994  -0.37681  -0.37255  -0.37149  -0.36845
 Alpha  occ. eigenvalues --   -0.36474  -0.36069  -0.35930  -0.35454  -0.35411
 Alpha  occ. eigenvalues --   -0.35023  -0.34923  -0.34027  -0.33716  -0.33218
 Alpha  occ. eigenvalues --   -0.33113  -0.32890  -0.32119  -0.30896  -0.29782
 Alpha  occ. eigenvalues --   -0.29519  -0.29492  -0.28413  -0.28122  -0.22871
 Alpha  occ. eigenvalues --   -0.21630
 Alpha virt. eigenvalues --   -0.06708  -0.02870   0.01830   0.03598   0.05147
 Alpha virt. eigenvalues --    0.05829   0.06316   0.07295   0.07360   0.07796
 Alpha virt. eigenvalues --    0.08926   0.10491   0.11427   0.11633   0.11939

 Mulliken charges:
               1
     1  Mg   0.820258
     2  C    0.111879
     3  C   -0.185550
     4  C   -0.140896
     5  C   -0.150225
     6  N   -0.627896
     7  C    0.282682
     8  C   -0.146080
     9  C   -0.156735
    10  C    0.322054
    11  C   -0.318879
    12  C   -0.177690
    13  C   -0.264956
    14  C    0.607034
    15  O   -0.454803
    16  O   -0.496860
    17  N   -0.631240
    18  C    0.264764
    19  C   -0.021736
    20  C    0.061415
    21  C    0.261739
    22  C   -0.373492
    23  C   -0.096993
    24  C   -0.248329
    25  N   -0.709741
    26  C    0.307595
    27  C    0.004035
    28  C    0.033330
    29  C    0.295624
    30  C   -0.363525
    31  C   -0.235862
    32  C   -0.293283
    33  N   -0.733870
    34  C    0.228872
    35  C    0.026182
    36  C    0.024054
    37  C    0.315546
    38  C   -0.378672
    39  C    0.330445
    40  O   -0.461858
    41  C   -0.372856
    42  C    0.631585
    43  O   -0.469728
    44  O   -0.449636
    45  C   -0.082738
    46  C    0.014477
    47  C   -0.120976
    48  C    0.123198
    49  C   -0.351894
    50  C   -0.231059
    51  C   -0.163529
    52  C   -0.161657
    53  C   -0.060292
    54  C   -0.306336
    55  C   -0.188795
    56  C   -0.176760
    57  C   -0.193823
    58  C   -0.029721
    59  C   -0.315913
    60  C   -0.183370
    61  C   -0.170478
    62  C   -0.161046
    63  C   -0.056002
    64  C   -0.308102
    65  C   -0.318761
    66  H    0.068159
    67  H    0.074661
    68  H    0.087315
    69  H    0.127124
    70  H    0.104533
    71  H    0.103289
    72  H    0.116318
    73  H    0.133627
    74  H    0.128087
    75  H    0.131047
    76  H    0.115505
    77  H    0.149982
    78  H    0.132913
    79  H    0.106282
    80  H    0.123447
    81  H    0.108522
    82  H    0.098082
    83  H    0.106828
    84  H    0.120308
    85  H    0.093463
    86  H    0.122154
    87  H    0.101189
    88  H    0.098579
    89  H    0.106146
    90  H    0.110431
    91  H    0.092205
    92  H    0.132079
    93  H    0.149936
    94  H    0.122492
    95  H    0.162462
    96  H    0.116008
    97  H    0.131804
    98  H    0.129882
    99  H    0.128787
   100  H    0.095669
   101  H    0.077655
   102  H    0.108721
   103  H    0.128050
   104  H    0.113216
   105  H    0.092124
   106  H    0.096534
   107  H    0.094623
   108  H    0.079245
   109  H    0.095987
   110  H    0.067286
   111  H    0.090121
   112  H    0.104988
   113  H    0.098285
   114  H    0.099766
   115  H    0.092032
   116  H    0.070556
   117  H    0.107347
   118  H    0.106371
   119  H    0.095794
   120  H    0.086339
   121  H    0.062280
   122  H    0.100047
   123  H    0.104823
   124  H    0.100499
   125  H    0.085685
   126  H    0.078635
   127  H    0.087696
   128  H    0.103805
   129  H    0.072917
   130  H    0.077218
   131  H    0.098538
   132  H    0.105413
   133  H    0.109754
   134  H    0.071088
   135  H    0.069221
   136  H    0.108046
   137  H    0.105856
 Sum of Mulliken charges =   0.00000

 Dipole moment (field-independent basis, Debye):
    X=              1.5858    Y=              4.8197    Z=              0.4196  Tot=              5.0911
 Quadrupole moment (field-independent basis, Debye-Ang):
   XX=           -346.5302   YY=           -388.2596   ZZ=           -397.8639
   XY=            -23.1085   XZ=              4.3917   YZ=             -1.6310

 Normal termination of Gaussian 09 at Sat Jul  6 09:44:27 2019.
