 Gaussian 16, Revision A.03,
 Gaussian 16:  ES64L-G16RevA.03 25-Dec-2016

 ----------------------------------------------------------------------
 # td=(NStates=1) iop(3/107=0140000000,3/108=0140000000) CAM-B3LYP/6-31
 G(d,p)
 ----------------------------------------------------------------------

 --
 TD
 --
 Symbolic Z-matrix:
 Charge =  0 Multiplicity = 1

                         Standard orientation:
 ---------------------------------------------------------------------
 Center     Atomic      Atomic             Coordinates (Angstroms)
 Number     Number       Type             X           Y           Z
 ---------------------------------------------------------------------
      1         12           0       -7.155749    0.643290    0.083499
      2          6           0       -4.741929   -1.917207    0.376953
      3          6           0       -4.667399    2.869884    1.035312
      4          6           0       -9.420670    3.113675   -0.379235
      5          6           0       -9.524399   -1.727547   -0.837519
      6          7           0       -5.083148    0.523393    0.681986
      7          6           0       -4.320699   -0.669553    0.761494
      8          6           0       -2.919523   -0.417289    1.246705
      9          6           0       -2.989777    1.119998    1.677528
     10          6           0       -4.304423    1.553616    1.056045
     11          6           0       -2.966895    1.101647    3.270951
     12          6           0       -1.940615   -0.684021    0.098339
     13          6           0       -0.538532   -0.516473    0.520064
     14          6           0        0.443213   -0.778774   -0.605401
     15          8           0        0.131919   -1.180674   -1.684920
     16          8           0        1.706379   -0.473340   -0.128893
     17          7           0       -7.040336    2.694282    0.236768
     18          6           0       -5.976682    3.402754    0.708525
     19          6           0       -6.363312    4.813614    0.652153
     20          6           0       -7.676532    4.830753    0.336716
     21          6           0       -8.173512    3.501181   -0.001030
     22          6           0       -5.550081    5.970013    1.046070
     23          6           0       -8.477373    6.024325    0.122737
     24          6           0       -8.471083    7.172558    0.751486
     25          7           0       -9.122913    0.669027   -0.565414
     26          6           0       -9.844478    1.814888   -0.599422
     27          6           0      -11.193988    1.465021   -1.071452
     28          6           0      -11.262357    0.107539   -1.143375
     29          6           0       -9.952914   -0.398722   -0.859153
     30          6           0      -12.265771    2.497106   -1.315450
     31          6           0      -12.355674   -0.919008   -1.549530
     32          6           0      -12.223268   -1.262753   -3.169871
     33          7           0       -7.201738   -1.363090   -0.132558
     34          6           0       -8.204986   -2.238550   -0.489588
     35          6           0       -7.806670   -3.663968   -0.399080
     36          6           0       -6.484642   -3.530823   -0.018279
     37          6           0       -6.100654   -2.153251    0.002436
     38          6           0       -8.583607   -4.776077   -0.757388
     39          6           0       -5.360042   -4.311886    0.190570
     40          8           0       -5.194149   -5.559526    0.186729
     41          6           0       -4.084970   -3.273742    0.487922
     42          6           0       -3.436402   -3.651710    1.828420
     43          8           0       -3.678859   -3.124738    2.938008
     44          8           0       -2.554349   -4.688943    1.666473
     45          6           0       -1.876844   -5.169826    2.876161
     46          6           0        2.802464   -0.667348   -1.167247
     47          6           0        4.146981   -0.427292   -0.413294
     48          6           0        5.135742    0.370236   -0.999251
     49          6           0        4.961805    1.179710   -2.238493
     50          6           0        6.410718    0.509958   -0.329627
     51          6           0        7.602883   -0.086760   -0.933644
     52          6           0        8.881210   -0.123473   -0.058298
     53          6           0       10.119182   -0.584126   -0.839265
     54          6           0        9.967851   -2.028001   -1.421505
     55          6           0       11.356442   -0.367866    0.040893
     56          6           0       12.778092   -0.536262   -0.695317
     57          6           0       13.885785   -0.133474    0.355399
     58          6           0       15.299411   -0.329943   -0.422358
     59          6           0       15.603335   -1.771864   -0.841390
     60          6           0       16.342011    0.291928    0.485968
     61          6           0       17.773368    0.468112   -0.179337
     62          6           0       18.681340    1.298930    0.682869
     63          6           0       20.246914    1.467781    0.177211
     64          6           0       20.254512    2.184332   -1.133018
     65          6           0       21.051444    2.179240    1.221603
     66          1           0       -3.902618    3.551003    1.510911
     67          1           0      -10.153705    3.956326   -0.381562
     68          1           0      -10.173536   -2.493682   -1.136375
     69          1           0       -2.842879   -1.018593    2.105548
     70          1           0       -2.173260    1.766818    1.278737
     71          1           0       -1.998443    0.714519    3.691801
     72          1           0       -3.240392    2.126623    3.560127
     73          1           0       -3.721815    0.499544    3.606618
     74          1           0       -2.153348   -1.696067   -0.131363
     75          1           0       -2.119558   -0.042536   -0.726780
     76          1           0       -0.375343    0.441483    0.811706
     77          1           0       -0.314912   -1.065624    1.263279
     78          1           0       -5.611178    6.922337    0.516601
     79          1           0       -5.813675    6.098505    2.062683
     80          1           0       -4.478348    5.643438    0.926621
     81          1           0       -9.316566    5.790150   -0.492620
     82          1           0       -9.211403    8.013682    0.331137
     83          1           0       -7.569769    7.339334    1.299518
     84          1           0      -12.043819    3.266590   -1.969923
     85          1           0      -13.134955    1.937075   -1.744421
     86          1           0      -12.443426    2.967972   -0.368522
     87          1           0      -12.402678   -1.674245   -0.886438
     88          1           0      -13.354920   -0.337685   -1.322127
     89          1           0      -12.959481   -1.960826   -3.510789
     90          1           0      -12.297981   -0.286694   -3.762544
     91          1           0      -11.160422   -1.631947   -3.408095
     92          1           0       -9.033032   -4.857701   -1.859801
     93          1           0       -7.990313   -5.586380   -0.657171
     94          1           0       -9.478314   -4.866209   -0.277418
     95          1           0       -3.431067   -3.616265   -0.237315
     96          1           0       -0.845870   -4.556600    2.905844
     97          1           0       -2.686177   -5.302855    3.600157
     98          1           0       -1.578373   -6.192031    2.334205
     99          1           0        2.761794   -1.827570   -1.424036
    100          1           0        2.709812    0.046703   -1.878689
    101          1           0        4.189185   -1.102261    0.358410
    102          1           0        3.909455    1.289369   -2.652590
    103          1           0        5.194347    2.288728   -1.941309
    104          1           0        5.791400    1.052027   -2.955110
    105          1           0        6.610664    1.526534    0.040874
    106          1           0        6.305313    0.085309    0.730594
    107          1           0        7.348068   -1.038810   -1.446761
    108          1           0        8.009522    0.553330   -1.837426
    109          1           0        8.934157    0.770992    0.411368
    110          1           0        8.713654   -0.802806    0.721777
    111          1           0       10.162049   -0.008037   -1.748975
    112          1           0        9.318878   -2.303312   -2.239128
    113          1           0       11.066811   -2.692838   -1.617645
    114          1           0        9.629285   -2.658291   -0.623347
    115          1           0       11.361731    0.658026    0.446164
    116          1           0       11.376849   -0.642197    1.122372
    117          1           0       12.989414   -1.465382   -0.999058
    118          1           0       12.714252    0.162595   -1.533616
    119          1           0       13.811746    0.913220    0.482133
    120          1           0       13.942299   -0.889193    1.121350
    121          1           0       15.159540    0.483582   -1.239967
    122          1           0       15.506828   -2.416595   -0.023057
    123          1           0       14.803821   -2.083284   -1.531861
    124          1           0       16.659697   -2.037914   -1.226630
    125          1           0       15.914718    1.303763    0.669122
    126          1           0       16.285182   -0.236276    1.473615
    127          1           0       18.172802   -0.411135   -0.524284
    128          1           0       17.438732    0.959169   -1.139076
    129          1           0       18.443477    2.319849    0.773531
    130          1           0       18.847752    0.951508    1.786713
    131          1           0       20.809399    0.497266    0.157763
    132          1           0       19.828365    3.240019   -0.901591
    133          1           0       21.280296    2.457126   -1.538120
    134          1           0       19.795068    1.818609   -1.970472
    135          1           0       20.980988    1.674224    2.221395
    136          1           0       22.134562    2.163302    1.009086
    137          1           0       20.714081    3.236912    1.311335
 ---------------------------------------------------------------------

 SCF Done:  E(RCAM-B3LYP) =  -2933.61717837     A.U. after   16 cycles

 Excitation energies and oscillator strengths:

 Excited State   1:      Singlet-A      2.0367 eV  608.75 nm  f=0.2907  <S**2>=0.000
     240 -> 243        0.22203
     241 -> 242        0.66736
 This state for optimization and/or second-order correction.
 Total Energy, E(TD-HF/TD-DFT) =  -2933.54233061
 Copying the excited state density for this state as the 1-particle RhoCI density.

 The electronic state is 1-A.
 Alpha  occ. eigenvalues --  -46.79924 -19.21289 -19.20947 -19.16598 -19.15930
 Alpha  occ. eigenvalues --  -19.15308 -14.37342 -14.35643 -14.35292 -14.35080
 Alpha  occ. eigenvalues --  -10.34278 -10.33471 -10.29685 -10.28621 -10.27423
 Alpha  occ. eigenvalues --  -10.26345 -10.25834 -10.25715 -10.25148 -10.25082
 Alpha  occ. eigenvalues --  -10.24701 -10.24665 -10.24218 -10.23956 -10.23779
 Alpha  occ. eigenvalues --  -10.23493 -10.23250 -10.23187 -10.23178 -10.23155
 Alpha  occ. eigenvalues --  -10.23093 -10.22694 -10.22555 -10.22446 -10.22060
 Alpha  occ. eigenvalues --  -10.22035 -10.22009 -10.21873 -10.21869 -10.21793
 Alpha  occ. eigenvalues --  -10.21637 -10.21618 -10.21614 -10.21584 -10.21533
 Alpha  occ. eigenvalues --  -10.21496 -10.21485 -10.21439 -10.21339 -10.21189
 Alpha  occ. eigenvalues --  -10.21047 -10.21033 -10.21013 -10.20769 -10.20615
 Alpha  occ. eigenvalues --  -10.20604 -10.20592 -10.20561 -10.20489 -10.20266
 Alpha  occ. eigenvalues --  -10.20175 -10.20098 -10.19978 -10.19872 -10.19431
 Alpha  occ. eigenvalues --   -3.08444  -1.83401  -1.82926  -1.82826  -1.11005
 Alpha  occ. eigenvalues --   -1.10657  -1.03761  -1.03006  -1.01886  -0.98933
 Alpha  occ. eigenvalues --   -0.98059  -0.97887  -0.96964  -0.87123  -0.86894
 Alpha  occ. eigenvalues --   -0.85370  -0.84830  -0.84513  -0.84309  -0.84006
 Alpha  occ. eigenvalues --   -0.83866  -0.82907  -0.82395  -0.81944  -0.80764
 Alpha  occ. eigenvalues --   -0.80064  -0.79582  -0.78559  -0.78135  -0.77787
 Alpha  occ. eigenvalues --   -0.76428  -0.76249  -0.75943  -0.75088  -0.74027
 Alpha  occ. eigenvalues --   -0.73271  -0.72370  -0.71820  -0.71107  -0.71055
 Alpha  occ. eigenvalues --   -0.70940  -0.70732  -0.69763  -0.68796  -0.67984
 Alpha  occ. eigenvalues --   -0.67330  -0.66340  -0.65825  -0.64740  -0.64212
 Alpha  occ. eigenvalues --   -0.62494  -0.62331  -0.61351  -0.61230  -0.60912
 Alpha  occ. eigenvalues --   -0.60658  -0.59579  -0.58359  -0.58308  -0.57273
 Alpha  occ. eigenvalues --   -0.57079  -0.56903  -0.56245  -0.55514  -0.55442
 Alpha  occ. eigenvalues --   -0.54693  -0.54124  -0.53780  -0.53106  -0.52751
 Alpha  occ. eigenvalues --   -0.52438  -0.51824  -0.51624  -0.51435  -0.51070
 Alpha  occ. eigenvalues --   -0.50670  -0.50507  -0.49749  -0.49629  -0.48955
 Alpha  occ. eigenvalues --   -0.48649  -0.48414  -0.48075  -0.47873  -0.47706
 Alpha  occ. eigenvalues --   -0.47547  -0.47384  -0.47082  -0.46871  -0.46717
 Alpha  occ. eigenvalues --   -0.46452  -0.46189  -0.46146  -0.45903  -0.45531
 Alpha  occ. eigenvalues --   -0.45486  -0.45231  -0.45223  -0.45027  -0.44675
 Alpha  occ. eigenvalues --   -0.44423  -0.44120  -0.43992  -0.43760  -0.43587
 Alpha  occ. eigenvalues --   -0.43417  -0.43312  -0.42915  -0.42703  -0.42575
 Alpha  occ. eigenvalues --   -0.42458  -0.42387  -0.42167  -0.42034  -0.41819
 Alpha  occ. eigenvalues --   -0.41651  -0.41538  -0.41517  -0.41365  -0.40925
 Alpha  occ. eigenvalues --   -0.40546  -0.40488  -0.40360  -0.40120  -0.39877
 Alpha  occ. eigenvalues --   -0.39757  -0.39748  -0.39506  -0.39325  -0.39221
 Alpha  occ. eigenvalues --   -0.39200  -0.38924  -0.38475  -0.38405  -0.38192
 Alpha  occ. eigenvalues --   -0.37942  -0.37784  -0.37554  -0.37333  -0.37175
 Alpha  occ. eigenvalues --   -0.37045  -0.36957  -0.36636  -0.36565  -0.36383
 Alpha  occ. eigenvalues --   -0.35702  -0.35636  -0.35574  -0.35373  -0.34647
 Alpha  occ. eigenvalues --   -0.34514  -0.34238  -0.33685  -0.33622  -0.33320
 Alpha  occ. eigenvalues --   -0.33175  -0.32832  -0.32780  -0.32686  -0.32357
 Alpha  occ. eigenvalues --   -0.32138  -0.31914  -0.31673  -0.30164  -0.29870
 Alpha  occ. eigenvalues --   -0.29759  -0.29155  -0.29078  -0.28581  -0.27087
 Alpha  occ. eigenvalues --   -0.26536  -0.26008  -0.25945  -0.25018  -0.21939
 Alpha  occ. eigenvalues --   -0.20167
 Alpha virt. eigenvalues --   -0.07354  -0.03713  -0.00270   0.02669   0.02910
 Alpha virt. eigenvalues --    0.03611   0.04937   0.05398   0.05644   0.05834
 Alpha virt. eigenvalues --    0.06507   0.09290   0.09605   0.09681   0.10294

 Mulliken charges:
               1
     1  Mg   0.805458
     2  C    0.096937
     3  C   -0.208678
     4  C   -0.158009
     5  C   -0.173208
     6  N   -0.633069
     7  C    0.279296
     8  C   -0.172299
     9  C   -0.163557
    10  C    0.375823
    11  C   -0.311170
    12  C   -0.156577
    13  C   -0.242897
    14  C    0.596693
    15  O   -0.455211
    16  O   -0.506905
    17  N   -0.740926
    18  C    0.328551
    19  C    0.018181
    20  C   -0.004462
    21  C    0.329019
    22  C   -0.392287
    23  C   -0.052856
    24  C   -0.249183
    25  N   -0.711452
    26  C    0.331159
    27  C   -0.009770
    28  C    0.022070
    29  C    0.317618
    30  C   -0.376420
    31  C   -0.232510
    32  C   -0.315813
    33  N   -0.708948
    34  C    0.235777
    35  C    0.103711
    36  C    0.053664
    37  C    0.269984
    38  C   -0.399571
    39  C    0.290805
    40  O   -0.494583
    41  C   -0.311923
    42  C    0.617171
    43  O   -0.505269
    44  O   -0.458644
    45  C   -0.085663
    46  C    0.021006
    47  C   -0.126706
    48  C    0.139131
    49  C   -0.378134
    50  C   -0.236999
    51  C   -0.171991
    52  C   -0.173551
    53  C   -0.041582
    54  C   -0.319405
    55  C   -0.196004
    56  C   -0.174394
    57  C   -0.188046
    58  C   -0.070846
    59  C   -0.322487
    60  C   -0.164885
    61  C   -0.173763
    62  C   -0.156218
    63  C   -0.066600
    64  C   -0.294529
    65  C   -0.308569
    66  H    0.079360
    67  H    0.095095
    68  H    0.077800
    69  H    0.131650
    70  H    0.094579
    71  H    0.113060
    72  H    0.098891
    73  H    0.139960
    74  H    0.116495
    75  H    0.114653
    76  H    0.130117
    77  H    0.131122
    78  H    0.130630
    79  H    0.142985
    80  H    0.105159
    81  H    0.070590
    82  H    0.093787
    83  H    0.088739
    84  H    0.128392
    85  H    0.108167
    86  H    0.127552
    87  H    0.120388
    88  H    0.083068
    89  H    0.116321
    90  H    0.110425
    91  H    0.109829
    92  H    0.110651
    93  H    0.152993
    94  H    0.138101
    95  H    0.158974
    96  H    0.125281
    97  H    0.160627
    98  H    0.126322
    99  H    0.120610
   100  H    0.114616
   101  H    0.097024
   102  H    0.118625
   103  H    0.105256
   104  H    0.134448
   105  H    0.101557
   106  H    0.091068
   107  H    0.097500
   108  H    0.066454
   109  H    0.099467
   110  H    0.100482
   111  H    0.091435
   112  H    0.114855
   113  H    0.057467
   114  H    0.109836
   115  H    0.081417
   116  H    0.083350
   117  H    0.105656
   118  H    0.093386
   119  H    0.102758
   120  H    0.102313
   121  H    0.065853
   122  H    0.111682
   123  H    0.106726
   124  H    0.097613
   125  H    0.079530
   126  H    0.075490
   127  H    0.103608
   128  H    0.087973
   129  H    0.097635
   130  H    0.074504
   131  H    0.077334
   132  H    0.079267
   133  H    0.085675
   134  H    0.114263
   135  H    0.094377
   136  H    0.100719
   137  H    0.090920
 Sum of Mulliken charges =  -0.00000

 Dipole moment (field-independent basis, Debye):
    X=              1.5012    Y=              4.0575    Z=              0.1343  Tot=              4.3284
 Quadrupole moment (field-independent basis, Debye-Ang):
   XX=           -340.8692   YY=           -395.2357   ZZ=           -398.3605
   XY=            -18.7852   XZ=             12.6534   YZ=             -2.1446

 Normal termination of Gaussian 16 at Fri Sep 13 18:40:26 2019.
