 Gaussian 09, Revision D.01,
 Gaussian 09:  ES64L-G09RevD.01 24-Apr-2013

 -------------------------------------
 # td=(NStates=1) CAM-B3LYP/6-31G(d,p)
 -------------------------------------

 --
 TD
 --
 Symbolic Z-matrix:
 Charge =  0 Multiplicity = 1

                         Standard orientation:
 ---------------------------------------------------------------------
 Center     Atomic      Atomic             Coordinates (Angstroms)
 Number     Number       Type             X           Y           Z
 ---------------------------------------------------------------------
      1         12           0       -7.137852    0.698284    0.037377
      2          6           0       -4.939124   -1.964454    0.452328
      3          6           0       -4.875568    2.778950    1.188802
      4          6           0       -9.460884    3.045274   -0.461159
      5          6           0       -9.498260   -1.850366   -0.949173
      6          7           0       -5.157493    0.383460    0.723497
      7          6           0       -4.382331   -0.702906    0.715633
      8          6           0       -2.908928   -0.344639    1.200684
      9          6           0       -3.141418    1.091830    1.653195
     10          6           0       -4.476771    1.509158    1.050691
     11          6           0       -2.912090    1.170280    3.221877
     12          6           0       -1.876332   -0.556507    0.154390
     13          6           0       -0.490572   -0.384222    0.563891
     14          6           0        0.607151   -0.559235   -0.543029
     15          8           0        0.242511   -0.813010   -1.702635
     16          8           0        1.847207   -0.365332   -0.171812
     17          7           0       -7.116014    2.697751    0.348018
     18          6           0       -6.119948    3.390073    0.790502
     19          6           0       -6.391126    4.755829    0.786309
     20          6           0       -7.787176    4.841828    0.189643
     21          6           0       -8.146946    3.477389   -0.028921
     22          6           0       -5.608441    5.930276    1.278431
     23          6           0       -8.632067    5.931121    0.026331
     24          6           0       -8.732581    7.152122    0.724129
     25          7           0       -9.134606    0.686541   -0.479934
     26          6           0       -9.898049    1.764399   -0.748150
     27          6           0      -11.209130    1.358411   -1.152100
     28          6           0      -11.179469    0.034762   -1.231592
     29          6           0       -9.819536   -0.502980   -0.844049
     30          6           0      -12.380222    2.287049   -1.403986
     31          6           0      -12.455177   -0.846187   -1.650662
     32          6           0      -12.305594   -1.395948   -3.145736
     33          7           0       -7.234184   -1.376431   -0.268490
     34          6           0       -8.262773   -2.229745   -0.561026
     35          6           0       -7.767851   -3.609765   -0.621508
     36          6           0       -6.426601   -3.557631   -0.221246
     37          6           0       -6.190196   -2.162389    0.128798
     38          6           0       -8.680828   -4.785532   -0.826253
     39          6           0       -5.341495   -4.359202    0.226410
     40          8           0       -5.215272   -5.533406    0.129609
     41          6           0       -4.274011   -3.304502    0.587652
     42          6           0       -3.614204   -3.641750    1.937974
     43          8           0       -3.818944   -3.009243    3.029976
     44          8           0       -2.814362   -4.750463    1.925471
     45          6           0       -2.181953   -5.023652    3.164787
     46          6           0        2.903230   -0.581918   -1.195410
     47          6           0        4.223213   -0.419951   -0.553157
     48          6           0        5.202684    0.436628   -0.964093
     49          6           0        5.147495    1.358739   -2.119250
     50          6           0        6.548676    0.447788   -0.223899
     51          6           0        7.611246   -0.057047   -1.057434
     52          6           0        8.958622   -0.188212   -0.237137
     53          6           0       10.227240   -0.792722   -0.957129
     54          6           0       10.181210   -2.193178   -1.191613
     55          6           0       11.486284   -0.310267   -0.055830
     56          6           0       12.873973   -0.574733   -0.681570
     57          6           0       13.988936   -0.140123    0.112096
     58          6           0       15.362138   -0.025550   -0.554507
     59          6           0       15.799351   -1.532056   -1.007569
     60          6           0       16.407374    0.445392    0.472271
     61          6           0       17.829075    0.539331   -0.106149
     62          6           0       18.913954    1.301325    0.857773
     63          6           0       20.262734    1.329841    0.290409
     64          6           0       20.284224    1.933749   -1.078262
     65          6           0       21.321569    1.900989    1.288497
     66          1           0       -4.223721    3.572551    1.592448
     67          1           0      -10.076706    3.950267   -0.759399
     68          1           0      -10.311304   -2.603786   -1.165921
     69          1           0       -2.833180   -1.067359    1.986746
     70          1           0       -2.291645    1.651102    1.333168
     71          1           0       -1.854970    1.122417    3.402646
     72          1           0       -3.107075    2.328334    3.494419
     73          1           0       -3.753567    0.770678    3.815463
     74          1           0       -2.038920   -1.704903   -0.026418
     75          1           0       -2.017340    0.137640   -0.796436
     76          1           0       -0.176572    0.429157    0.861588
     77          1           0       -0.106386   -1.102781    1.298165
     78          1           0       -5.755633    6.752982    0.846942
     79          1           0       -5.605198    6.125789    2.241936
     80          1           0       -4.480729    5.710402    1.148076
     81          1           0       -9.465658    6.024283   -0.719226
     82          1           0       -9.557801    7.833522    0.316374
     83          1           0       -8.109272    7.657386    1.585356
     84          1           0      -11.972122    3.104468   -2.104408
     85          1           0      -13.303402    1.745297   -1.691741
     86          1           0      -12.507506    2.703754   -0.395804
     87          1           0      -12.514706   -1.668549   -0.976536
     88          1           0      -13.226776   -0.099933   -1.734488
     89          1           0      -13.214171   -2.035309   -3.349002
     90          1           0      -12.244542   -0.418994   -3.838056
     91          1           0      -11.257448   -1.980304   -3.384365
     92          1           0       -8.934482   -5.055185   -1.960198
     93          1           0       -8.195156   -5.633021   -0.437396
     94          1           0       -9.704795   -4.662190   -0.359731
     95          1           0       -3.402658   -3.423596   -0.191698
     96          1           0       -1.845594   -4.195469    3.599903
     97          1           0       -2.970322   -5.294160    3.828245
     98          1           0       -1.240347   -5.751921    3.071316
     99          1           0        2.675693   -1.613091   -1.718116
    100          1           0        2.551877    0.069460   -1.912425
    101          1           0        4.528197   -1.148474    0.077794
    102          1           0        4.186472    1.401494   -2.700166
    103          1           0        5.565460    2.374969   -1.661747
    104          1           0        5.872936    0.975505   -2.699736
    105          1           0        6.587329    1.632519    0.171649
    106          1           0        6.382843   -0.191364    0.749800
    107          1           0        7.512639   -1.119969   -1.314027
    108          1           0        7.654038    0.557053   -2.053755
    109          1           0        9.117071    0.763770    0.157432
    110          1           0        8.849969   -0.948787    0.731687
    111          1           0       10.166879   -0.111918   -1.834749
    112          1           0        9.127206   -2.587675   -1.610586
    113          1           0       10.947444   -2.362756   -1.993847
    114          1           0       10.480940   -2.804182   -0.269903
    115          1           0       11.283858    0.831196    0.185176
    116          1           0       11.358278   -0.825124    1.024500
    117          1           0       13.191208   -1.525963   -0.768102
    118          1           0       12.867427   -0.115036   -1.602304
    119          1           0       13.619809    0.891915    0.591607
    120          1           0       14.313306   -0.707423    0.898115
    121          1           0       15.433360    0.692299   -1.541414
    122          1           0       15.661417   -2.112707   -0.111388
    123          1           0       15.067452   -1.750092   -1.596790
    124          1           0       16.835861   -1.469112   -1.530323
    125          1           0       15.857663    1.449535    0.675500
    126          1           0       16.403718   -0.274596    1.261113
    127          1           0       18.141837   -0.467868   -0.406533
    128          1           0       17.820649    1.174159   -1.021333
    129          1           0       18.644513    2.365376    0.916807
    130          1           0       18.803129    0.708041    1.746244
    131          1           0       20.444523    0.246161    0.090501
    132          1           0       20.133149    3.012378   -1.025363
    133          1           0       21.133967    1.860002   -1.599318
    134          1           0       19.608921    1.405738   -1.915277
    135          1           0       21.436971    1.024926    2.051109
    136          1           0       22.363501    1.819323    0.713626
    137          1           0       21.252991    2.919746    1.766125
 ---------------------------------------------------------------------

 SCF Done:  E(RCAM-B3LYP) =  -2932.61270541     A.U. after   18 cycles

 Excitation energies and oscillator strengths:

 Excited State   1:      Singlet-A      1.9926 eV  622.23 nm  f=0.3847  <S**2>=0.000
     240 -> 243       -0.20372
     241 -> 242        0.67042
 This state for optimization and/or second-order correction.
 Total Energy, E(TD-HF/TD-KS) =  -2932.53947927
 Copying the excited state density for this state as the 1-particle RhoCI density.

 The electronic state is 1-A.
 Alpha  occ. eigenvalues --  -46.84486 -19.27188 -19.26412 -19.21211 -19.21099
 Alpha  occ. eigenvalues --  -19.19109 -14.42076 -14.39617 -14.39395 -14.38155
 Alpha  occ. eigenvalues --  -10.40670 -10.38392 -10.35175 -10.32267 -10.31676
 Alpha  occ. eigenvalues --  -10.30668 -10.30110 -10.30032 -10.29567 -10.29411
 Alpha  occ. eigenvalues --  -10.29378 -10.28869 -10.28558 -10.28404 -10.28353
 Alpha  occ. eigenvalues --  -10.28334 -10.28018 -10.27905 -10.27771 -10.27628
 Alpha  occ. eigenvalues --  -10.27463 -10.27267 -10.27180 -10.27163 -10.27042
 Alpha  occ. eigenvalues --  -10.26968 -10.26915 -10.26866 -10.26717 -10.26712
 Alpha  occ. eigenvalues --  -10.26655 -10.26627 -10.26570 -10.26543 -10.26508
 Alpha  occ. eigenvalues --  -10.26438 -10.26370 -10.26294 -10.26028 -10.25865
 Alpha  occ. eigenvalues --  -10.25778 -10.25741 -10.25653 -10.25559 -10.25458
 Alpha  occ. eigenvalues --  -10.25427 -10.25364 -10.25163 -10.24976 -10.24556
 Alpha  occ. eigenvalues --  -10.24461 -10.23987 -10.23853 -10.23612 -10.23167
 Alpha  occ. eigenvalues --   -3.13466  -1.88184  -1.87695  -1.87638  -1.18047
 Alpha  occ. eigenvalues --   -1.17829  -1.13573  -1.06959  -1.06947  -1.05364
 Alpha  occ. eigenvalues --   -1.04436  -1.03847  -1.02257  -0.94670  -0.92571
 Alpha  occ. eigenvalues --   -0.91642  -0.90943  -0.89877  -0.89174  -0.88988
 Alpha  occ. eigenvalues --   -0.87884  -0.87699  -0.87588  -0.86985  -0.86522
 Alpha  occ. eigenvalues --   -0.85495  -0.84763  -0.84122  -0.83342  -0.82175
 Alpha  occ. eigenvalues --   -0.81926  -0.81696  -0.80580  -0.80067  -0.78885
 Alpha  occ. eigenvalues --   -0.77499  -0.77019  -0.76698  -0.76172  -0.76076
 Alpha  occ. eigenvalues --   -0.75592  -0.75502  -0.74814  -0.73654  -0.73082
 Alpha  occ. eigenvalues --   -0.71740  -0.70833  -0.69810  -0.69026  -0.68491
 Alpha  occ. eigenvalues --   -0.67149  -0.66743  -0.65572  -0.65043  -0.64852
 Alpha  occ. eigenvalues --   -0.64657  -0.62902  -0.62891  -0.62659  -0.62217
 Alpha  occ. eigenvalues --   -0.61410  -0.60262  -0.59957  -0.59671  -0.59481
 Alpha  occ. eigenvalues --   -0.58640  -0.58084  -0.57758  -0.57068  -0.56839
 Alpha  occ. eigenvalues --   -0.56061  -0.55748  -0.55591  -0.55472  -0.55221
 Alpha  occ. eigenvalues --   -0.55088  -0.54976  -0.54264  -0.53867  -0.53511
 Alpha  occ. eigenvalues --   -0.53067  -0.52693  -0.52218  -0.52111  -0.52047
 Alpha  occ. eigenvalues --   -0.51622  -0.51538  -0.51303  -0.50999  -0.50844
 Alpha  occ. eigenvalues --   -0.50701  -0.50398  -0.50297  -0.50004  -0.49487
 Alpha  occ. eigenvalues --   -0.49209  -0.49066  -0.48926  -0.48893  -0.48657
 Alpha  occ. eigenvalues --   -0.48572  -0.48095  -0.47898  -0.47858  -0.47738
 Alpha  occ. eigenvalues --   -0.47368  -0.46740  -0.46588  -0.46348  -0.46308
 Alpha  occ. eigenvalues --   -0.45977  -0.45928  -0.45761  -0.45585  -0.45476
 Alpha  occ. eigenvalues --   -0.45371  -0.45202  -0.44961  -0.44710  -0.44638
 Alpha  occ. eigenvalues --   -0.44582  -0.44264  -0.44134  -0.43931  -0.43492
 Alpha  occ. eigenvalues --   -0.43229  -0.42899  -0.42688  -0.42417  -0.42268
 Alpha  occ. eigenvalues --   -0.42107  -0.41624  -0.41438  -0.41215  -0.41076
 Alpha  occ. eigenvalues --   -0.40798  -0.40726  -0.40647  -0.40543  -0.40266
 Alpha  occ. eigenvalues --   -0.40178  -0.39935  -0.39738  -0.39276  -0.39222
 Alpha  occ. eigenvalues --   -0.39184  -0.38607  -0.38485  -0.38049  -0.38040
 Alpha  occ. eigenvalues --   -0.37802  -0.37492  -0.36804  -0.36421  -0.36398
 Alpha  occ. eigenvalues --   -0.36086  -0.35802  -0.35542  -0.35426  -0.35138
 Alpha  occ. eigenvalues --   -0.34989  -0.34581  -0.33937  -0.33724  -0.32961
 Alpha  occ. eigenvalues --   -0.32836  -0.32101  -0.31759  -0.31335  -0.30809
 Alpha  occ. eigenvalues --   -0.29868  -0.29785  -0.28523  -0.25077  -0.23464
 Alpha  occ. eigenvalues --   -0.21130
 Alpha virt. eigenvalues --   -0.07156  -0.02519   0.00947   0.03863   0.04463
 Alpha virt. eigenvalues --    0.04981   0.05775   0.06677   0.07786   0.08326
 Alpha virt. eigenvalues --    0.08656   0.10466   0.10951   0.11051   0.11814

 Mulliken charges:
               1
     1  Mg   0.817653
     2  C    0.056842
     3  C   -0.167572
     4  C   -0.152762
     5  C   -0.188465
     6  N   -0.644539
     7  C    0.300400
     8  C   -0.146661
     9  C   -0.149903
    10  C    0.355889
    11  C   -0.309817
    12  C   -0.149050
    13  C   -0.223637
    14  C    0.564625
    15  O   -0.506163
    16  O   -0.470133
    17  N   -0.727533
    18  C    0.319357
    19  C   -0.018042
    20  C    0.028478
    21  C    0.281084
    22  C   -0.351923
    23  C   -0.155679
    24  C   -0.244548
    25  N   -0.715379
    26  C    0.313834
    27  C    0.049451
    28  C   -0.052970
    29  C    0.307011
    30  C   -0.357170
    31  C   -0.219081
    32  C   -0.298576
    33  N   -0.703589
    34  C    0.324569
    35  C    0.017158
    36  C   -0.026035
    37  C    0.315790
    38  C   -0.381724
    39  C    0.390476
    40  O   -0.427816
    41  C   -0.334776
    42  C    0.607646
    43  O   -0.505950
    44  O   -0.441655
    45  C   -0.078208
    46  C    0.005068
    47  C   -0.120983
    48  C    0.102216
    49  C   -0.343348
    50  C   -0.208043
    51  C   -0.173789
    52  C   -0.180365
    53  C   -0.052453
    54  C   -0.295116
    55  C   -0.181900
    56  C   -0.152337
    57  C   -0.165357
    58  C   -0.094752
    59  C   -0.319941
    60  C   -0.148650
    61  C   -0.205990
    62  C   -0.150132
    63  C   -0.048358
    64  C   -0.307614
    65  C   -0.309947
    66  H    0.083660
    67  H    0.090479
    68  H    0.111149
    69  H    0.138195
    70  H    0.097788
    71  H    0.122829
    72  H    0.070554
    73  H    0.136313
    74  H    0.089501
    75  H    0.114859
    76  H    0.127999
    77  H    0.122472
    78  H    0.126330
    79  H    0.131993
    80  H    0.083557
    81  H    0.096192
    82  H    0.083966
    83  H    0.096345
    84  H    0.118840
    85  H    0.113753
    86  H    0.135138
    87  H    0.111908
    88  H    0.102418
    89  H    0.104971
    90  H    0.094206
    91  H    0.091730
    92  H    0.115618
    93  H    0.152398
    94  H    0.122300
    95  H    0.166497
    96  H    0.138975
    97  H    0.135022
    98  H    0.112781
    99  H    0.123219
   100  H    0.134012
   101  H    0.087772
   102  H    0.117932
   103  H    0.100642
   104  H    0.140397
   105  H    0.079874
   106  H    0.100234
   107  H    0.111098
   108  H    0.089999
   109  H    0.099132
   110  H    0.056137
   111  H    0.086862
   112  H    0.086335
   113  H    0.110184
   114  H    0.103640
   115  H    0.082416
   116  H    0.070019
   117  H    0.105062
   118  H    0.104680
   119  H    0.056317
   120  H    0.097806
   121  H    0.054080
   122  H    0.096844
   123  H    0.115248
   124  H    0.101805
   125  H    0.085914
   126  H    0.087259
   127  H    0.090654
   128  H    0.095937
   129  H    0.086482
   130  H    0.092615
   131  H    0.079746
   132  H    0.095129
   133  H    0.109915
   134  H    0.082381
   135  H    0.097816
   136  H    0.083695
   137  H    0.110863
 Sum of Mulliken charges =   0.00000

 Dipole moment (field-independent basis, Debye):
    X=              3.9622    Y=              1.5666    Z=             -0.2554  Tot=              4.2684
 Quadrupole moment (field-independent basis, Debye-Ang):
   XX=           -330.9377   YY=           -401.6071   ZZ=           -399.9402
   XY=             -7.0950   XZ=              5.4824   YZ=             -4.3123

 Normal termination of Gaussian 09 at Thu Jul  4 21:00:37 2019.
