 Gaussian 16, Revision A.03,
 Gaussian 16:  ES64L-G16RevA.03 25-Dec-2016

 ----------------------------------------------------------------------
 # td=(NStates=1) iop(3/107=0140000000,3/108=0140000000) CAM-B3LYP/6-31
 G(d,p)
 ----------------------------------------------------------------------

 --
 TD
 --
 Symbolic Z-matrix:
 Charge =  0 Multiplicity = 1

                         Standard orientation:
 ---------------------------------------------------------------------
 Center     Atomic      Atomic             Coordinates (Angstroms)
 Number     Number       Type             X           Y           Z
 ---------------------------------------------------------------------
      1         12           0       -7.069964    0.726938   -0.073240
      2          6           0       -4.908326   -1.962699    0.449992
      3          6           0       -4.771261    2.825409    1.136024
      4          6           0       -9.404772    3.167367   -0.441564
      5          6           0       -9.494808   -1.639614   -1.025614
      6          7           0       -5.146917    0.514343    0.685078
      7          6           0       -4.411325   -0.665390    0.791509
      8          6           0       -2.976563   -0.398585    1.232621
      9          6           0       -3.031701    1.007878    1.701718
     10          6           0       -4.321392    1.448309    1.157334
     11          6           0       -2.978456    1.098271    3.256925
     12          6           0       -1.979121   -0.614205    0.138342
     13          6           0       -0.579266   -0.420976    0.511858
     14          6           0        0.483390   -0.773831   -0.573562
     15          8           0        0.255891   -1.234105   -1.647502
     16          8           0        1.771850   -0.527472   -0.182822
     17          7           0       -7.147084    2.603714    0.250865
     18          6           0       -6.067453    3.290842    0.806786
     19          6           0       -6.309143    4.748349    0.819117
     20          6           0       -7.683209    4.842745    0.465746
     21          6           0       -8.147040    3.497943    0.003136
     22          6           0       -5.360673    5.877238    1.171457
     23          6           0       -8.527838    5.985761    0.162444
     24          6           0       -8.349322    7.165620    0.699810
     25          7           0       -9.082251    0.692689   -0.581564
     26          6           0       -9.820131    1.863654   -0.788569
     27          6           0      -11.119237    1.509669   -1.126499
     28          6           0      -11.165891    0.138618   -1.329365
     29          6           0       -9.854744   -0.300276   -0.974607
     30          6           0      -12.242431    2.445421   -1.290552
     31          6           0      -12.473589   -0.612841   -1.737909
     32          6           0      -12.345317   -1.174879   -3.180918
     33          7           0       -7.220944   -1.344837   -0.233915
     34          6           0       -8.242411   -2.189157   -0.733052
     35          6           0       -7.884848   -3.590312   -0.595341
     36          6           0       -6.591634   -3.534411   -0.089258
     37          6           0       -6.225050   -2.209272   -0.023881
     38          6           0       -8.732832   -4.818995   -0.729124
     39          6           0       -5.366426   -4.355349    0.221032
     40          8           0       -5.210129   -5.628892    0.314818
     41          6           0       -4.250131   -3.319200    0.578156
     42          6           0       -3.549340   -3.574445    1.871302
     43          8           0       -3.726281   -2.994305    2.945160
     44          8           0       -2.768744   -4.700699    1.766341
     45          6           0       -2.216802   -5.315561    2.954457
     46          6           0        2.886572   -0.726196   -1.148433
     47          6           0        4.214819   -0.506164   -0.447096
     48          6           0        5.107567    0.365910   -0.781688
     49          6           0        5.087626    1.217928   -2.038978
     50          6           0        6.500455    0.381356    0.002671
     51          6           0        7.547292   -0.245424   -0.884799
     52          6           0        8.908132   -0.106084   -0.139394
     53          6           0       10.172858   -0.583043   -0.889258
     54          6           0       10.107097   -2.034282   -1.268583
     55          6           0       11.411797   -0.262264   -0.056337
     56          6           0       12.829393   -0.555112   -0.670117
     57          6           0       13.958765    0.022318    0.106819
     58          6           0       15.346462   -0.164852   -0.495815
     59          6           0       15.749437   -1.598771   -0.966225
     60          6           0       16.454876    0.404844    0.328337
     61          6           0       17.850470    0.494283   -0.295116
     62          6           0       18.762949    1.315940    0.740162
     63          6           0       20.184320    1.372636    0.185199
     64          6           0       20.337189    2.114636   -1.109747
     65          6           0       21.184568    1.984544    1.226401
     66          1           0       -3.997874    3.650779    1.591855
     67          1           0      -10.036885    3.895603   -0.734960
     68          1           0      -10.073299   -2.408338   -1.310755
     69          1           0       -2.742358   -0.899440    2.057658
     70          1           0       -2.309908    1.653675    1.453608
     71          1           0       -1.968880    0.683049    3.619191
     72          1           0       -3.399567    2.078244    3.695029
     73          1           0       -3.667266    0.403409    3.861607
     74          1           0       -2.259834   -1.440697   -0.265525
     75          1           0       -2.373277    0.181366   -0.602815
     76          1           0       -0.364399    0.534178    0.836599
     77          1           0       -0.345631   -1.107599    1.291087
     78          1           0       -5.886436    6.749560    0.700224
     79          1           0       -5.387943    6.161228    2.291067
     80          1           0       -4.288733    5.478292    0.663598
     81          1           0       -9.500091    5.695277   -0.411204
     82          1           0       -9.155003    7.925575    0.541312
     83          1           0       -7.529122    7.419530    1.336114
     84          1           0      -12.080601    3.206768   -2.046716
     85          1           0      -13.162435    1.921902   -1.703941
     86          1           0      -12.636403    3.178544   -0.205119
     87          1           0      -12.583757   -1.566347   -1.102926
     88          1           0      -13.367943    0.062684   -1.590377
     89          1           0      -13.218597   -1.629746   -3.285217
     90          1           0      -11.856265   -0.434325   -3.777504
     91          1           0      -11.615934   -2.097976   -3.130517
     92          1           0       -9.267374   -4.919276   -1.592790
     93          1           0       -8.023285   -5.824911   -0.678445
     94          1           0       -9.301924   -4.853193    0.055965
     95          1           0       -3.515237   -3.242893   -0.269469
     96          1           0       -1.894049   -4.239982    3.477813
     97          1           0       -2.910655   -5.816071    3.528513
     98          1           0       -1.325726   -5.998942    2.584950
     99          1           0        2.776829   -1.730977   -1.483975
    100          1           0        2.614073    0.236243   -1.863217
    101          1           0        4.386493   -0.981350    0.412790
    102          1           0        4.061949    1.163522   -2.416927
    103          1           0        5.549450    2.083188   -2.049919
    104          1           0        5.626541    0.859473   -2.758862
    105          1           0        6.572261    1.555929   -0.069844
    106          1           0        6.372054    0.111945    1.070898
    107          1           0        7.199068   -1.305104   -1.058272
    108          1           0        7.564662    0.391284   -1.675792
    109          1           0        9.214585    0.819811    0.178222
    110          1           0        8.984757   -0.751649    0.881257
    111          1           0       10.218430   -0.182863   -1.925383
    112          1           0        9.115225   -2.320520   -1.717067
    113          1           0       10.913135   -2.512247   -2.013953
    114          1           0       10.029176   -2.732663   -0.332225
    115          1           0       11.202156    0.685629    0.407446
    116          1           0       11.422207   -0.883314    0.848129
    117          1           0       12.717330   -1.654815   -0.863374
    118          1           0       12.913712   -0.074986   -1.656676
    119          1           0       13.797525    1.005774    0.432016
    120          1           0       13.948832   -0.462548    1.265708
    121          1           0       15.523246    0.525672   -1.246229
    122          1           0       15.739720   -2.349666   -0.137644
    123          1           0       14.860294   -1.976585   -1.605653
    124          1           0       16.706254   -1.694303   -1.607147
    125          1           0       16.083560    1.286234    0.745497
    126          1           0       16.629131   -0.167207    1.115318
    127          1           0       18.331851   -0.541711   -0.236666
    128          1           0       17.936072    0.799729   -1.356419
    129          1           0       18.308466    2.329493    0.894429
    130          1           0       18.709560    0.822456    1.687906
    131          1           0       20.632262    0.248100    0.028325
    132          1           0       20.178922    3.204755   -0.898698
    133          1           0       21.400302    2.083917   -1.448497
    134          1           0       19.738113    1.883062   -1.922699
    135          1           0       21.036030    1.355120    2.250584
    136          1           0       22.224009    2.019847    1.033809
    137          1           0       21.026395    3.138761    1.354851
 ---------------------------------------------------------------------

 SCF Done:  E(RCAM-B3LYP) =  -2933.47984544     A.U. after   16 cycles

 Excitation energies and oscillator strengths:

 Excited State   1:      Singlet-A      2.0889 eV  593.54 nm  f=0.1944  <S**2>=0.000
     240 -> 243        0.26317
     241 -> 242        0.64977
 This state for optimization and/or second-order correction.
 Total Energy, E(TD-HF/TD-DFT) =  -2933.40308014
 Copying the excited state density for this state as the 1-particle RhoCI density.

 The electronic state is 1-A.
 Alpha  occ. eigenvalues --  -46.79113 -19.21147 -19.20251 -19.17066 -19.16179
 Alpha  occ. eigenvalues --  -19.16049 -14.38387 -14.35256 -14.34773 -14.34219
 Alpha  occ. eigenvalues --  -10.35032 -10.34033 -10.31501 -10.28647 -10.27910
 Alpha  occ. eigenvalues --  -10.26838 -10.26642 -10.26222 -10.24959 -10.24898
 Alpha  occ. eigenvalues --  -10.24595 -10.24347 -10.23980 -10.23697 -10.23645
 Alpha  occ. eigenvalues --  -10.23513 -10.23367 -10.23306 -10.23176 -10.23105
 Alpha  occ. eigenvalues --  -10.23065 -10.22946 -10.22890 -10.22866 -10.22845
 Alpha  occ. eigenvalues --  -10.22810 -10.22791 -10.22739 -10.22255 -10.22110
 Alpha  occ. eigenvalues --  -10.21820 -10.21820 -10.21816 -10.21613 -10.21517
 Alpha  occ. eigenvalues --  -10.21473 -10.21449 -10.21365 -10.21317 -10.21302
 Alpha  occ. eigenvalues --  -10.21298 -10.21293 -10.21235 -10.21144 -10.21077
 Alpha  occ. eigenvalues --  -10.21009 -10.20944 -10.20629 -10.20488 -10.20434
 Alpha  occ. eigenvalues --  -10.20390 -10.20178 -10.19675 -10.19453 -10.18055
 Alpha  occ. eigenvalues --   -3.07981  -1.82893  -1.82453  -1.82414  -1.11828
 Alpha  occ. eigenvalues --   -1.11537  -1.03374  -1.03318  -1.02192  -1.00432
 Alpha  occ. eigenvalues --   -0.98972  -0.98189  -0.97233  -0.87867  -0.87338
 Alpha  occ. eigenvalues --   -0.86817  -0.85878  -0.84763  -0.84085  -0.83879
 Alpha  occ. eigenvalues --   -0.83134  -0.83056  -0.82676  -0.82410  -0.81594
 Alpha  occ. eigenvalues --   -0.80789  -0.79375  -0.78976  -0.78618  -0.77899
 Alpha  occ. eigenvalues --   -0.77205  -0.76584  -0.75573  -0.75196  -0.74471
 Alpha  occ. eigenvalues --   -0.73077  -0.72251  -0.71833  -0.71287  -0.70664
 Alpha  occ. eigenvalues --   -0.70399  -0.70299  -0.69886  -0.69316  -0.68162
 Alpha  occ. eigenvalues --   -0.67913  -0.66899  -0.65159  -0.64605  -0.63924
 Alpha  occ. eigenvalues --   -0.62992  -0.62416  -0.61864  -0.60985  -0.60599
 Alpha  occ. eigenvalues --   -0.60117  -0.59486  -0.58614  -0.58221  -0.57658
 Alpha  occ. eigenvalues --   -0.57631  -0.57230  -0.56867  -0.55934  -0.55395
 Alpha  occ. eigenvalues --   -0.54594  -0.54369  -0.53625  -0.53431  -0.53351
 Alpha  occ. eigenvalues --   -0.52746  -0.52442  -0.51915  -0.51190  -0.50693
 Alpha  occ. eigenvalues --   -0.50576  -0.50364  -0.50024  -0.49591  -0.49281
 Alpha  occ. eigenvalues --   -0.48890  -0.48582  -0.48406  -0.48180  -0.48123
 Alpha  occ. eigenvalues --   -0.47983  -0.47915  -0.47558  -0.47243  -0.47111
 Alpha  occ. eigenvalues --   -0.46742  -0.46635  -0.46432  -0.46047  -0.45912
 Alpha  occ. eigenvalues --   -0.45709  -0.45343  -0.45225  -0.45126  -0.44832
 Alpha  occ. eigenvalues --   -0.44572  -0.44490  -0.44231  -0.44060  -0.43929
 Alpha  occ. eigenvalues --   -0.43837  -0.43607  -0.43248  -0.43201  -0.43069
 Alpha  occ. eigenvalues --   -0.43002  -0.42722  -0.42338  -0.41970  -0.41642
 Alpha  occ. eigenvalues --   -0.41223  -0.41139  -0.40760  -0.40655  -0.40297
 Alpha  occ. eigenvalues --   -0.40095  -0.39998  -0.39884  -0.39829  -0.39659
 Alpha  occ. eigenvalues --   -0.39448  -0.39281  -0.38985  -0.38887  -0.38724
 Alpha  occ. eigenvalues --   -0.38537  -0.38460  -0.38326  -0.38183  -0.37815
 Alpha  occ. eigenvalues --   -0.37680  -0.37623  -0.37240  -0.37208  -0.36944
 Alpha  occ. eigenvalues --   -0.36521  -0.36456  -0.36318  -0.35891  -0.35883
 Alpha  occ. eigenvalues --   -0.35776  -0.35564  -0.35346  -0.35293  -0.35211
 Alpha  occ. eigenvalues --   -0.34944  -0.34516  -0.34126  -0.34013  -0.33742
 Alpha  occ. eigenvalues --   -0.33501  -0.33242  -0.33151  -0.32922  -0.32330
 Alpha  occ. eigenvalues --   -0.32064  -0.31845  -0.31595  -0.30893  -0.30751
 Alpha  occ. eigenvalues --   -0.30508  -0.29869  -0.29742  -0.28298  -0.28136
 Alpha  occ. eigenvalues --   -0.26950  -0.26823  -0.25331  -0.24782  -0.21439
 Alpha  occ. eigenvalues --   -0.20110
 Alpha virt. eigenvalues --   -0.06799  -0.04151  -0.00824   0.01945   0.03118
 Alpha virt. eigenvalues --    0.04007   0.05060   0.05203   0.05286   0.05781
 Alpha virt. eigenvalues --    0.06835   0.08797   0.09146   0.09528   0.09644

 Mulliken charges:
               1
     1  Mg   0.828891
     2  C    0.030099
     3  C   -0.241839
     4  C   -0.132844
     5  C   -0.139845
     6  N   -0.623476
     7  C    0.276277
     8  C   -0.149307
     9  C   -0.119936
    10  C    0.365619
    11  C   -0.336783
    12  C   -0.119898
    13  C   -0.258448
    14  C    0.576573
    15  O   -0.452300
    16  O   -0.507707
    17  N   -0.753621
    18  C    0.335339
    19  C    0.026535
    20  C   -0.007015
    21  C    0.307858
    22  C   -0.363146
    23  C   -0.051805
    24  C   -0.255720
    25  N   -0.686327
    26  C    0.266789
    27  C    0.046667
    28  C    0.036429
    29  C    0.321101
    30  C   -0.372003
    31  C   -0.248150
    32  C   -0.295158
    33  N   -0.683965
    34  C    0.229370
    35  C   -0.004737
    36  C    0.040089
    37  C    0.295669
    38  C   -0.376197
    39  C    0.368617
    40  O   -0.490474
    41  C   -0.303856
    42  C    0.620770
    43  O   -0.478395
    44  O   -0.453241
    45  C   -0.074457
    46  C    0.021172
    47  C   -0.098581
    48  C    0.092207
    49  C   -0.359088
    50  C   -0.238108
    51  C   -0.144484
    52  C   -0.171056
    53  C   -0.049812
    54  C   -0.308431
    55  C   -0.190181
    56  C   -0.173529
    57  C   -0.161881
    58  C   -0.046182
    59  C   -0.321682
    60  C   -0.164069
    61  C   -0.203772
    62  C   -0.160144
    63  C   -0.037706
    64  C   -0.304373
    65  C   -0.304145
    66  H    0.073300
    67  H    0.072407
    68  H    0.062145
    69  H    0.121150
    70  H    0.109533
    71  H    0.107117
    72  H    0.108132
    73  H    0.125695
    74  H    0.106622
    75  H    0.090562
    76  H    0.136899
    77  H    0.140701
    78  H    0.122004
    79  H    0.126898
    80  H    0.105742
    81  H    0.086175
    82  H    0.096390
    83  H    0.100614
    84  H    0.123994
    85  H    0.100663
    86  H    0.060550
    87  H    0.097914
    88  H    0.103866
    89  H    0.118707
    90  H    0.124596
    91  H    0.084938
    92  H    0.127183
    93  H    0.125141
    94  H    0.151234
    95  H    0.175293
    96  H    0.108085
    97  H    0.149499
    98  H    0.120989
    99  H    0.138402
   100  H    0.109614
   101  H    0.082067
   102  H    0.099739
   103  H    0.114636
   104  H    0.137413
   105  H    0.080349
   106  H    0.103119
   107  H    0.110457
   108  H    0.110027
   109  H    0.104516
   110  H    0.067985
   111  H    0.081689
   112  H    0.092338
   113  H    0.088146
   114  H    0.077044
   115  H    0.079443
   116  H    0.092413
   117  H    0.107013
   118  H    0.090964
   119  H    0.106766
   120  H    0.038822
   121  H    0.094188
   122  H    0.101853
   123  H    0.086146
   124  H    0.102194
   125  H    0.080501
   126  H    0.096941
   127  H    0.090895
   128  H    0.090142
   129  H    0.088032
   130  H    0.099164
   131  H    0.060500
   132  H    0.091867
   133  H    0.097489
   134  H    0.108190
   135  H    0.075066
   136  H    0.110176
   137  H    0.080756
 Sum of Mulliken charges =  -0.00000

 Dipole moment (field-independent basis, Debye):
    X=              2.2156    Y=              4.4966    Z=             -0.2890  Tot=              5.0211
 Quadrupole moment (field-independent basis, Debye-Ang):
   XX=           -357.9103   YY=           -395.4067   ZZ=           -397.2915
   XY=            -10.6556   XZ=              8.6237   YZ=             -2.1694

 Normal termination of Gaussian 16 at Tue Sep  3 19:45:46 2019.
