 Gaussian 16, Revision A.03,
 Gaussian 16:  ES64L-G16RevA.03 25-Dec-2016

 ----------------------------------------------------------------------
 # td=(NStates=1) iop(3/107=0140000000,3/108=0140000000) CAM-B3LYP/6-31
 G(d,p)
 ----------------------------------------------------------------------

 --
 TD
 --
 Symbolic Z-matrix:
 Charge =  0 Multiplicity = 1

                         Standard orientation:
 ---------------------------------------------------------------------
 Center     Atomic      Atomic             Coordinates (Angstroms)
 Number     Number       Type             X           Y           Z
 ---------------------------------------------------------------------
      1         12           0       -7.155768    0.583509    0.078537
      2          6           0       -4.861338   -2.025668    0.488596
      3          6           0       -4.853019    2.803856    1.265557
      4          6           0       -9.443344    3.159139   -0.427535
      5          6           0       -9.502756   -1.702552   -0.779833
      6          7           0       -5.094969    0.377982    0.690082
      7          6           0       -4.370862   -0.724955    0.742821
      8          6           0       -2.977075   -0.366551    1.221110
      9          6           0       -3.061914    1.115801    1.655651
     10          6           0       -4.479677    1.477897    1.092050
     11          6           0       -2.948843    1.160960    3.121134
     12          6           0       -1.953467   -0.451964    0.047447
     13          6           0       -0.508540   -0.487527    0.543064
     14          6           0        0.472985   -0.715004   -0.588856
     15          8           0        0.177763   -0.987860   -1.711363
     16          8           0        1.835966   -0.617666   -0.165069
     17          7           0       -7.129436    2.619632    0.357015
     18          6           0       -5.991547    3.452895    0.833225
     19          6           0       -6.346515    4.794744    0.793486
     20          6           0       -7.705745    4.941532    0.381538
     21          6           0       -8.160919    3.504647    0.044711
     22          6           0       -5.394149    5.951768    1.048845
     23          6           0       -8.515260    6.086355    0.188655
     24          6           0       -8.355535    7.273934    0.779139
     25          7           0       -9.075319    0.732388   -0.574897
     26          6           0       -9.901851    1.865914   -0.657312
     27          6           0      -11.222932    1.532485   -1.049905
     28          6           0      -11.214203    0.161885   -1.297483
     29          6           0       -9.943441   -0.274690   -0.805235
     30          6           0      -12.322109    2.451103   -1.369373
     31          6           0      -12.300557   -0.666274   -1.844983
     32          6           0      -12.006249   -1.175677   -3.226698
     33          7           0       -7.246148   -1.398898   -0.167105
     34          6           0       -8.332573   -2.187476   -0.434737
     35          6           0       -7.973139   -3.648856   -0.327971
     36          6           0       -6.553057   -3.600681   -0.019782
     37          6           0       -6.233905   -2.201722    0.066401
     38          6           0       -8.747193   -4.877856   -0.558220
     39          6           0       -5.363036   -4.371707    0.214279
     40          8           0       -5.236108   -5.636981    0.174858
     41          6           0       -4.193850   -3.365084    0.543940
     42          6           0       -3.596074   -3.661655    1.891514
     43          8           0       -3.802698   -3.184207    2.910827
     44          8           0       -2.800928   -4.817213    1.700391
     45          6           0       -2.144933   -5.141805    2.888266
     46          6           0        2.797449   -0.785057   -1.121690
     47          6           0        4.173138   -0.604514   -0.575767
     48          6           0        5.126177    0.276837   -0.985122
     49          6           0        5.025256    1.192242   -2.196262
     50          6           0        6.485564    0.325113   -0.352670
     51          6           0        7.641711   -0.148242   -1.128676
     52          6           0        8.912092   -0.140651   -0.322017
     53          6           0       10.220281   -0.624288   -1.049919
     54          6           0       10.113750   -2.028256   -1.362283
     55          6           0       11.341513   -0.299503   -0.150351
     56          6           0       12.820837   -0.555956   -0.911575
     57          6           0       13.999344   -0.136404    0.066809
     58          6           0       15.395807   -0.183574   -0.541855
     59          6           0       15.717893   -1.672640   -0.749001
     60          6           0       16.391620    0.509909    0.491444
     61          6           0       17.808519    0.496811   -0.135806
     62          6           0       18.733743    1.311098    0.783346
     63          6           0       20.249766    1.417326    0.344052
     64          6           0       20.424070    2.261042   -0.896866
     65          6           0       21.205058    1.907403    1.529342
     66          1           0       -3.858594    3.628830    1.572369
     67          1           0      -10.016849    4.162703   -0.728945
     68          1           0      -10.264108   -2.581836   -1.009605
     69          1           0       -2.616101   -1.146716    1.938583
     70          1           0       -2.371564    1.615185    1.028578
     71          1           0       -1.835027    1.207757    3.607048
     72          1           0       -3.144208    2.288181    3.450737
     73          1           0       -3.658593    0.583633    3.672091
     74          1           0       -1.998771   -1.362156   -0.371409
     75          1           0       -2.078933    0.190209   -0.762352
     76          1           0       -0.103188    0.395466    0.987870
     77          1           0       -0.404423   -1.312154    1.245328
     78          1           0       -5.591887    6.828259    0.193795
     79          1           0       -5.690075    6.442215    2.007756
     80          1           0       -4.291624    5.614514    1.135737
     81          1           0       -9.474874    5.955635   -0.339913
     82          1           0       -8.818446    8.168271    0.576425
     83          1           0       -7.664801    7.387374    1.542116
     84          1           0      -12.079085    3.239584   -2.153572
     85          1           0      -13.204964    1.753706   -1.554752
     86          1           0      -12.677722    3.150768   -0.568823
     87          1           0      -12.625826   -1.556736   -1.223387
     88          1           0      -13.117120    0.011835   -1.796667
     89          1           0      -13.157472   -1.423875   -3.619424
     90          1           0      -11.557365   -0.192916   -3.828591
     91          1           0      -11.436105   -2.088179   -3.526953
     92          1           0       -9.174905   -4.816035   -1.674641
     93          1           0       -8.294310   -5.840828   -0.118058
     94          1           0       -9.714172   -4.830450    0.084439
     95          1           0       -3.336420   -3.490062   -0.144709
     96          1           0       -1.521801   -4.482778    3.304104
     97          1           0       -2.674465   -5.573837    3.707380
     98          1           0       -1.299388   -5.879882    2.675259
     99          1           0        2.795062   -1.710680   -1.601326
    100          1           0        2.519057   -0.074235   -1.839576
    101          1           0        4.461724   -1.202088    0.292721
    102          1           0        3.837111    1.426575   -2.447609
    103          1           0        5.527555    2.056610   -1.970597
    104          1           0        5.400410    0.556905   -3.094399
    105          1           0        6.791035    1.407730   -0.058470
    106          1           0        6.376856   -0.105173    0.561155
    107          1           0        7.499577   -1.238847   -1.531628
    108          1           0        7.725231    0.445529   -2.104112
    109          1           0        9.216381    1.029943   -0.064447
    110          1           0        8.886903   -0.557336    0.661043
    111          1           0       10.495258    0.081717   -1.968650
    112          1           0        9.242359   -2.279185   -2.196287
    113          1           0       10.925371   -2.462556   -1.752074
    114          1           0       10.070817   -2.727171   -0.595727
    115          1           0       11.390627    0.736833    0.079537
    116          1           0       11.474833   -0.859762    0.741441
    117          1           0       12.846833   -1.725928   -0.965705
    118          1           0       12.900752    0.033539   -1.876956
    119          1           0       13.689740    0.878392    0.309277
    120          1           0       13.855495   -0.803875    0.974797
    121          1           0       15.364596    0.343069   -1.552867
    122          1           0       15.633442   -2.071598    0.275404
    123          1           0       15.006631   -2.222753   -1.451300
    124          1           0       16.731123   -1.781938   -1.130645
    125          1           0       16.145326    1.682862    0.708343
    126          1           0       16.416984   -0.017526    1.462602
    127          1           0       18.383007   -0.375989   -0.335098
    128          1           0       17.792728    0.871679   -1.349382
    129          1           0       18.288732    2.460651    0.920618
    130          1           0       18.663514    0.802499    1.700908
    131          1           0       20.620517    0.466442    0.346397
    132          1           0       20.356925    3.396643   -0.446302
    133          1           0       21.396876    2.196664   -1.540163
    134          1           0       19.514488    2.203779   -1.596797
    135          1           0       20.949998    1.323550    2.449222
    136          1           0       22.125765    1.647792    1.409520
    137          1           0       21.270124    3.117692    1.722209
 ---------------------------------------------------------------------

 SCF Done:  E(RCAM-B3LYP) =  -2933.51026435     A.U. after   16 cycles

 Excitation energies and oscillator strengths:

 Excited State   1:      Singlet-A      1.9686 eV  629.82 nm  f=0.2189  <S**2>=0.000
     240 -> 243       -0.23575
     241 -> 242        0.65819
 This state for optimization and/or second-order correction.
 Total Energy, E(TD-HF/TD-DFT) =  -2933.43792075
 Copying the excited state density for this state as the 1-particle RhoCI density.

 The electronic state is 1-A.
 Alpha  occ. eigenvalues --  -46.80180 -19.21296 -19.20545 -19.18633 -19.17827
 Alpha  occ. eigenvalues --  -19.16049 -14.37901 -14.35902 -14.35522 -14.35403
 Alpha  occ. eigenvalues --  -10.34818 -10.34555 -10.31070 -10.26651 -10.26564
 Alpha  occ. eigenvalues --  -10.26138 -10.25483 -10.25406 -10.25380 -10.25358
 Alpha  occ. eigenvalues --  -10.25270 -10.25112 -10.24718 -10.24696 -10.24600
 Alpha  occ. eigenvalues --  -10.24381 -10.23856 -10.23853 -10.23825 -10.23818
 Alpha  occ. eigenvalues --  -10.23667 -10.23404 -10.23275 -10.23224 -10.22896
 Alpha  occ. eigenvalues --  -10.22892 -10.22885 -10.22872 -10.22651 -10.22631
 Alpha  occ. eigenvalues --  -10.22599 -10.22371 -10.22265 -10.22206 -10.22190
 Alpha  occ. eigenvalues --  -10.22159 -10.22152 -10.21995 -10.21945 -10.21918
 Alpha  occ. eigenvalues --  -10.21868 -10.21782 -10.21611 -10.21597 -10.21560
 Alpha  occ. eigenvalues --  -10.21468 -10.20998 -10.20875 -10.20649 -10.20584
 Alpha  occ. eigenvalues --  -10.20539 -10.20408 -10.20153 -10.20085 -10.19267
 Alpha  occ. eigenvalues --   -3.08800  -1.83740  -1.83266  -1.83215  -1.15062
 Alpha  occ. eigenvalues --   -1.12678  -1.06686  -1.05718  -1.03081  -1.01089
 Alpha  occ. eigenvalues --   -1.00014  -0.98232  -0.94774  -0.88210  -0.86308
 Alpha  occ. eigenvalues --   -0.85934  -0.84836  -0.84610  -0.84207  -0.84060
 Alpha  occ. eigenvalues --   -0.83767  -0.82791  -0.82655  -0.82525  -0.81505
 Alpha  occ. eigenvalues --   -0.80167  -0.79638  -0.79349  -0.77993  -0.77627
 Alpha  occ. eigenvalues --   -0.76572  -0.76291  -0.75798  -0.74878  -0.73532
 Alpha  occ. eigenvalues --   -0.72831  -0.72198  -0.71722  -0.71616  -0.70551
 Alpha  occ. eigenvalues --   -0.70503  -0.70190  -0.69119  -0.68598  -0.67803
 Alpha  occ. eigenvalues --   -0.67521  -0.66296  -0.65089  -0.64951  -0.63996
 Alpha  occ. eigenvalues --   -0.63069  -0.62198  -0.61713  -0.61045  -0.60228
 Alpha  occ. eigenvalues --   -0.59839  -0.59327  -0.58974  -0.58695  -0.58120
 Alpha  occ. eigenvalues --   -0.57430  -0.56653  -0.56393  -0.55721  -0.55312
 Alpha  occ. eigenvalues --   -0.54937  -0.54179  -0.54040  -0.53710  -0.53025
 Alpha  occ. eigenvalues --   -0.52420  -0.51879  -0.51439  -0.51235  -0.50978
 Alpha  occ. eigenvalues --   -0.50936  -0.50696  -0.50129  -0.49565  -0.49507
 Alpha  occ. eigenvalues --   -0.49379  -0.48944  -0.48414  -0.48323  -0.48064
 Alpha  occ. eigenvalues --   -0.47725  -0.47547  -0.47372  -0.47246  -0.47084
 Alpha  occ. eigenvalues --   -0.47008  -0.46748  -0.46471  -0.45878  -0.45703
 Alpha  occ. eigenvalues --   -0.45313  -0.45144  -0.45066  -0.44785  -0.44692
 Alpha  occ. eigenvalues --   -0.44611  -0.44366  -0.43925  -0.43852  -0.43776
 Alpha  occ. eigenvalues --   -0.43679  -0.43088  -0.43058  -0.42935  -0.42808
 Alpha  occ. eigenvalues --   -0.42607  -0.42485  -0.42130  -0.41939  -0.41597
 Alpha  occ. eigenvalues --   -0.41495  -0.41220  -0.40963  -0.40670  -0.40594
 Alpha  occ. eigenvalues --   -0.40329  -0.40114  -0.39911  -0.39792  -0.39442
 Alpha  occ. eigenvalues --   -0.39327  -0.39240  -0.39203  -0.39086  -0.38722
 Alpha  occ. eigenvalues --   -0.38706  -0.38672  -0.38527  -0.38314  -0.38083
 Alpha  occ. eigenvalues --   -0.37820  -0.37705  -0.37426  -0.37322  -0.37065
 Alpha  occ. eigenvalues --   -0.36996  -0.36648  -0.36445  -0.36381  -0.36164
 Alpha  occ. eigenvalues --   -0.36028  -0.35424  -0.34876  -0.34736  -0.34711
 Alpha  occ. eigenvalues --   -0.34432  -0.34425  -0.34067  -0.33913  -0.33528
 Alpha  occ. eigenvalues --   -0.33038  -0.32969  -0.32843  -0.32431  -0.32425
 Alpha  occ. eigenvalues --   -0.32206  -0.31868  -0.31662  -0.31423  -0.30814
 Alpha  occ. eigenvalues --   -0.30554  -0.30345  -0.29748  -0.28375  -0.27393
 Alpha  occ. eigenvalues --   -0.27114  -0.26344  -0.26002  -0.24397  -0.22060
 Alpha  occ. eigenvalues --   -0.19887
 Alpha virt. eigenvalues --   -0.07289  -0.05218  -0.01117   0.01839   0.03796
 Alpha virt. eigenvalues --    0.03943   0.04648   0.04729   0.04991   0.05298
 Alpha virt. eigenvalues --    0.06443   0.07468   0.08136   0.09244   0.09649

 Mulliken charges:
               1
     1  Mg   0.810788
     2  C    0.070136
     3  C   -0.182565
     4  C   -0.174578
     5  C   -0.202619
     6  N   -0.629336
     7  C    0.338726
     8  C   -0.189704
     9  C   -0.109931
    10  C    0.313354
    11  C   -0.297057
    12  C   -0.183602
    13  C   -0.265161
    14  C    0.588114
    15  O   -0.439988
    16  O   -0.493141
    17  N   -0.706181
    18  C    0.297763
    19  C    0.034612
    20  C    0.027624
    21  C    0.302926
    22  C   -0.367753
    23  C   -0.085252
    24  C   -0.248359
    25  N   -0.669790
    26  C    0.294752
    27  C    0.043834
    28  C    0.044763
    29  C    0.267176
    30  C   -0.388956
    31  C   -0.227582
    32  C   -0.283532
    33  N   -0.742856
    34  C    0.326719
    35  C    0.049947
    36  C    0.052763
    37  C    0.303817
    38  C   -0.397037
    39  C    0.343909
    40  O   -0.486981
    41  C   -0.328624
    42  C    0.619328
    43  O   -0.405836
    44  O   -0.454306
    45  C   -0.092755
    46  C    0.051346
    47  C   -0.148021
    48  C    0.117245
    49  C   -0.348216
    50  C   -0.217625
    51  C   -0.157526
    52  C   -0.153478
    53  C   -0.029385
    54  C   -0.299506
    55  C   -0.185944
    56  C   -0.205719
    57  C   -0.162826
    58  C   -0.058200
    59  C   -0.303429
    60  C   -0.159521
    61  C   -0.163293
    62  C   -0.162477
    63  C   -0.044821
    64  C   -0.294669
    65  C   -0.315285
    66  H    0.059261
    67  H    0.083680
    68  H    0.078766
    69  H    0.104983
    70  H    0.112714
    71  H    0.093777
    72  H    0.080984
    73  H    0.138562
    74  H    0.120351
    75  H    0.121543
    76  H    0.136329
    77  H    0.139816
    78  H    0.107450
    79  H    0.128272
    80  H    0.102363
    81  H    0.083974
    82  H    0.106183
    83  H    0.099118
    84  H    0.121356
    85  H    0.105078
    86  H    0.118815
    87  H    0.102966
    88  H    0.104952
    89  H    0.070605
    90  H    0.088340
    91  H    0.121798
    92  H    0.127260
    93  H    0.159473
    94  H    0.117629
    95  H    0.165898
    96  H    0.118913
    97  H    0.123183
    98  H    0.095960
    99  H    0.116476
   100  H    0.097402
   101  H    0.078469
   102  H    0.084282
   103  H    0.123395
   104  H    0.122409
   105  H    0.081099
   106  H    0.101067
   107  H    0.083940
   108  H    0.090619
   109  H    0.048001
   110  H    0.099811
   111  H    0.069844
   112  H    0.072919
   113  H    0.109879
   114  H    0.105198
   115  H    0.095395
   116  H    0.091638
   117  H    0.082485
   118  H    0.085750
   119  H    0.085462
   120  H    0.077382
   121  H    0.080181
   122  H    0.097105
   123  H    0.102747
   124  H    0.100879
   125  H    0.084076
   126  H    0.097376
   127  H    0.106328
   128  H    0.048632
   129  H    0.056897
   130  H    0.097102
   131  H    0.094735
   132  H    0.079549
   133  H    0.095691
   134  H    0.100029
   135  H    0.087658
   136  H    0.119987
   137  H    0.071535
 Sum of Mulliken charges =  -0.00000

 Dipole moment (field-independent basis, Debye):
    X=              0.4512    Y=              3.3001    Z=              0.8397  Tot=              3.4350
 Quadrupole moment (field-independent basis, Debye-Ang):
   XX=           -328.6260   YY=           -400.1369   ZZ=           -401.0283
   XY=            -29.9799   XZ=             12.0475   YZ=             -2.7766

 Normal termination of Gaussian 16 at Sat Sep 14 18:54:35 2019.
