 Gaussian 09, Revision D.01,
 Gaussian 09:  ES64L-G09RevD.01 24-Apr-2013

 -------------------------------------
 # td=(NStates=1) CAM-B3LYP/6-31G(d,p)
 -------------------------------------

 --
 TD
 --
 Symbolic Z-matrix:
 Charge =  0 Multiplicity = 1

                         Standard orientation:
 ---------------------------------------------------------------------
 Center     Atomic      Atomic             Coordinates (Angstroms)
 Number     Number       Type             X           Y           Z
 ---------------------------------------------------------------------
      1         12           0       -7.139437    0.671729    0.074071
      2          6           0       -4.887581   -1.928853    0.452922
      3          6           0       -4.789215    2.830861    1.089958
      4          6           0       -9.345175    3.156029   -0.375857
      5          6           0       -9.488476   -1.728580   -0.849806
      6          7           0       -5.093192    0.479649    0.649601
      7          6           0       -4.352714   -0.681180    0.755345
      8          6           0       -2.945177   -0.408307    1.227923
      9          6           0       -2.998520    1.038109    1.700415
     10          6           0       -4.440537    1.530054    1.197449
     11          6           0       -3.049575    1.240423    3.203408
     12          6           0       -1.908434   -0.564942    0.101484
     13          6           0       -0.434459   -0.380718    0.498291
     14          6           0        0.555698   -0.687951   -0.621730
     15          8           0        0.199789   -1.032057   -1.716592
     16          8           0        1.811004   -0.487138   -0.228384
     17          7           0       -7.127158    2.597429    0.349561
     18          6           0       -6.002433    3.350599    0.793165
     19          6           0       -6.393613    4.827685    0.741762
     20          6           0       -7.712417    4.835951    0.328392
     21          6           0       -8.169698    3.491041    0.091622
     22          6           0       -5.461593    5.858833    1.019982
     23          6           0       -8.506924    5.955912    0.037196
     24          6           0       -8.514318    7.156712    0.688371
     25          7           0       -9.128762    0.636952   -0.442192
     26          6           0       -9.918388    1.823919   -0.637248
     27          6           0      -11.224220    1.534124   -1.023453
     28          6           0      -11.314033    0.160992   -1.168605
     29          6           0       -9.969393   -0.387842   -0.753364
     30          6           0      -12.356099    2.440286   -1.319314
     31          6           0      -12.387906   -0.746056   -1.656750
     32          6           0      -12.309552   -1.096317   -3.110546
     33          7           0       -7.250842   -1.405796   -0.139256
     34          6           0       -8.274027   -2.243521   -0.403102
     35          6           0       -7.839967   -3.524115   -0.482312
     36          6           0       -6.508452   -3.585701   -0.153141
     37          6           0       -6.173449   -2.210335    0.011532
     38          6           0       -8.587527   -4.853988   -0.749067
     39          6           0       -5.400397   -4.400532    0.257357
     40          8           0       -5.224795   -5.613476    0.167206
     41          6           0       -4.248585   -3.281446    0.561242
     42          6           0       -3.539242   -3.686247    1.853597
     43          8           0       -3.739605   -3.117439    2.904415
     44          8           0       -2.807468   -4.744619    1.715131
     45          6           0       -2.157351   -5.197944    2.947953
     46          6           0        2.717372   -0.712776   -1.191095
     47          6           0        4.162921   -0.545304   -0.624891
     48          6           0        5.085398    0.381698   -0.992517
     49          6           0        4.985940    1.152414   -2.265985
     50          6           0        6.383635    0.411665   -0.270570
     51          6           0        7.717637   -0.210329   -1.058179
     52          6           0        9.014101   -0.112756   -0.163121
     53          6           0       10.265383   -0.497898   -0.895751
     54          6           0       10.081782   -1.891005   -1.439138
     55          6           0       11.485030   -0.296560   -0.049846
     56          6           0       12.850866   -0.406896   -0.743377
     57          6           0       13.982371   -0.082541    0.144806
     58          6           0       15.371248   -0.224817   -0.479922
     59          6           0       15.675957   -1.630550   -0.838337
     60          6           0       16.494161    0.322426    0.560478
     61          6           0       17.796709    0.495868   -0.140655
     62          6           0       18.798551    1.367961    0.705643
     63          6           0       20.319250    1.331791    0.353680
     64          6           0       20.472918    2.016418   -1.038734
     65          6           0       21.186679    2.036186    1.420292
     66          1           0       -4.063951    3.446745    1.283826
     67          1           0      -10.139675    4.089763   -0.654456
     68          1           0      -10.244465   -2.338264   -1.169052
     69          1           0       -2.604299   -1.041633    2.057348
     70          1           0       -2.167579    1.588640    1.365575
     71          1           0       -2.126643    0.761016    3.589938
     72          1           0       -3.141101    2.339894    3.408723
     73          1           0       -3.967770    0.994376    3.696959
     74          1           0       -2.090645   -1.562092   -0.320872
     75          1           0       -2.279546    0.042146   -0.826301
     76          1           0       -0.328105    0.595022    0.787458
     77          1           0       -0.285851   -0.900927    1.445905
     78          1           0       -5.894396    6.863998    0.757672
     79          1           0       -5.360781    5.949401    2.120180
     80          1           0       -4.460006    5.653350    0.512658
     81          1           0       -9.262640    5.780115   -0.677013
     82          1           0       -9.219086    7.792893    0.583355
     83          1           0       -7.814754    7.337701    1.463486
     84          1           0      -12.105481    3.114867   -2.097831
     85          1           0      -13.225051    2.001833   -1.456337
     86          1           0      -12.193284    3.236068   -0.602600
     87          1           0      -12.437221   -1.630312   -1.135703
     88          1           0      -13.277819   -0.221689   -1.436228
     89          1           0      -13.105890   -1.855954   -3.380083
     90          1           0      -12.556140   -0.535941   -3.986562
     91          1           0      -11.444956   -1.584454   -3.498865
     92          1           0       -8.984460   -5.312901   -1.850325
     93          1           0       -7.906634   -5.602408   -0.482882
     94          1           0       -9.562491   -4.726481   -0.170515
     95          1           0       -3.392854   -3.587142   -0.333960
     96          1           0       -1.482749   -4.357472    3.204545
     97          1           0       -2.886778   -5.569954    3.823791
     98          1           0       -1.752508   -6.095943    2.609220
     99          1           0        2.658894   -1.770375   -1.458384
    100          1           0        2.442372   -0.161516   -2.113685
    101          1           0        4.409032   -1.059232    0.198069
    102          1           0        3.950642    1.153408   -2.818197
    103          1           0        5.442352    2.203941   -2.082512
    104          1           0        5.699403    0.782624   -3.169797
    105          1           0        6.844112    1.200793    0.115283
    106          1           0        6.271093   -0.210667    0.723775
    107          1           0        7.599046   -1.166905   -1.319638
    108          1           0        7.769365    0.241331   -2.007013
    109          1           0        9.085312    0.853432    0.221095
    110          1           0        8.741241   -0.981510    0.552911
    111          1           0       10.331219    0.169998   -1.711058
    112          1           0        9.284952   -2.083630   -2.095854
    113          1           0       11.028778   -2.600345   -1.847567
    114          1           0        9.694514   -2.451812   -0.508289
    115          1           0       11.208515    0.740233    0.503468
    116          1           0       11.478148   -0.873108    0.824821
    117          1           0       13.234322   -1.193402   -1.032128
    118          1           0       12.907352    0.296601   -1.599074
    119          1           0       13.697223    0.955400    0.603022
    120          1           0       13.784480   -0.905034    0.857117
    121          1           0       15.170313    0.429180   -1.317850
    122          1           0       15.795243   -2.389238   -0.137275
    123          1           0       15.019402   -2.059967   -1.549654
    124          1           0       16.706100   -1.766735   -1.374732
    125          1           0       16.210714    1.241180    0.957357
    126          1           0       16.553587   -0.257049    1.509782
    127          1           0       18.183311   -0.503563   -0.302083
    128          1           0       17.796497    0.945826   -1.025987
    129          1           0       18.423396    2.409747    0.444041
    130          1           0       18.844949    0.939799    1.780499
    131          1           0       20.715869    0.320757    0.103136
    132          1           0       20.095011    3.124356   -0.958028
    133          1           0       21.501854    2.170422   -1.253129
    134          1           0       19.950617    1.287538   -1.810627
    135          1           0       21.274947    1.490893    2.382754
    136          1           0       22.248613    2.244238    1.191763
    137          1           0       20.909372    3.055853    1.858459
 ---------------------------------------------------------------------

 SCF Done:  E(RCAM-B3LYP) =  -2932.66900647     A.U. after   17 cycles

 Excitation energies and oscillator strengths:

 Excited State   1:      Singlet-A      2.1727 eV  570.65 nm  f=0.1924  <S**2>=0.000
     240 -> 242       -0.13468
     240 -> 243        0.27378
     241 -> 242        0.62311
 This state for optimization and/or second-order correction.
 Total Energy, E(TD-HF/TD-KS) =  -2932.58916113
 Copying the excited state density for this state as the 1-particle RhoCI density.

 The electronic state is 1-A.
 Alpha  occ. eigenvalues --  -46.83539 -19.27350 -19.26418 -19.21582 -19.20013
 Alpha  occ. eigenvalues --  -19.19144 -14.41670 -14.39415 -14.39186 -14.38478
 Alpha  occ. eigenvalues --  -10.39769 -10.37938 -10.34967 -10.32080 -10.31744
 Alpha  occ. eigenvalues --  -10.31223 -10.30980 -10.30612 -10.29544 -10.29092
 Alpha  occ. eigenvalues --  -10.28942 -10.28349 -10.28182 -10.28006 -10.27875
 Alpha  occ. eigenvalues --  -10.27872 -10.27650 -10.27452 -10.27281 -10.27170
 Alpha  occ. eigenvalues --  -10.27020 -10.27014 -10.26936 -10.26899 -10.26846
 Alpha  occ. eigenvalues --  -10.26763 -10.26681 -10.26528 -10.26502 -10.26336
 Alpha  occ. eigenvalues --  -10.26255 -10.26235 -10.26204 -10.25907 -10.25862
 Alpha  occ. eigenvalues --  -10.25789 -10.25649 -10.25579 -10.25568 -10.25498
 Alpha  occ. eigenvalues --  -10.25488 -10.25332 -10.25205 -10.25146 -10.25067
 Alpha  occ. eigenvalues --  -10.24669 -10.24588 -10.24533 -10.24460 -10.24442
 Alpha  occ. eigenvalues --  -10.24299 -10.24141 -10.23971 -10.23343 -10.22734
 Alpha  occ. eigenvalues --   -3.12679  -1.87379  -1.86917  -1.86870  -1.21770
 Alpha  occ. eigenvalues --   -1.19209  -1.11469  -1.09747  -1.08303  -1.04875
 Alpha  occ. eigenvalues --   -1.03571  -1.02110  -1.00950  -0.92378  -0.92150
 Alpha  occ. eigenvalues --   -0.90869  -0.90552  -0.90195  -0.89804  -0.89639
 Alpha  occ. eigenvalues --   -0.89077  -0.88364  -0.87640  -0.86988  -0.86441
 Alpha  occ. eigenvalues --   -0.85544  -0.85310  -0.84114  -0.83534  -0.83098
 Alpha  occ. eigenvalues --   -0.82059  -0.81715  -0.80941  -0.80025  -0.78716
 Alpha  occ. eigenvalues --   -0.77818  -0.77754  -0.75966  -0.75908  -0.75553
 Alpha  occ. eigenvalues --   -0.75251  -0.75033  -0.74413  -0.73724  -0.72864
 Alpha  occ. eigenvalues --   -0.72077  -0.70860  -0.70730  -0.69819  -0.69179
 Alpha  occ. eigenvalues --   -0.68206  -0.67957  -0.66241  -0.66115  -0.65406
 Alpha  occ. eigenvalues --   -0.64419  -0.64346  -0.63333  -0.63014  -0.61938
 Alpha  occ. eigenvalues --   -0.61650  -0.61497  -0.61307  -0.60557  -0.59498
 Alpha  occ. eigenvalues --   -0.59164  -0.58925  -0.58203  -0.57829  -0.57246
 Alpha  occ. eigenvalues --   -0.56301  -0.56151  -0.56019  -0.55412  -0.55104
 Alpha  occ. eigenvalues --   -0.55071  -0.54544  -0.54042  -0.53740  -0.53723
 Alpha  occ. eigenvalues --   -0.53224  -0.53028  -0.52937  -0.52455  -0.52175
 Alpha  occ. eigenvalues --   -0.51792  -0.51387  -0.51106  -0.51003  -0.50699
 Alpha  occ. eigenvalues --   -0.50545  -0.50323  -0.50279  -0.50129  -0.49900
 Alpha  occ. eigenvalues --   -0.49614  -0.49346  -0.49212  -0.49103  -0.48716
 Alpha  occ. eigenvalues --   -0.47948  -0.47827  -0.47675  -0.47644  -0.47622
 Alpha  occ. eigenvalues --   -0.47171  -0.47043  -0.46859  -0.46551  -0.46496
 Alpha  occ. eigenvalues --   -0.46054  -0.46006  -0.45636  -0.45411  -0.45320
 Alpha  occ. eigenvalues --   -0.44948  -0.44570  -0.44274  -0.43933  -0.43853
 Alpha  occ. eigenvalues --   -0.43520  -0.43459  -0.43402  -0.43164  -0.42941
 Alpha  occ. eigenvalues --   -0.42689  -0.42480  -0.42411  -0.42224  -0.41822
 Alpha  occ. eigenvalues --   -0.41626  -0.41522  -0.41502  -0.41330  -0.41053
 Alpha  occ. eigenvalues --   -0.40981  -0.40830  -0.40671  -0.40617  -0.40592
 Alpha  occ. eigenvalues --   -0.40198  -0.39979  -0.39760  -0.39522  -0.39400
 Alpha  occ. eigenvalues --   -0.38885  -0.38717  -0.38707  -0.38450  -0.37897
 Alpha  occ. eigenvalues --   -0.37796  -0.37357  -0.37337  -0.37101  -0.36656
 Alpha  occ. eigenvalues --   -0.36629  -0.36495  -0.36474  -0.35953  -0.35878
 Alpha  occ. eigenvalues --   -0.35546  -0.35482  -0.35361  -0.34581  -0.33496
 Alpha  occ. eigenvalues --   -0.33391  -0.32803  -0.32065  -0.30804  -0.29535
 Alpha  occ. eigenvalues --   -0.29235  -0.28757  -0.27862  -0.27190  -0.23277
 Alpha  occ. eigenvalues --   -0.21441
 Alpha virt. eigenvalues --   -0.05977  -0.03546   0.01126   0.03599   0.05187
 Alpha virt. eigenvalues --    0.06065   0.06423   0.06544   0.07455   0.07588
 Alpha virt. eigenvalues --    0.08469   0.11025   0.11423   0.11643   0.12282

 Mulliken charges:
               1
     1  Mg   0.821163
     2  C    0.140823
     3  C   -0.174636
     4  C   -0.220737
     5  C   -0.124241
     6  N   -0.637882
     7  C    0.290714
     8  C   -0.142358
     9  C   -0.138543
    10  C    0.319628
    11  C   -0.307178
    12  C   -0.182923
    13  C   -0.278194
    14  C    0.612864
    15  O   -0.460178
    16  O   -0.421888
    17  N   -0.767799
    18  C    0.316403
    19  C    0.053600
    20  C    0.031609
    21  C    0.390764
    22  C   -0.397978
    23  C   -0.101462
    24  C   -0.223044
    25  N   -0.664415
    26  C    0.251980
    27  C    0.047626
    28  C   -0.006729
    29  C    0.247090
    30  C   -0.349885
    31  C   -0.227772
    32  C   -0.330210
    33  N   -0.692756
    34  C    0.284982
    35  C   -0.010204
    36  C    0.054776
    37  C    0.213314
    38  C   -0.359387
    39  C    0.368674
    40  O   -0.465539
    41  C   -0.352377
    42  C    0.612534
    43  O   -0.495387
    44  O   -0.428940
    45  C   -0.079762
    46  C    0.005671
    47  C   -0.139907
    48  C    0.158157
    49  C   -0.361219
    50  C   -0.239620
    51  C   -0.202178
    52  C   -0.192658
    53  C   -0.037684
    54  C   -0.312019
    55  C   -0.166528
    56  C   -0.145793
    57  C   -0.189613
    58  C   -0.055593
    59  C   -0.333328
    60  C   -0.176303
    61  C   -0.175739
    62  C   -0.170891
    63  C   -0.051801
    64  C   -0.304647
    65  C   -0.327578
    66  H    0.060528
    67  H    0.072932
    68  H    0.081747
    69  H    0.125790
    70  H    0.104571
    71  H    0.103402
    72  H    0.096391
    73  H    0.132008
    74  H    0.117077
    75  H    0.103717
    76  H    0.140041
    77  H    0.131376
    78  H    0.118416
    79  H    0.131357
    80  H    0.121907
    81  H    0.090150
    82  H    0.100226
    83  H    0.097406
    84  H    0.126343
    85  H    0.117567
    86  H    0.117354
    87  H    0.125146
    88  H    0.106300
    89  H    0.085689
    90  H    0.115034
    91  H    0.118260
    92  H    0.088745
    93  H    0.154121
    94  H    0.109210
    95  H    0.130812
    96  H    0.132453
    97  H    0.126100
    98  H    0.138732
    99  H    0.113821
   100  H    0.115600
   101  H    0.085293
   102  H    0.106879
   103  H    0.103725
   104  H    0.104543
   105  H    0.113749
   106  H    0.076493
   107  H    0.110833
   108  H    0.094599
   109  H    0.096380
   110  H    0.090266
   111  H    0.093680
   112  H    0.117620
   113  H    0.076016
   114  H    0.081129
   115  H    0.060347
   116  H    0.095947
   117  H    0.096757
   118  H    0.070794
   119  H    0.071569
   120  H    0.078478
   121  H    0.092931
   122  H    0.119952
   123  H    0.110764
   124  H    0.086825
   125  H    0.095096
   126  H    0.091650
   127  H    0.089677
   128  H    0.105366
   129  H    0.092256
   130  H    0.079807
   131  H    0.090785
   132  H    0.083286
   133  H    0.104738
   134  H    0.091405
   135  H    0.098250
   136  H    0.099424
   137  H    0.095495
 Sum of Mulliken charges =   0.00000

 Dipole moment (field-independent basis, Debye):
    X=              1.9126    Y=              5.1704    Z=              0.4767  Tot=              5.5334
 Quadrupole moment (field-independent basis, Debye-Ang):
   XX=           -337.5262   YY=           -389.9541   ZZ=           -396.6879
   XY=            -36.3948   XZ=             12.4964   YZ=             -1.5608

 Normal termination of Gaussian 09 at Thu Jul  4 11:03:27 2019.
