 Gaussian 16, Revision A.03,
 Gaussian 16:  ES64L-G16RevA.03 25-Dec-2016

 ----------------------------------------------------------------------
 # td=(NStates=1) iop(3/107=0140000000,3/108=0140000000) CAM-B3LYP/6-31
 G(d,p)
 ----------------------------------------------------------------------

 --
 TD
 --
 Symbolic Z-matrix:
 Charge =  0 Multiplicity = 1

                         Standard orientation:
 ---------------------------------------------------------------------
 Center     Atomic      Atomic             Coordinates (Angstroms)
 Number     Number       Type             X           Y           Z
 ---------------------------------------------------------------------
      1         12           0       -7.144556    0.530471    0.134741
      2          6           0       -4.908442   -2.032808    0.394723
      3          6           0       -4.734629    2.815725    1.159650
      4          6           0       -9.374846    3.221773   -0.416893
      5          6           0       -9.567596   -1.713627   -0.974313
      6          7           0       -5.080959    0.405178    0.691739
      7          6           0       -4.335177   -0.714312    0.620865
      8          6           0       -2.918102   -0.460228    1.149746
      9          6           0       -3.024190    0.996211    1.666691
     10          6           0       -4.376558    1.487901    1.105127
     11          6           0       -3.010488    1.196432    3.202969
     12          6           0       -1.849708   -0.673040    0.060562
     13          6           0       -0.489942   -0.479960    0.566682
     14          6           0        0.552641   -0.712423   -0.507271
     15          8           0        0.321972   -1.167827   -1.562211
     16          8           0        1.777205   -0.455537   -0.148084
     17          7           0       -7.150870    2.625639    0.370825
     18          6           0       -5.953462    3.401244    0.829675
     19          6           0       -6.328296    4.775688    0.731018
     20          6           0       -7.677546    4.825505    0.273228
     21          6           0       -8.076016    3.536620    0.014485
     22          6           0       -5.373303    5.901973    1.114990
     23          6           0       -8.392349    6.057950    0.073772
     24          6           0       -8.375530    7.266358    0.693419
     25          7           0       -9.230428    0.693092   -0.460229
     26          6           0       -9.827986    1.890606   -0.659511
     27          6           0      -11.266586    1.548954   -1.140187
     28          6           0      -11.409539    0.193593   -1.193008
     29          6           0       -9.923085   -0.346994   -0.867229
     30          6           0      -12.306459    2.653315   -1.233210
     31          6           0      -12.431021   -0.572950   -1.678956
     32          6           0      -12.361564   -0.985131   -3.171438
     33          7           0       -7.311773   -1.406243   -0.232401
     34          6           0       -8.323018   -2.267563   -0.608647
     35          6           0       -7.815171   -3.704320   -0.594717
     36          6           0       -6.569465   -3.585836   -0.126274
     37          6           0       -6.352669   -2.227718    0.014599
     38          6           0       -8.720458   -4.805151   -0.830361
     39          6           0       -5.326843   -4.482678    0.115171
     40          8           0       -5.244091   -5.669213    0.028537
     41          6           0       -4.243638   -3.386748    0.473206
     42          6           0       -3.747360   -3.712867    1.919629
     43          8           0       -3.865307   -3.027355    2.948411
     44          8           0       -2.952487   -4.770551    1.896866
     45          6           0       -2.466464   -5.073391    3.122136
     46          6           0        2.841982   -0.854305   -1.129337
     47          6           0        4.144545   -0.599373   -0.509011
     48          6           0        5.046931    0.204278   -0.890893
     49          6           0        5.092724    1.190406   -2.090018
     50          6           0        6.387834    0.331355   -0.204336
     51          6           0        7.573430   -0.192221   -1.030985
     52          6           0        8.939592   -0.076729   -0.152818
     53          6           0       10.232116   -0.462899   -0.803753
     54          6           0       10.152867   -1.892088   -1.291720
     55          6           0       11.544259   -0.288545    0.067927
     56          6           0       12.881233   -0.479459   -0.691025
     57          6           0       14.031919   -0.139302    0.223139
     58          6           0       15.400813   -0.286625   -0.482064
     59          6           0       15.756450   -1.724262   -0.962461
     60          6           0       16.612073    0.283010    0.299171
     61          6           0       17.956720    0.593108   -0.391308
     62          6           0       18.786316    1.318673    0.739728
     63          6           0       20.349946    1.387039    0.330074
     64          6           0       20.518107    2.109409   -1.046410
     65          6           0       21.243192    1.999562    1.414123
     66          1           0       -3.932646    3.726667    1.635159
     67          1           0      -10.249952    3.967012   -0.282878
     68          1           0      -10.323088   -2.112898   -1.464085
     69          1           0       -2.654976   -1.121213    2.103484
     70          1           0       -2.048772    1.566034    1.361804
     71          1           0       -1.875867    1.101102    3.461657
     72          1           0       -3.193987    2.281216    3.565335
     73          1           0       -3.563920    0.437482    3.705924
     74          1           0       -2.208731   -1.614103   -0.510381
     75          1           0       -2.074052   -0.036123   -0.823916
     76          1           0       -0.532598    0.561669    1.158126
     77          1           0       -0.210090   -0.982858    1.482711
     78          1           0       -5.741069    6.718815    0.629380
     79          1           0       -5.460215    6.231657    2.104029
     80          1           0       -4.363151    5.741268    0.773935
     81          1           0       -9.409554    5.729388   -0.694579
     82          1           0       -8.837178    8.124443    0.147328
     83          1           0       -7.519877    7.731831    1.383344
     84          1           0      -11.955656    3.570622   -1.657466
     85          1           0      -13.365349    2.474075   -1.747595
     86          1           0      -12.529567    3.073151   -0.143767
     87          1           0      -12.259754   -1.698297   -1.144731
     88          1           0      -13.429230   -0.241896   -1.594783
     89          1           0      -13.195168   -1.527771   -3.488947
     90          1           0      -12.350931   -0.101704   -3.859414
     91          1           0      -11.458902   -1.609208   -3.380335
     92          1           0       -9.086382   -4.833077   -1.875799
     93          1           0       -8.176466   -5.720872   -0.725090
     94          1           0       -9.628043   -4.695133   -0.165706
     95          1           0       -3.542013   -3.646753   -0.252818
     96          1           0       -1.725001   -4.161070    3.353116
     97          1           0       -3.097124   -5.373372    3.794119
     98          1           0       -1.648026   -5.911763    3.009770
     99          1           0        2.629019   -1.888093   -1.541215
    100          1           0        2.524114   -0.267158   -2.127990
    101          1           0        4.305914   -1.070286    0.604381
    102          1           0        4.225064    1.122486   -2.767217
    103          1           0        5.211823    2.293847   -1.907012
    104          1           0        5.894826    0.774180   -3.004299
    105          1           0        6.635133    1.436233    0.090887
    106          1           0        6.422517   -0.246207    0.714101
    107          1           0        7.477698   -1.310423   -1.316585
    108          1           0        7.612624    0.397264   -1.986764
    109          1           0        9.032985    0.975088    0.142484
    110          1           0        8.868617   -0.648867    0.992507
    111          1           0       10.276357    0.048814   -1.850317
    112          1           0        9.338623   -2.407631   -1.860225
    113          1           0       10.984922   -1.978443   -1.956588
    114          1           0        9.974591   -2.499151   -0.358553
    115          1           0       11.512210    0.714167    0.373039
    116          1           0       11.320279   -1.099632    0.924685
    117          1           0       12.907083   -1.479129   -1.174534
    118          1           0       12.893786    0.264840   -1.676670
    119          1           0       13.906397    0.922169    0.446020
    120          1           0       14.072848   -0.527264    1.169357
    121          1           0       15.265262    0.281023   -1.557204
    122          1           0       15.830472   -2.470787   -0.163447
    123          1           0       14.913939   -2.021307   -1.645115
    124          1           0       16.776527   -1.658239   -1.547116
    125          1           0       16.069568    1.371347    0.681152
    126          1           0       16.627579   -0.260274    1.162231
    127          1           0       18.555837   -0.323632   -0.616159
    128          1           0       17.793087    1.320088   -1.335854
    129          1           0       18.375103    2.248641    1.125120
    130          1           0       18.887780    0.919908    1.594031
    131          1           0       20.661578    0.463039   -0.060358
    132          1           0       20.089499    3.100811   -0.959414
    133          1           0       21.608429    2.276772   -1.095628
    134          1           0       20.026205    1.683412   -1.938789
    135          1           0       20.875724    1.502484    2.189007
    136          1           0       22.178618    1.919488    1.301728
    137          1           0       20.810137    3.087839    1.374706
 ---------------------------------------------------------------------

 SCF Done:  E(RCAM-B3LYP) =  -2933.40281474     A.U. after   16 cycles

 Excitation energies and oscillator strengths:

 Excited State   1:      Singlet-A      1.9160 eV  647.11 nm  f=0.2683  <S**2>=0.000
     240 -> 243        0.22311
     241 -> 242        0.66910
 This state for optimization and/or second-order correction.
 Total Energy, E(TD-HF/TD-DFT) =  -2933.33240456
 Copying the excited state density for this state as the 1-particle RhoCI density.

 The electronic state is 1-A.
 Alpha  occ. eigenvalues --  -46.81436 -19.23452 -19.21487 -19.18815 -19.17248
 Alpha  occ. eigenvalues --  -19.15698 -14.38333 -14.36400 -14.35686 -14.34671
 Alpha  occ. eigenvalues --  -10.35587 -10.33498 -10.32637 -10.28938 -10.27071
 Alpha  occ. eigenvalues --  -10.27046 -10.26259 -10.25950 -10.25523 -10.25466
 Alpha  occ. eigenvalues --  -10.25175 -10.25155 -10.24705 -10.24296 -10.24217
 Alpha  occ. eigenvalues --  -10.23892 -10.23861 -10.23850 -10.23801 -10.23775
 Alpha  occ. eigenvalues --  -10.23564 -10.23545 -10.23382 -10.23234 -10.23163
 Alpha  occ. eigenvalues --  -10.23002 -10.22807 -10.22796 -10.22701 -10.22688
 Alpha  occ. eigenvalues --  -10.22509 -10.22454 -10.22368 -10.22312 -10.22288
 Alpha  occ. eigenvalues --  -10.22275 -10.22149 -10.22098 -10.22076 -10.22050
 Alpha  occ. eigenvalues --  -10.22010 -10.21776 -10.21572 -10.21570 -10.21272
 Alpha  occ. eigenvalues --  -10.21200 -10.20791 -10.20764 -10.20736 -10.20276
 Alpha  occ. eigenvalues --  -10.19895 -10.19728 -10.19419 -10.19096 -10.18539
 Alpha  occ. eigenvalues --   -3.09791  -1.84748  -1.84237  -1.84207  -1.16604
 Alpha  occ. eigenvalues --   -1.14719  -1.09432  -1.04768  -1.04280  -1.01723
 Alpha  occ. eigenvalues --   -0.99257  -0.98100  -0.95969  -0.87545  -0.86631
 Alpha  occ. eigenvalues --   -0.85200  -0.85064  -0.84553  -0.84101  -0.84070
 Alpha  occ. eigenvalues --   -0.83158  -0.82939  -0.82591  -0.82080  -0.80796
 Alpha  occ. eigenvalues --   -0.80093  -0.79351  -0.78731  -0.78172  -0.77512
 Alpha  occ. eigenvalues --   -0.76531  -0.76116  -0.75576  -0.74847  -0.73679
 Alpha  occ. eigenvalues --   -0.73166  -0.72471  -0.71839  -0.71725  -0.70819
 Alpha  occ. eigenvalues --   -0.70456  -0.70369  -0.69918  -0.69187  -0.67927
 Alpha  occ. eigenvalues --   -0.66799  -0.65811  -0.65308  -0.64656  -0.64021
 Alpha  occ. eigenvalues --   -0.62659  -0.62185  -0.61058  -0.60659  -0.60498
 Alpha  occ. eigenvalues --   -0.59604  -0.59490  -0.59151  -0.58701  -0.57713
 Alpha  occ. eigenvalues --   -0.57167  -0.56679  -0.55945  -0.55752  -0.55706
 Alpha  occ. eigenvalues --   -0.54942  -0.54751  -0.54584  -0.53598  -0.52883
 Alpha  occ. eigenvalues --   -0.52324  -0.51793  -0.51641  -0.51155  -0.50926
 Alpha  occ. eigenvalues --   -0.50518  -0.50282  -0.49666  -0.49622  -0.49426
 Alpha  occ. eigenvalues --   -0.49182  -0.48868  -0.48757  -0.48463  -0.48289
 Alpha  occ. eigenvalues --   -0.47794  -0.47617  -0.47471  -0.46993  -0.46746
 Alpha  occ. eigenvalues --   -0.46675  -0.46424  -0.46245  -0.46172  -0.46073
 Alpha  occ. eigenvalues --   -0.45752  -0.45608  -0.45322  -0.45216  -0.44755
 Alpha  occ. eigenvalues --   -0.44666  -0.44559  -0.44342  -0.43932  -0.43775
 Alpha  occ. eigenvalues --   -0.43630  -0.43486  -0.42955  -0.42575  -0.42437
 Alpha  occ. eigenvalues --   -0.42385  -0.42225  -0.41998  -0.41867  -0.41787
 Alpha  occ. eigenvalues --   -0.41611  -0.41320  -0.41100  -0.40982  -0.40569
 Alpha  occ. eigenvalues --   -0.40547  -0.40245  -0.40218  -0.40075  -0.40004
 Alpha  occ. eigenvalues --   -0.39831  -0.39738  -0.39516  -0.39472  -0.39268
 Alpha  occ. eigenvalues --   -0.38801  -0.38499  -0.38111  -0.37925  -0.37762
 Alpha  occ. eigenvalues --   -0.37321  -0.37184  -0.37124  -0.37051  -0.36895
 Alpha  occ. eigenvalues --   -0.36585  -0.36441  -0.36397  -0.35906  -0.35799
 Alpha  occ. eigenvalues --   -0.35340  -0.35058  -0.34908  -0.34299  -0.34044
 Alpha  occ. eigenvalues --   -0.34002  -0.33813  -0.33569  -0.33487  -0.33285
 Alpha  occ. eigenvalues --   -0.33190  -0.32754  -0.32456  -0.32367  -0.32036
 Alpha  occ. eigenvalues --   -0.31948  -0.31714  -0.31190  -0.31004  -0.30503
 Alpha  occ. eigenvalues --   -0.30315  -0.30058  -0.29459  -0.28726  -0.28623
 Alpha  occ. eigenvalues --   -0.28163  -0.27747  -0.25355  -0.23828  -0.21628
 Alpha  occ. eigenvalues --   -0.19589
 Alpha virt. eigenvalues --   -0.07373  -0.03750  -0.00606   0.01805   0.03041
 Alpha virt. eigenvalues --    0.03854   0.03898   0.04731   0.04895   0.05385
 Alpha virt. eigenvalues --    0.06059   0.07924   0.08601   0.09231   0.09267

 Mulliken charges:
               1
     1  Mg   0.824287
     2  C    0.038770
     3  C   -0.185085
     4  C   -0.180551
     5  C   -0.145752
     6  N   -0.637961
     7  C    0.290176
     8  C   -0.157686
     9  C   -0.142884
    10  C    0.342780
    11  C   -0.302688
    12  C   -0.161520
    13  C   -0.276111
    14  C    0.617287
    15  O   -0.463198
    16  O   -0.467138
    17  N   -0.720870
    18  C    0.275023
    19  C    0.001310
    20  C    0.029173
    21  C    0.366768
    22  C   -0.377034
    23  C   -0.067420
    24  C   -0.272657
    25  N   -0.667399
    26  C    0.285257
    27  C    0.024818
    28  C    0.086209
    29  C    0.273079
    30  C   -0.390220
    31  C   -0.274267
    32  C   -0.309808
    33  N   -0.716953
    34  C    0.245551
    35  C    0.017316
    36  C    0.010008
    37  C    0.360104
    38  C   -0.391852
    39  C    0.383178
    40  O   -0.417601
    41  C   -0.325558
    42  C    0.612467
    43  O   -0.484403
    44  O   -0.382652
    45  C   -0.070889
    46  C   -0.012368
    47  C   -0.142571
    48  C    0.185167
    49  C   -0.363279
    50  C   -0.218233
    51  C   -0.171818
    52  C   -0.152484
    53  C   -0.076436
    54  C   -0.298306
    55  C   -0.151935
    56  C   -0.180315
    57  C   -0.162088
    58  C   -0.058577
    59  C   -0.305958
    60  C   -0.150578
    61  C   -0.174398
    62  C   -0.163241
    63  C   -0.099547
    64  C   -0.315699
    65  C   -0.289520
    66  H    0.075905
    67  H    0.107973
    68  H    0.052534
    69  H    0.116345
    70  H    0.089076
    71  H    0.079988
    72  H    0.107791
    73  H    0.138294
    74  H    0.106933
    75  H    0.117647
    76  H    0.111440
    77  H    0.138493
    78  H    0.124775
    79  H    0.131658
    80  H    0.115036
    81  H    0.048337
    82  H    0.104534
    83  H    0.085121
    84  H    0.128456
    85  H    0.098614
    86  H    0.108969
    87  H    0.066654
    88  H    0.111872
    89  H    0.113489
    90  H    0.103644
    91  H    0.103380
    92  H    0.124771
    93  H    0.141291
    94  H    0.132126
    95  H    0.171681
    96  H    0.097888
    97  H    0.139779
    98  H    0.098023
    99  H    0.137870
   100  H    0.117672
   101  H    0.086637
   102  H    0.109551
   103  H    0.130187
   104  H    0.086006
   105  H    0.089193
   106  H    0.095115
   107  H    0.093783
   108  H    0.098667
   109  H    0.088099
   110  H    0.042623
   111  H    0.068055
   112  H    0.093095
   113  H    0.102857
   114  H    0.083788
   115  H    0.102000
   116  H    0.079932
   117  H    0.104846
   118  H    0.070049
   119  H    0.095956
   120  H    0.101708
   121  H    0.046281
   122  H    0.097496
   123  H    0.095729
   124  H    0.089862
   125  H    0.039676
   126  H    0.104182
   127  H    0.103820
   128  H    0.094946
   129  H    0.086632
   130  H    0.100799
   131  H    0.090892
   132  H    0.091995
   133  H    0.089052
   134  H    0.097955
   135  H    0.109789
   136  H    0.109866
   137  H    0.089598
 Sum of Mulliken charges =  -0.00000

 Dipole moment (field-independent basis, Debye):
    X=              2.4811    Y=              1.1414    Z=              0.3479  Tot=              2.7531
 Quadrupole moment (field-independent basis, Debye-Ang):
   XX=           -360.9598   YY=           -399.6781   ZZ=           -396.8076
   XY=             -1.9769   XZ=             20.8379   YZ=             -2.7104

 Normal termination of Gaussian 16 at Tue Sep 17 12:14:54 2019.
