 Gaussian 09, Revision D.01,
 Gaussian 09:  ES64L-G09RevD.01 24-Apr-2013

 -------------------------------------
 # td=(NStates=1) CAM-B3LYP/6-31G(d,p)
 -------------------------------------

 --
 TD
 --
 Symbolic Z-matrix:
 Charge =  0 Multiplicity = 1

                         Standard orientation:
 ---------------------------------------------------------------------
 Center     Atomic      Atomic             Coordinates (Angstroms)
 Number     Number       Type             X           Y           Z
 ---------------------------------------------------------------------
      1         12           0       -7.210994    0.614406    0.117431
      2          6           0       -4.930131   -1.957325    0.517346
      3          6           0       -4.811798    2.806697    0.968321
      4          6           0       -9.373808    3.145503   -0.291649
      5          6           0       -9.585651   -1.788526   -0.751713
      6          7           0       -5.170092    0.466167    0.639491
      7          6           0       -4.380795   -0.673914    0.767700
      8          6           0       -2.967119   -0.411930    1.109601
      9          6           0       -3.015585    1.064253    1.334994
     10          6           0       -4.470983    1.568408    0.945016
     11          6           0       -2.726441    1.392271    2.965555
     12          6           0       -1.938755   -0.758616   -0.075226
     13          6           0       -0.489950   -0.684641    0.373029
     14          6           0        0.528934   -0.677812   -0.725811
     15          8           0        0.259176   -1.091138   -1.735053
     16          8           0        1.856859   -0.423832   -0.259528
     17          7           0       -7.205846    2.687779    0.246276
     18          6           0       -6.095901    3.347458    0.670150
     19          6           0       -6.408577    4.721639    0.691610
     20          6           0       -7.828850    4.875067    0.461630
     21          6           0       -8.232624    3.456454    0.190048
     22          6           0       -5.459887    5.929676    1.005524
     23          6           0       -8.632420    5.988773    0.313407
     24          6           0       -8.361196    7.156496    0.852183
     25          7           0       -9.129953    0.624094   -0.543544
     26          6           0       -9.946837    1.784515   -0.615255
     27          6           0      -11.248252    1.508137   -1.078349
     28          6           0      -11.323339    0.087538   -1.146251
     29          6           0       -9.983036   -0.427185   -0.816639
     30          6           0      -12.297673    2.501405   -1.398964
     31          6           0      -12.381057   -0.792496   -1.613725
     32          6           0      -12.224671   -1.192196   -3.168686
     33          7           0       -7.382622   -1.454878   -0.019156
     34          6           0       -8.316239   -2.288838   -0.469292
     35          6           0       -7.925172   -3.635164   -0.406388
     36          6           0       -6.530904   -3.551786   -0.071373
     37          6           0       -6.249555   -2.240517    0.134357
     38          6           0       -8.660669   -4.894840   -0.718028
     39          6           0       -5.342447   -4.232284    0.233685
     40          8           0       -5.258841   -5.473264    0.128756
     41          6           0       -4.186612   -3.271698    0.577775
     42          6           0       -3.577883   -3.587750    1.799642
     43          8           0       -3.797526   -3.113459    2.932926
     44          8           0       -2.721227   -4.684896    1.694195
     45          6           0       -2.270439   -5.119740    2.997500
     46          6           0        2.912692   -0.579274   -1.252631
     47          6           0        4.211836   -0.342016   -0.490970
     48          6           0        5.225319    0.374116   -0.876286
     49          6           0        5.242352    1.364438   -2.139303
     50          6           0        6.528623    0.497907   -0.059657
     51          6           0        7.651852   -0.167318   -0.870109
     52          6           0        9.053194   -0.141719   -0.019314
     53          6           0       10.185641   -0.491082   -0.877046
     54          6           0       10.088597   -1.966240   -1.400602
     55          6           0       11.479253   -0.370720    0.034094
     56          6           0       12.801110   -0.407074   -0.713993
     57          6           0       13.966274   -0.120372    0.173544
     58          6           0       15.355666   -0.246381   -0.493457
     59          6           0       15.695768   -1.752420   -0.780067
     60          6           0       16.447228    0.459155    0.409059
     61          6           0       17.871763    0.546230   -0.141619
     62          6           0       18.784147    1.248633    0.782729
     63          6           0       20.200104    1.272995    0.278471
     64          6           0       20.432005    2.149396   -0.991693
     65          6           0       21.208721    1.824257    1.289733
     66          1           0       -3.987316    3.568125    1.112787
     67          1           0      -10.288419    3.852044   -0.461240
     68          1           0      -10.539006   -2.431612   -0.842019
     69          1           0       -2.602781   -1.017097    2.031989
     70          1           0       -2.276937    1.570445    0.601192
     71          1           0       -1.664811    0.936042    3.062758
     72          1           0       -2.702377    2.538905    3.130002
     73          1           0       -3.662143    0.858739    3.512504
     74          1           0       -2.270366   -1.766820   -0.524885
     75          1           0       -2.298413   -0.220752   -0.926840
     76          1           0       -0.231156    0.220723    0.982434
     77          1           0       -0.376728   -1.496298    1.066495
     78          1           0       -5.685519    6.760683    0.335433
     79          1           0       -5.375487    6.342480    1.964544
     80          1           0       -4.475892    5.611368    0.684303
     81          1           0       -9.679780    6.033648   -0.263103
     82          1           0       -9.104237    7.864655    0.669460
     83          1           0       -7.623467    7.321666    1.709795
     84          1           0      -12.159180    2.847001   -2.537563
     85          1           0      -13.232715    2.217720   -1.380174
     86          1           0      -12.109905    3.498438   -0.822089
     87          1           0      -12.138055   -1.653680   -0.877347
     88          1           0      -13.463374   -0.379161   -1.405727
     89          1           0      -13.293012   -1.728423   -3.142909
     90          1           0      -12.435934   -0.289336   -3.977262
     91          1           0      -11.317150   -1.796864   -3.503978
     92          1           0       -8.850415   -5.159718   -1.794830
     93          1           0       -8.094642   -5.760968   -0.359922
     94          1           0       -9.609844   -4.782981   -0.103432
     95          1           0       -3.553157   -3.443881   -0.309152
     96          1           0       -1.947057   -4.296893    3.523580
     97          1           0       -3.085315   -5.720882    3.472662
     98          1           0       -1.283721   -5.784548    2.752905
     99          1           0        2.923811   -1.539350   -1.543442
    100          1           0        2.599115    0.036264   -2.075483
    101          1           0        4.119291   -0.978389    0.411937
    102          1           0        4.298608    1.712375   -2.524480
    103          1           0        6.022741    2.229539   -1.992803
    104          1           0        5.851171    0.572233   -2.850028
    105          1           0        6.684967    1.568936    0.120298
    106          1           0        6.460351    0.009466    0.998128
    107          1           0        7.312082   -1.281384   -1.164361
    108          1           0        8.059947    0.379408   -1.746882
    109          1           0        9.058756    0.948987    0.486116
    110          1           0        8.984049   -0.692063    0.866228
    111          1           0       10.231507    0.215917   -1.566244
    112          1           0        9.234765   -2.172157   -2.030451
    113          1           0       11.229661   -2.135712   -1.861171
    114          1           0       10.137491   -2.919985   -0.797207
    115          1           0       11.300684    0.551766    0.470393
    116          1           0       11.504353   -1.092722    0.893570
    117          1           0       12.919679   -1.546015   -1.187069
    118          1           0       13.025021    0.170485   -1.602143
    119          1           0       13.962462    1.027240    0.558466
    120          1           0       14.110852   -0.717986    0.926089
    121          1           0       15.292151    0.217984   -1.509582
    122          1           0       16.023452   -2.416272    0.242479
    123          1           0       14.669650   -2.240147   -1.212095
    124          1           0       16.595108   -1.803084   -1.587639
    125          1           0       16.076458    1.480373    0.582853
    126          1           0       16.390032   -0.255540    1.385068
    127          1           0       18.369329   -0.399649   -0.459247
    128          1           0       17.970105    0.943146   -1.134422
    129          1           0       18.467239    2.408368    0.993791
    130          1           0       18.925120    0.836410    1.750580
    131          1           0       20.601729    0.344992   -0.247731
    132          1           0       20.159437    3.225487   -0.868661
    133          1           0       21.443460    2.214366   -1.340627
    134          1           0       19.953732    1.698097   -1.941567
    135          1           0       21.103988    1.213089    2.118016
    136          1           0       22.306509    1.847725    1.069034
    137          1           0       20.908495    2.885494    1.693244
 ---------------------------------------------------------------------

 SCF Done:  E(RCAM-B3LYP) =  -2932.63123232     A.U. after   17 cycles

 Excitation energies and oscillator strengths:

 Excited State   1:      Singlet-A      2.1028 eV  589.61 nm  f=0.3018  <S**2>=0.000
     240 -> 242       -0.17126
     240 -> 243        0.21054
     241 -> 242        0.63266
     241 -> 243        0.13280
 This state for optimization and/or second-order correction.
 Total Energy, E(TD-HF/TD-KS) =  -2932.55395578
 Copying the excited state density for this state as the 1-particle RhoCI density.

 The electronic state is 1-A.
 Alpha  occ. eigenvalues --  -46.84477 -19.25083 -19.24111 -19.22028 -19.20494
 Alpha  occ. eigenvalues --  -19.18814 -14.41264 -14.39448 -14.39313 -14.38352
 Alpha  occ. eigenvalues --  -10.38897 -10.38586 -10.34087 -10.30928 -10.30834
 Alpha  occ. eigenvalues --  -10.30654 -10.30012 -10.29879 -10.29816 -10.28889
 Alpha  occ. eigenvalues --  -10.28871 -10.28829 -10.28782 -10.28684 -10.28388
 Alpha  occ. eigenvalues --  -10.28356 -10.28261 -10.28163 -10.28159 -10.28070
 Alpha  occ. eigenvalues --  -10.28034 -10.27943 -10.27821 -10.27790 -10.27784
 Alpha  occ. eigenvalues --  -10.27712 -10.27676 -10.27651 -10.27349 -10.27347
 Alpha  occ. eigenvalues --  -10.27182 -10.26982 -10.26878 -10.26699 -10.26580
 Alpha  occ. eigenvalues --  -10.26557 -10.26548 -10.26209 -10.26183 -10.26179
 Alpha  occ. eigenvalues --  -10.26117 -10.26111 -10.26020 -10.25934 -10.25528
 Alpha  occ. eigenvalues --  -10.25454 -10.25371 -10.25305 -10.25301 -10.24957
 Alpha  occ. eigenvalues --  -10.24865 -10.24537 -10.24361 -10.24212 -10.23844
 Alpha  occ. eigenvalues --   -3.13422  -1.88143  -1.87640  -1.87607  -1.19935
 Alpha  occ. eigenvalues --   -1.16117  -1.09809  -1.08638  -1.06807  -1.06217
 Alpha  occ. eigenvalues --   -1.04468  -1.03498  -1.01297  -0.94204  -0.91127
 Alpha  occ. eigenvalues --   -0.90588  -0.90385  -0.90066  -0.89663  -0.89377
 Alpha  occ. eigenvalues --   -0.88366  -0.88225  -0.87536  -0.86512  -0.85520
 Alpha  occ. eigenvalues --   -0.85072  -0.84391  -0.84285  -0.83153  -0.82828
 Alpha  occ. eigenvalues --   -0.81280  -0.80777  -0.80270  -0.78586  -0.78104
 Alpha  occ. eigenvalues --   -0.76940  -0.76727  -0.75853  -0.75443  -0.75257
 Alpha  occ. eigenvalues --   -0.74926  -0.74554  -0.73693  -0.73254  -0.72746
 Alpha  occ. eigenvalues --   -0.71970  -0.70683  -0.69219  -0.69136  -0.68775
 Alpha  occ. eigenvalues --   -0.67965  -0.66808  -0.65751  -0.65160  -0.64783
 Alpha  occ. eigenvalues --   -0.64335  -0.63603  -0.62792  -0.62735  -0.62033
 Alpha  occ. eigenvalues --   -0.61266  -0.60551  -0.60409  -0.60023  -0.59135
 Alpha  occ. eigenvalues --   -0.58845  -0.58224  -0.57985  -0.57426  -0.57193
 Alpha  occ. eigenvalues --   -0.56105  -0.55536  -0.54867  -0.54506  -0.54454
 Alpha  occ. eigenvalues --   -0.54317  -0.53582  -0.53333  -0.53190  -0.52961
 Alpha  occ. eigenvalues --   -0.52674  -0.52324  -0.52080  -0.52008  -0.51759
 Alpha  occ. eigenvalues --   -0.51524  -0.51205  -0.50897  -0.50677  -0.50526
 Alpha  occ. eigenvalues --   -0.50090  -0.49863  -0.49719  -0.49477  -0.49165
 Alpha  occ. eigenvalues --   -0.48876  -0.48797  -0.48680  -0.48339  -0.48058
 Alpha  occ. eigenvalues --   -0.47942  -0.47853  -0.47416  -0.47077  -0.46692
 Alpha  occ. eigenvalues --   -0.46424  -0.46314  -0.46254  -0.46145  -0.45984
 Alpha  occ. eigenvalues --   -0.45945  -0.45723  -0.45406  -0.45082  -0.45007
 Alpha  occ. eigenvalues --   -0.44986  -0.44563  -0.44217  -0.43967  -0.43848
 Alpha  occ. eigenvalues --   -0.43653  -0.43606  -0.43500  -0.43405  -0.43026
 Alpha  occ. eigenvalues --   -0.42975  -0.42680  -0.42551  -0.42446  -0.42381
 Alpha  occ. eigenvalues --   -0.42347  -0.41517  -0.41476  -0.41318  -0.41307
 Alpha  occ. eigenvalues --   -0.41055  -0.40928  -0.40522  -0.40326  -0.40184
 Alpha  occ. eigenvalues --   -0.39853  -0.39823  -0.39703  -0.39261  -0.39073
 Alpha  occ. eigenvalues --   -0.38960  -0.38630  -0.38224  -0.38080  -0.37847
 Alpha  occ. eigenvalues --   -0.37648  -0.37448  -0.37023  -0.36516  -0.36471
 Alpha  occ. eigenvalues --   -0.36157  -0.36062  -0.35729  -0.35664  -0.35528
 Alpha  occ. eigenvalues --   -0.35068  -0.34918  -0.34029  -0.33748  -0.33550
 Alpha  occ. eigenvalues --   -0.33286  -0.33038  -0.32992  -0.31017  -0.29999
 Alpha  occ. eigenvalues --   -0.29250  -0.28335  -0.27613  -0.27021  -0.23778
 Alpha  occ. eigenvalues --   -0.21465
 Alpha virt. eigenvalues --   -0.06837  -0.03899   0.01490   0.03910   0.04912
 Alpha virt. eigenvalues --    0.05982   0.06411   0.06959   0.07787   0.08252
 Alpha virt. eigenvalues --    0.08748   0.10205   0.10548   0.10893   0.11155

 Mulliken charges:
               1
     1  Mg   0.807952
     2  C    0.027094
     3  C   -0.215625
     4  C   -0.165296
     5  C   -0.175495
     6  N   -0.681386
     7  C    0.312181
     8  C   -0.147802
     9  C   -0.168182
    10  C    0.406198
    11  C   -0.297151
    12  C   -0.189637
    13  C   -0.266555
    14  C    0.586377
    15  O   -0.378779
    16  O   -0.539340
    17  N   -0.713863
    18  C    0.332681
    19  C   -0.027595
    20  C    0.039247
    21  C    0.355489
    22  C   -0.373000
    23  C   -0.105297
    24  C   -0.227840
    25  N   -0.682315
    26  C    0.228443
    27  C    0.057003
    28  C    0.017747
    29  C    0.292383
    30  C   -0.361718
    31  C   -0.256642
    32  C   -0.287281
    33  N   -0.715957
    34  C    0.284555
    35  C    0.030834
    36  C    0.054192
    37  C    0.292156
    38  C   -0.372570
    39  C    0.295469
    40  O   -0.487734
    41  C   -0.307715
    42  C    0.653737
    43  O   -0.504366
    44  O   -0.477250
    45  C   -0.067009
    46  C    0.028670
    47  C   -0.146912
    48  C    0.100483
    49  C   -0.341274
    50  C   -0.215323
    51  C   -0.180621
    52  C   -0.181494
    53  C   -0.040359
    54  C   -0.311869
    55  C   -0.177790
    56  C   -0.173546
    57  C   -0.143534
    58  C   -0.082879
    59  C   -0.282245
    60  C   -0.152095
    61  C   -0.187411
    62  C   -0.134203
    63  C   -0.069674
    64  C   -0.310352
    65  C   -0.311432
    66  H    0.089642
    67  H    0.079167
    68  H    0.094869
    69  H    0.127931
    70  H    0.097049
    71  H    0.108770
    72  H    0.104868
    73  H    0.122567
    74  H    0.101402
    75  H    0.118484
    76  H    0.124098
    77  H    0.152350
    78  H    0.127689
    79  H    0.131933
    80  H    0.107511
    81  H    0.098440
    82  H    0.095651
    83  H    0.108958
    84  H    0.105193
    85  H    0.126234
    86  H    0.103544
    87  H    0.105693
    88  H    0.100290
    89  H    0.097613
    90  H    0.095637
    91  H    0.125516
    92  H    0.127227
    93  H    0.153607
    94  H    0.110610
    95  H    0.185329
    96  H    0.141512
    97  H    0.134038
    98  H    0.094498
    99  H    0.128742
   100  H    0.111307
   101  H    0.099629
   102  H    0.126118
   103  H    0.106764
   104  H    0.107443
   105  H    0.105666
   106  H    0.095003
   107  H    0.089100
   108  H    0.098467
   109  H    0.060167
   110  H    0.101358
   111  H    0.101125
   112  H    0.106505
   113  H    0.070129
   114  H    0.106290
   115  H    0.098501
   116  H    0.096093
   117  H    0.059433
   118  H    0.100065
   119  H    0.063746
   120  H    0.101793
   121  H    0.075705
   122  H    0.070245
   123  H    0.086062
   124  H    0.089390
   125  H    0.095886
   126  H    0.072565
   127  H    0.091481
   128  H    0.105563
   129  H    0.067322
   130  H    0.100211
   131  H    0.087722
   132  H    0.090769
   133  H    0.102475
   134  H    0.074657
   135  H    0.103697
   136  H    0.102684
   137  H    0.085722
 Sum of Mulliken charges =   0.00000

 Dipole moment (field-independent basis, Debye):
    X=              0.0046    Y=              5.9929    Z=             -0.4416  Tot=              6.0092
 Quadrupole moment (field-independent basis, Debye-Ang):
   XX=           -323.4088   YY=           -399.1073   ZZ=           -400.3629
   XY=            -31.3023   XZ=             12.7107   YZ=              0.0648

 Normal termination of Gaussian 09 at Sat Jul  6 15:40:50 2019.
