 Gaussian 09, Revision D.01,
 Gaussian 09:  ES64L-G09RevD.01 24-Apr-2013

 -------------------------------------
 # td=(NStates=1) CAM-B3LYP/6-31G(d,p)
 -------------------------------------

 --
 TD
 --
 Symbolic Z-matrix:
 Charge =  0 Multiplicity = 1

                         Standard orientation:
 ---------------------------------------------------------------------
 Center     Atomic      Atomic             Coordinates (Angstroms)
 Number     Number       Type             X           Y           Z
 ---------------------------------------------------------------------
      1         12           0       -7.107224    0.569553    0.123288
      2          6           0       -4.830424   -1.980003    0.555294
      3          6           0       -4.749671    2.772157    1.094008
      4          6           0       -9.389586    3.223940   -0.300174
      5          6           0       -9.433674   -1.702768   -1.082461
      6          7           0       -5.062479    0.394799    0.809027
      7          6           0       -4.331416   -0.823588    0.859866
      8          6           0       -2.898034   -0.444398    1.265692
      9          6           0       -3.035470    1.103698    1.744218
     10          6           0       -4.385465    1.426485    1.217743
     11          6           0       -2.828050    1.234290    3.179007
     12          6           0       -1.869103   -0.753048    0.225583
     13          6           0       -0.448402   -0.527720    0.707077
     14          6           0        0.514057   -0.674459   -0.507642
     15          8           0        0.294662   -1.128920   -1.621455
     16          8           0        1.770718   -0.328333   -0.175781
     17          7           0       -7.231340    2.635541    0.403318
     18          6           0       -6.036133    3.298424    0.853855
     19          6           0       -6.310466    4.702824    0.740443
     20          6           0       -7.544563    4.946928    0.364317
     21          6           0       -8.127394    3.533946    0.091743
     22          6           0       -5.338010    5.809347    1.178904
     23          6           0       -8.449671    6.206059    0.042897
     24          6           0       -8.344381    7.304625    0.857692
     25          7           0       -9.104949    0.742127   -0.645323
     26          6           0       -9.847891    1.868047   -0.598705
     27          6           0      -11.220476    1.580655   -1.079675
     28          6           0      -11.226072    0.204704   -1.321408
     29          6           0       -9.826711   -0.297627   -0.986129
     30          6           0      -12.308453    2.646929   -1.151821
     31          6           0      -12.389848   -0.588992   -1.778510
     32          6           0      -12.157689   -0.921112   -3.344330
     33          7           0       -7.197926   -1.380038   -0.142542
     34          6           0       -8.288984   -2.252687   -0.639128
     35          6           0       -7.844309   -3.532786   -0.644715
     36          6           0       -6.546633   -3.572919   -0.200653
     37          6           0       -6.183604   -2.148990    0.125559
     38          6           0       -8.658407   -4.774342   -1.011343
     39          6           0       -5.381365   -4.426542    0.225885
     40          8           0       -5.240771   -5.704285    0.229286
     41          6           0       -4.260429   -3.412341    0.567107
     42          6           0       -3.556059   -3.805637    1.910297
     43          8           0       -3.636585   -3.222999    2.915388
     44          8           0       -2.995397   -5.034671    1.746355
     45          6           0       -2.323330   -5.399775    2.969925
     46          6           0        2.745297   -0.769237   -1.180756
     47          6           0        4.143103   -0.519219   -0.567419
     48          6           0        5.034733    0.322413   -1.081491
     49          6           0        4.886987    1.134982   -2.348379
     50          6           0        6.402541    0.441781   -0.394773
     51          6           0        7.594581    0.013606   -1.110487
     52          6           0        8.866167   -0.123676   -0.222136
     53          6           0       10.178846   -0.547909   -0.897233
     54          6           0       10.066898   -1.978473   -1.250350
     55          6           0       11.363708   -0.172894   -0.092746
     56          6           0       12.755520   -0.443202   -0.695059
     57          6           0       13.999569   -0.003715    0.211824
     58          6           0       15.291669   -0.151133   -0.482270
     59          6           0       15.658665   -1.709592   -0.840482
     60          6           0       16.384986    0.422433    0.464447
     61          6           0       17.813170    0.542091   -0.079647
     62          6           0       18.823908    1.284403    0.777793
     63          6           0       20.289016    1.332580    0.182721
     64          6           0       20.279657    2.184485   -1.012250
     65          6           0       21.190948    1.880718    1.212368
     66          1           0       -3.936536    3.420255    1.417561
     67          1           0      -10.016666    3.968205   -0.263859
     68          1           0      -10.275716   -2.331498   -1.473356
     69          1           0       -2.566503   -0.938707    2.205476
     70          1           0       -2.231773    1.519641    1.185028
     71          1           0       -1.734922    0.863268    3.656425
     72          1           0       -3.050781    2.281808    3.683838
     73          1           0       -3.614152    0.579893    3.578947
     74          1           0       -1.915472   -1.843038    0.066206
     75          1           0       -2.126907   -0.111891   -0.676883
     76          1           0       -0.381743    0.559055    1.024592
     77          1           0       -0.057563   -1.132067    1.419334
     78          1           0       -5.808854    6.671621    0.804913
     79          1           0       -5.351135    5.828067    2.299448
     80          1           0       -4.402195    5.543128    0.898538
     81          1           0       -9.369115    5.929914   -0.461554
     82          1           0       -8.693268    8.274459    0.711622
     83          1           0       -7.622781    7.294843    1.707390
     84          1           0      -12.283698    3.304433   -2.013069
     85          1           0      -13.357342    2.279073   -1.041000
     86          1           0      -12.183019    3.195161   -0.199220
     87          1           0      -12.665617   -1.571710   -1.203553
     88          1           0      -13.347098    0.023740   -1.766060
     89          1           0      -13.116389   -1.490455   -3.725679
     90          1           0      -12.057757    0.021515   -3.846979
     91          1           0      -11.461661   -1.585682   -3.817588
     92          1           0       -9.066932   -4.621845   -2.137420
     93          1           0       -7.998226   -5.739322   -0.995691
     94          1           0       -9.508678   -4.912516   -0.222311
     95          1           0       -3.429126   -3.559821   -0.341597
     96          1           0       -1.754550   -4.608593    3.163892
     97          1           0       -3.055192   -5.707837    3.680503
     98          1           0       -1.747263   -6.473079    2.602073
     99          1           0        2.616610   -1.799093   -1.481137
    100          1           0        2.564703   -0.116637   -2.165464
    101          1           0        4.341488   -1.009684    0.414642
    102          1           0        3.848303    1.195713   -2.698005
    103          1           0        5.317470    2.179052   -2.500607
    104          1           0        5.450999    0.574962   -3.092264
    105          1           0        6.388473    1.539405    0.100781
    106          1           0        6.263154   -0.267584    0.521116
    107          1           0        7.348040   -1.057547   -1.204323
    108          1           0        7.762336    0.602239   -2.063155
    109          1           0        9.119951    1.003589    0.302454
    110          1           0        8.822530   -0.704892    0.790918
    111          1           0       10.242204   -0.015448   -1.843427
    112          1           0        9.102006   -2.406179   -1.895349
    113          1           0       10.992912   -2.089108   -1.933694
    114          1           0       10.044116   -2.664021   -0.284201
    115          1           0       11.441008    0.883381    0.110650
    116          1           0       11.195361   -0.931724    0.848275
    117          1           0       12.892332   -1.439794   -0.929666
    118          1           0       12.856601    0.066861   -1.689846
    119          1           0       13.935087    1.091074    0.294530
    120          1           0       13.817423   -0.559590    1.301670
    121          1           0       15.343464    0.427624   -1.465634
    122          1           0       15.660995   -2.281576    0.114917
    123          1           0       14.897080   -1.810059   -1.471761
    124          1           0       16.536093   -1.716417   -1.280615
    125          1           0       16.184225    1.582332    0.894553
    126          1           0       16.425665   -0.269802    1.380060
    127          1           0       17.980705   -0.508945   -0.388040
    128          1           0       17.933624    0.955729   -1.130469
    129          1           0       18.501986    2.253103    0.785466
    130          1           0       18.862886    0.907455    1.788674
    131          1           0       20.776497    0.351846   -0.080327
    132          1           0       19.864115    3.313766   -0.633819
    133          1           0       21.277561    2.244459   -1.367607
    134          1           0       19.740146    1.810297   -1.951646
    135          1           0       21.227974    0.905651    2.019694
    136          1           0       22.237858    1.963330    1.005165
    137          1           0       20.814071    2.855659    1.411800
 ---------------------------------------------------------------------

 SCF Done:  E(RCAM-B3LYP) =  -2932.67256729     A.U. after   15 cycles

 Excitation energies and oscillator strengths:

 Excited State   1:      Singlet-A      2.0411 eV  607.43 nm  f=0.2352  <S**2>=0.000
     240 -> 243        0.21694
     241 -> 242        0.66703
 This state for optimization and/or second-order correction.
 Total Energy, E(TD-HF/TD-KS) =  -2932.59755707
 Copying the excited state density for this state as the 1-particle RhoCI density.

 The electronic state is 1-A.
 Alpha  occ. eigenvalues --  -46.85217 -19.26134 -19.25478 -19.22039 -19.20764
 Alpha  occ. eigenvalues --  -19.19675 -14.41999 -14.40155 -14.39452 -14.39139
 Alpha  occ. eigenvalues --  -10.39241 -10.39142 -10.35682 -10.32471 -10.31325
 Alpha  occ. eigenvalues --  -10.31151 -10.31046 -10.30551 -10.30343 -10.29657
 Alpha  occ. eigenvalues --  -10.29444 -10.29177 -10.28770 -10.28732 -10.28513
 Alpha  occ. eigenvalues --  -10.28331 -10.28152 -10.28094 -10.28041 -10.27814
 Alpha  occ. eigenvalues --  -10.27646 -10.27533 -10.27514 -10.27431 -10.27361
 Alpha  occ. eigenvalues --  -10.27308 -10.27265 -10.27233 -10.27144 -10.27025
 Alpha  occ. eigenvalues --  -10.26961 -10.26801 -10.26589 -10.26535 -10.26428
 Alpha  occ. eigenvalues --  -10.26359 -10.26285 -10.26141 -10.26119 -10.26116
 Alpha  occ. eigenvalues --  -10.26108 -10.26093 -10.25884 -10.25589 -10.25588
 Alpha  occ. eigenvalues --  -10.25488 -10.25466 -10.25294 -10.25132 -10.25043
 Alpha  occ. eigenvalues --  -10.25003 -10.24939 -10.24741 -10.24136 -10.23078
 Alpha  occ. eigenvalues --   -3.14114  -1.88834  -1.88342  -1.88288  -1.19557
 Alpha  occ. eigenvalues --   -1.18139  -1.11086  -1.08088  -1.06609  -1.05039
 Alpha  occ. eigenvalues --   -1.03810  -1.03450  -1.02588  -0.92648  -0.91725
 Alpha  occ. eigenvalues --   -0.91123  -0.90713  -0.90324  -0.89375  -0.88980
 Alpha  occ. eigenvalues --   -0.88376  -0.88061  -0.87457  -0.87080  -0.86265
 Alpha  occ. eigenvalues --   -0.85253  -0.84310  -0.83526  -0.83182  -0.82185
 Alpha  occ. eigenvalues --   -0.81318  -0.81232  -0.80513  -0.79820  -0.78130
 Alpha  occ. eigenvalues --   -0.77762  -0.76413  -0.76286  -0.75634  -0.75391
 Alpha  occ. eigenvalues --   -0.75153  -0.75117  -0.74316  -0.73307  -0.72733
 Alpha  occ. eigenvalues --   -0.71744  -0.70575  -0.69421  -0.69162  -0.68092
 Alpha  occ. eigenvalues --   -0.66991  -0.65687  -0.65379  -0.65057  -0.64049
 Alpha  occ. eigenvalues --   -0.63795  -0.62667  -0.62611  -0.62176  -0.62162
 Alpha  occ. eigenvalues --   -0.61135  -0.60985  -0.60061  -0.59552  -0.59243
 Alpha  occ. eigenvalues --   -0.58793  -0.58179  -0.57743  -0.57364  -0.56930
 Alpha  occ. eigenvalues --   -0.56174  -0.55682  -0.55559  -0.55221  -0.54988
 Alpha  occ. eigenvalues --   -0.54903  -0.54534  -0.54165  -0.53804  -0.53349
 Alpha  occ. eigenvalues --   -0.53190  -0.52902  -0.52648  -0.52252  -0.51814
 Alpha  occ. eigenvalues --   -0.51510  -0.51318  -0.51153  -0.50597  -0.50363
 Alpha  occ. eigenvalues --   -0.50340  -0.50190  -0.49764  -0.49761  -0.49527
 Alpha  occ. eigenvalues --   -0.49129  -0.49050  -0.48876  -0.48712  -0.48603
 Alpha  occ. eigenvalues --   -0.48359  -0.48185  -0.47759  -0.47610  -0.47212
 Alpha  occ. eigenvalues --   -0.47098  -0.47052  -0.46420  -0.46290  -0.46152
 Alpha  occ. eigenvalues --   -0.45959  -0.45706  -0.45519  -0.45315  -0.45139
 Alpha  occ. eigenvalues --   -0.44802  -0.44567  -0.44360  -0.44263  -0.44087
 Alpha  occ. eigenvalues --   -0.43771  -0.43725  -0.43621  -0.43479  -0.43149
 Alpha  occ. eigenvalues --   -0.43054  -0.42872  -0.42705  -0.42564  -0.42391
 Alpha  occ. eigenvalues --   -0.42101  -0.41926  -0.41655  -0.41436  -0.41264
 Alpha  occ. eigenvalues --   -0.41079  -0.40951  -0.40781  -0.40450  -0.40180
 Alpha  occ. eigenvalues --   -0.40031  -0.39818  -0.39549  -0.39215  -0.39015
 Alpha  occ. eigenvalues --   -0.38824  -0.38085  -0.38023  -0.38006  -0.37551
 Alpha  occ. eigenvalues --   -0.37504  -0.37094  -0.36792  -0.36435  -0.36235
 Alpha  occ. eigenvalues --   -0.36207  -0.36147  -0.35860  -0.35144  -0.35082
 Alpha  occ. eigenvalues --   -0.34771  -0.34639  -0.34339  -0.34251  -0.33598
 Alpha  occ. eigenvalues --   -0.33357  -0.33170  -0.32500  -0.31398  -0.30161
 Alpha  occ. eigenvalues --   -0.29895  -0.29589  -0.28471  -0.27559  -0.24288
 Alpha  occ. eigenvalues --   -0.20590
 Alpha virt. eigenvalues --   -0.05888  -0.03279   0.01227   0.02956   0.05793
 Alpha virt. eigenvalues --    0.05933   0.06220   0.06435   0.07155   0.07666
 Alpha virt. eigenvalues --    0.08219   0.10486   0.11130   0.11646   0.11755

 Mulliken charges:
               1
     1  Mg   0.820730
     2  C    0.125123
     3  C   -0.199213
     4  C   -0.147243
     5  C   -0.177540
     6  N   -0.653771
     7  C    0.279862
     8  C   -0.182253
     9  C   -0.148058
    10  C    0.365479
    11  C   -0.299615
    12  C   -0.158242
    13  C   -0.263575
    14  C    0.594953
    15  O   -0.480853
    16  O   -0.472198
    17  N   -0.696024
    18  C    0.312271
    19  C   -0.042825
    20  C    0.019268
    21  C    0.301288
    22  C   -0.344805
    23  C   -0.074550
    24  C   -0.236537
    25  N   -0.666796
    26  C    0.268766
    27  C    0.017029
    28  C    0.014091
    29  C    0.286583
    30  C   -0.375686
    31  C   -0.259009
    32  C   -0.320243
    33  N   -0.763475
    34  C    0.287827
    35  C    0.028728
    36  C   -0.022983
    37  C    0.311379
    38  C   -0.363871
    39  C    0.392430
    40  O   -0.496581
    41  C   -0.323698
    42  C    0.607527
    43  O   -0.437680
    44  O   -0.447102
    45  C   -0.067629
    46  C    0.007452
    47  C   -0.152763
    48  C    0.142155
    49  C   -0.376344
    50  C   -0.217438
    51  C   -0.157644
    52  C   -0.159602
    53  C   -0.056396
    54  C   -0.285024
    55  C   -0.141570
    56  C   -0.213032
    57  C   -0.146114
    58  C   -0.091645
    59  C   -0.306374
    60  C   -0.150751
    61  C   -0.182484
    62  C   -0.152376
    63  C   -0.071134
    64  C   -0.281934
    65  C   -0.277030
    66  H    0.084806
    67  H    0.056589
    68  H    0.110107
    69  H    0.120693
    70  H    0.106968
    71  H    0.091470
    72  H    0.099182
    73  H    0.128504
    74  H    0.117505
    75  H    0.117624
    76  H    0.129949
    77  H    0.147640
    78  H    0.120933
    79  H    0.116221
    80  H    0.120093
    81  H    0.111986
    82  H    0.118009
    83  H    0.110931
    84  H    0.126719
    85  H    0.110671
    86  H    0.120471
    87  H    0.098228
    88  H    0.108702
    89  H    0.073952
    90  H    0.118795
    91  H    0.116927
    92  H    0.104201
    93  H    0.145634
    94  H    0.121885
    95  H    0.155783
    96  H    0.130817
    97  H    0.141870
    98  H    0.098200
    99  H    0.138175
   100  H    0.109297
   101  H    0.095531
   102  H    0.113928
   103  H    0.115159
   104  H    0.129083
   105  H    0.080986
   106  H    0.081900
   107  H    0.111401
   108  H    0.100111
   109  H    0.038060
   110  H    0.082919
   111  H    0.083925
   112  H    0.086746
   113  H    0.095212
   114  H    0.084251
   115  H    0.103642
   116  H    0.059675
   117  H    0.110161
   118  H    0.078117
   119  H    0.097504
   120  H    0.075336
   121  H    0.085371
   122  H    0.101404
   123  H    0.113876
   124  H    0.113292
   125  H    0.043831
   126  H    0.083984
   127  H    0.081629
   128  H    0.076380
   129  H    0.100696
   130  H    0.089640
   131  H    0.081404
   132  H    0.060895
   133  H    0.102679
   134  H    0.097646
   135  H    0.068012
   136  H    0.103968
   137  H    0.100881
 Sum of Mulliken charges =   0.00000

 Dipole moment (field-independent basis, Debye):
    X=              2.4614    Y=              4.8898    Z=              0.5865  Tot=              5.5057
 Quadrupole moment (field-independent basis, Debye-Ang):
   XX=           -346.5849   YY=           -398.7737   ZZ=           -396.2178
   XY=            -32.2836   XZ=             -8.7235   YZ=             -2.2233

 Normal termination of Gaussian 09 at Wed Jul  3 06:38:40 2019.
