 Gaussian 09, Revision D.01,
 Gaussian 09:  ES64L-G09RevD.01 24-Apr-2013

 -------------------------------------
 # td=(NStates=1) CAM-B3LYP/6-31G(d,p)
 -------------------------------------

 --
 TD
 --
 Symbolic Z-matrix:
 Charge =  0 Multiplicity = 1

                         Standard orientation:
 ---------------------------------------------------------------------
 Center     Atomic      Atomic             Coordinates (Angstroms)
 Number     Number       Type             X           Y           Z
 ---------------------------------------------------------------------
      1         12           0       -7.170995    0.533417    0.087431
      2          6           0       -4.845340   -1.958089    0.499034
      3          6           0       -4.772827    2.864728    1.112670
      4          6           0       -9.436838    3.166023   -0.466450
      5          6           0       -9.543090   -1.681689   -0.999077
      6          7           0       -5.108102    0.470706    0.682222
      7          6           0       -4.355508   -0.693884    0.792010
      8          6           0       -2.915774   -0.309165    1.232687
      9          6           0       -2.967731    1.139502    1.732637
     10          6           0       -4.366677    1.582243    1.099589
     11          6           0       -2.901426    1.334335    3.170425
     12          6           0       -1.855359   -0.509491    0.080404
     13          6           0       -0.462149   -0.454591    0.583740
     14          6           0        0.598776   -0.738992   -0.569733
     15          8           0        0.274418   -1.138293   -1.727026
     16          8           0        1.760685   -0.652845   -0.126613
     17          7           0       -7.149711    2.682299    0.269235
     18          6           0       -6.004761    3.416757    0.697770
     19          6           0       -6.398881    4.799871    0.754693
     20          6           0       -7.728811    4.931935    0.360029
     21          6           0       -8.168627    3.536027    0.073455
     22          6           0       -5.521682    5.951977    1.232911
     23          6           0       -8.641107    6.042997    0.208506
     24          6           0       -8.477641    7.254313    0.819971
     25          7           0       -9.028090    0.709124   -0.547802
     26          6           0       -9.914885    1.796915   -0.678981
     27          6           0      -11.291725    1.436706   -1.170420
     28          6           0      -11.296122    0.180202   -1.315159
     29          6           0       -9.888107   -0.326204   -0.850643
     30          6           0      -12.302906    2.338866   -1.546159
     31          6           0      -12.404129   -0.865346   -1.694488
     32          6           0      -12.346259   -1.144670   -3.318942
     33          7           0       -7.269680   -1.388354   -0.247746
     34          6           0       -8.291618   -2.308626   -0.581134
     35          6           0       -7.799667   -3.665627   -0.455396
     36          6           0       -6.493744   -3.530406   -0.023076
     37          6           0       -6.103304   -2.171594    0.012948
     38          6           0       -8.744239   -4.775759   -0.707655
     39          6           0       -5.368820   -4.327734    0.295475
     40          8           0       -5.166645   -5.503375    0.330753
     41          6           0       -4.186009   -3.256238    0.523293
     42          6           0       -3.542738   -3.688556    1.809432
     43          8           0       -3.647804   -3.024028    2.841698
     44          8           0       -2.763855   -4.722889    1.809784
     45          6           0       -2.246809   -5.250623    3.010179
     46          6           0        2.754493   -0.876610   -1.190099
     47          6           0        4.125124   -0.700880   -0.553981
     48          6           0        5.084159    0.053648   -1.041851
     49          6           0        5.031041    1.026615   -2.157647
     50          6           0        6.370923    0.283588   -0.120648
     51          6           0        7.699038   -0.098428   -0.846707
     52          6           0        9.026653   -0.034482   -0.122785
     53          6           0       10.184011   -0.508238   -0.802341
     54          6           0       10.153555   -2.043264   -1.239833
     55          6           0       11.464371   -0.288352   -0.026864
     56          6           0       12.864776   -0.520933   -0.706505
     57          6           0       13.980653   -0.046260    0.279073
     58          6           0       15.410898   -0.264421   -0.352150
     59          6           0       15.720163   -1.751580   -0.645109
     60          6           0       16.413155    0.470867    0.477777
     61          6           0       17.828171    0.568935   -0.288622
     62          6           0       18.856477    1.446013    0.610278
     63          6           0       20.217450    1.494256    0.057645
     64          6           0       20.212145    2.278384   -1.228450
     65          6           0       21.214875    1.979232    1.175612
     66          1           0       -4.007483    3.557911    1.415449
     67          1           0      -10.030461    4.023671   -0.546340
     68          1           0      -10.323040   -2.409051   -1.271366
     69          1           0       -2.701534   -1.087997    2.073040
     70          1           0       -2.314317    1.802443    1.077663
     71          1           0       -2.028145    1.037920    3.546391
     72          1           0       -2.932674    2.313666    3.530849
     73          1           0       -3.540018    0.714575    3.898127
     74          1           0       -1.779899   -1.593040   -0.233414
     75          1           0       -1.950254    0.202714   -0.711792
     76          1           0        0.021194    0.477282    1.266233
     77          1           0       -0.252588   -1.348455    1.244211
     78          1           0       -5.951668    6.956746    0.853536
     79          1           0       -5.494539    5.849154    2.380255
     80          1           0       -4.462978    5.729046    0.852367
     81          1           0       -9.572908    5.905717   -0.351306
     82          1           0       -9.154700    8.067972    0.696368
     83          1           0       -7.815191    7.462784    1.567768
     84          1           0      -12.107702    3.156275   -2.531834
     85          1           0      -13.290627    1.862897   -1.735180
     86          1           0      -12.408148    2.989118   -0.678152
     87          1           0      -12.307177   -1.863069   -1.116472
     88          1           0      -13.348282   -0.097721   -1.643271
     89          1           0      -13.033414   -2.057613   -3.479529
     90          1           0      -12.593551   -0.067014   -3.733321
     91          1           0      -11.266628   -1.429347   -3.480665
     92          1           0       -8.916171   -4.865212   -1.704587
     93          1           0       -8.160735   -5.551461   -0.569215
     94          1           0       -9.718401   -4.638178   -0.291606
     95          1           0       -3.473163   -3.445525   -0.174371
     96          1           0       -1.341734   -4.533731    3.294561
     97          1           0       -3.154143   -5.517196    3.815114
     98          1           0       -1.794391   -6.295047    2.761168
     99          1           0        2.478607   -1.944892   -1.714589
    100          1           0        2.581280   -0.304739   -2.101617
    101          1           0        4.331700   -1.365058    0.234330
    102          1           0        3.944131    1.351321   -2.378357
    103          1           0        5.641728    1.978179   -1.823928
    104          1           0        5.385535    0.631825   -3.175226
    105          1           0        6.351377    1.295188    0.229212
    106          1           0        6.238552   -0.399800    0.678385
    107          1           0        7.746683   -1.214958   -1.230602
    108          1           0        7.734390    0.369003   -1.824048
    109          1           0        9.092478    0.998193    0.184484
    110          1           0        8.911476   -0.662117    0.662272
    111          1           0       10.376653   -0.084183   -1.832261
    112          1           0        9.339107   -2.444874   -1.684468
    113          1           0       11.050757   -2.228250   -1.893274
    114          1           0       10.380464   -2.572301   -0.437722
    115          1           0       11.564168    0.801555    0.237718
    116          1           0       11.464543   -0.859516    0.894576
    117          1           0       13.128330   -1.724602   -0.998016
    118          1           0       12.953408    0.243894   -1.571090
    119          1           0       13.535036    0.861457    0.773579
    120          1           0       13.745040   -0.506565    1.278323
    121          1           0       15.356708    0.413615   -1.426975
    122          1           0       15.815206   -2.520707    0.229048
    123          1           0       14.974400   -2.188613   -1.370188
    124          1           0       16.604045   -1.727240   -1.258744
    125          1           0       16.065262    1.466066    0.644538
    126          1           0       16.558161   -0.019888    1.455345
    127          1           0       18.274673   -0.493181   -0.119805
    128          1           0       17.751176    0.871191   -1.162187
    129          1           0       18.471717    2.271875    0.522460
    130          1           0       18.776387    1.180013    1.742444
    131          1           0       20.563913    0.507301   -0.241348
    132          1           0       19.628247    3.157464   -1.039674
    133          1           0       21.148667    2.438932   -1.590725
    134          1           0       19.605518    1.881194   -2.143672
    135          1           0       21.043588    1.332956    2.073961
    136          1           0       22.120712    2.005494    0.643521
    137          1           0       21.004697    3.003287    1.336309
 ---------------------------------------------------------------------

 SCF Done:  E(RCAM-B3LYP) =  -2932.61174967     A.U. after   18 cycles

 Excitation energies and oscillator strengths:

 Excited State   1:      Singlet-A      1.8134 eV  683.70 nm  f=0.3502  <S**2>=0.000
     240 -> 243        0.20399
     241 -> 242        0.67489
 This state for optimization and/or second-order correction.
 Total Energy, E(TD-HF/TD-KS) =  -2932.54510700
 Copying the excited state density for this state as the 1-particle RhoCI density.

 The electronic state is 1-A.
 Alpha  occ. eigenvalues --  -46.83667 -19.28473 -19.26201 -19.20154 -19.19384
 Alpha  occ. eigenvalues --  -19.18459 -14.41857 -14.40968 -14.39038 -14.38864
 Alpha  occ. eigenvalues --  -10.38777 -10.38078 -10.34294 -10.34088 -10.33318
 Alpha  occ. eigenvalues --  -10.31178 -10.30554 -10.30310 -10.29916 -10.29912
 Alpha  occ. eigenvalues --  -10.29409 -10.29171 -10.29022 -10.28589 -10.28413
 Alpha  occ. eigenvalues --  -10.28212 -10.27947 -10.27899 -10.27870 -10.27792
 Alpha  occ. eigenvalues --  -10.27716 -10.27689 -10.27682 -10.27544 -10.27486
 Alpha  occ. eigenvalues --  -10.27434 -10.27040 -10.26943 -10.26863 -10.26748
 Alpha  occ. eigenvalues --  -10.26701 -10.26646 -10.26446 -10.26384 -10.26329
 Alpha  occ. eigenvalues --  -10.26071 -10.25984 -10.25841 -10.25688 -10.25628
 Alpha  occ. eigenvalues --  -10.25581 -10.25337 -10.25193 -10.25189 -10.24784
 Alpha  occ. eigenvalues --  -10.24713 -10.24566 -10.24158 -10.24010 -10.23969
 Alpha  occ. eigenvalues --  -10.23910 -10.23574 -10.23476 -10.22975 -10.22577
 Alpha  occ. eigenvalues --   -3.12821  -1.87506  -1.87094  -1.86990  -1.21930
 Alpha  occ. eigenvalues --   -1.19660  -1.12132  -1.07114  -1.06395  -1.03017
 Alpha  occ. eigenvalues --   -1.02153  -1.01729  -1.00673  -0.93246  -0.91761
 Alpha  occ. eigenvalues --   -0.90652  -0.90518  -0.90301  -0.89433  -0.88522
 Alpha  occ. eigenvalues --   -0.88490  -0.88136  -0.87400  -0.86621  -0.85709
 Alpha  occ. eigenvalues --   -0.84939  -0.83941  -0.83349  -0.82946  -0.81743
 Alpha  occ. eigenvalues --   -0.81404  -0.81008  -0.80730  -0.79820  -0.78187
 Alpha  occ. eigenvalues --   -0.77605  -0.77018  -0.76833  -0.76591  -0.76524
 Alpha  occ. eigenvalues --   -0.75531  -0.75335  -0.75044  -0.74169  -0.72614
 Alpha  occ. eigenvalues --   -0.71269  -0.70088  -0.69110  -0.68470  -0.67800
 Alpha  occ. eigenvalues --   -0.67169  -0.67110  -0.65442  -0.64909  -0.64135
 Alpha  occ. eigenvalues --   -0.63914  -0.63779  -0.63254  -0.63051  -0.61774
 Alpha  occ. eigenvalues --   -0.61182  -0.59903  -0.59701  -0.59375  -0.58581
 Alpha  occ. eigenvalues --   -0.58104  -0.57937  -0.57806  -0.57464  -0.57068
 Alpha  occ. eigenvalues --   -0.55921  -0.55477  -0.55196  -0.54782  -0.54593
 Alpha  occ. eigenvalues --   -0.54374  -0.54256  -0.54040  -0.53713  -0.53352
 Alpha  occ. eigenvalues --   -0.53080  -0.52593  -0.52352  -0.52210  -0.51967
 Alpha  occ. eigenvalues --   -0.51601  -0.51454  -0.50766  -0.50666  -0.50514
 Alpha  occ. eigenvalues --   -0.50132  -0.50060  -0.49736  -0.49723  -0.49582
 Alpha  occ. eigenvalues --   -0.49461  -0.49245  -0.49104  -0.48867  -0.48320
 Alpha  occ. eigenvalues --   -0.48210  -0.48022  -0.47872  -0.47438  -0.47318
 Alpha  occ. eigenvalues --   -0.47186  -0.46719  -0.46261  -0.46149  -0.46019
 Alpha  occ. eigenvalues --   -0.45762  -0.45449  -0.45344  -0.45024  -0.44998
 Alpha  occ. eigenvalues --   -0.44876  -0.44695  -0.44626  -0.44325  -0.44101
 Alpha  occ. eigenvalues --   -0.43761  -0.43694  -0.43502  -0.43368  -0.43174
 Alpha  occ. eigenvalues --   -0.43073  -0.43036  -0.42940  -0.42611  -0.42363
 Alpha  occ. eigenvalues --   -0.42146  -0.41621  -0.41472  -0.41460  -0.41341
 Alpha  occ. eigenvalues --   -0.41176  -0.41091  -0.40640  -0.40536  -0.40450
 Alpha  occ. eigenvalues --   -0.39722  -0.39564  -0.39452  -0.39135  -0.38822
 Alpha  occ. eigenvalues --   -0.38237  -0.38085  -0.37892  -0.37673  -0.37337
 Alpha  occ. eigenvalues --   -0.37216  -0.37165  -0.36764  -0.36238  -0.36047
 Alpha  occ. eigenvalues --   -0.35967  -0.35885  -0.35723  -0.35603  -0.35296
 Alpha  occ. eigenvalues --   -0.34922  -0.34860  -0.34766  -0.33347  -0.32828
 Alpha  occ. eigenvalues --   -0.32542  -0.32180  -0.31813  -0.30792  -0.30370
 Alpha  occ. eigenvalues --   -0.30218  -0.29547  -0.28735  -0.26502  -0.23118
 Alpha  occ. eigenvalues --   -0.20294
 Alpha virt. eigenvalues --   -0.07118  -0.02252   0.01746   0.04037   0.05445
 Alpha virt. eigenvalues --    0.06316   0.07085   0.07165   0.07357   0.07741
 Alpha virt. eigenvalues --    0.08262   0.09676   0.11222   0.11606   0.11765

 Mulliken charges:
               1
     1  Mg   0.828757
     2  C    0.134703
     3  C   -0.183182
     4  C   -0.162082
     5  C   -0.191923
     6  N   -0.635904
     7  C    0.320296
     8  C   -0.182682
     9  C   -0.111202
    10  C    0.301175
    11  C   -0.315961
    12  C   -0.151466
    13  C   -0.270066
    14  C    0.595409
    15  O   -0.532489
    16  O   -0.396560
    17  N   -0.693305
    18  C    0.304569
    19  C   -0.006406
    20  C    0.039333
    21  C    0.283282
    22  C   -0.363562
    23  C   -0.090092
    24  C   -0.255730
    25  N   -0.646526
    26  C    0.251057
    27  C    0.104480
    28  C    0.041172
    29  C    0.285663
    30  C   -0.386265
    31  C   -0.252304
    32  C   -0.296023
    33  N   -0.740665
    34  C    0.247435
    35  C    0.010253
    36  C    0.019529
    37  C    0.249885
    38  C   -0.351384
    39  C    0.332424
    40  O   -0.450832
    41  C   -0.353075
    42  C    0.596371
    43  O   -0.504074
    44  O   -0.411030
    45  C   -0.067957
    46  C   -0.028425
    47  C   -0.133742
    48  C    0.138022
    49  C   -0.363978
    50  C   -0.228601
    51  C   -0.197490
    52  C   -0.138996
    53  C   -0.067793
    54  C   -0.333794
    55  C   -0.185861
    56  C   -0.159989
    57  C   -0.187343
    58  C   -0.033460
    59  C   -0.313830
    60  C   -0.174394
    61  C   -0.180746
    62  C   -0.157530
    63  C   -0.063610
    64  C   -0.321159
    65  C   -0.310290
    66  H    0.080769
    67  H    0.069280
    68  H    0.074045
    69  H    0.130853
    70  H    0.107222
    71  H    0.123508
    72  H    0.110652
    73  H    0.121521
    74  H    0.121344
    75  H    0.122985
    76  H    0.093898
    77  H    0.128088
    78  H    0.119277
    79  H    0.121235
    80  H    0.106724
    81  H    0.101103
    82  H    0.098638
    83  H    0.110693
    84  H    0.093723
    85  H    0.112822
    86  H    0.126490
    87  H    0.116121
    88  H    0.087695
    89  H    0.108105
    90  H    0.106989
    91  H    0.120043
    92  H    0.134935
    93  H    0.139399
    94  H    0.129239
    95  H    0.163178
    96  H    0.116037
    97  H    0.123576
    98  H    0.121642
    99  H    0.128320
   100  H    0.141221
   101  H    0.099490
   102  H    0.109399
   103  H    0.107557
   104  H    0.126586
   105  H    0.112262
   106  H    0.102241
   107  H    0.072007
   108  H    0.093745
   109  H    0.087835
   110  H    0.098754
   111  H    0.077077
   112  H    0.109072
   113  H    0.098116
   114  H    0.109353
   115  H    0.084122
   116  H    0.091575
   117  H    0.068694
   118  H    0.085881
   119  H    0.082873
   120  H    0.076962
   121  H    0.049452
   122  H    0.100851
   123  H    0.102005
   124  H    0.116061
   125  H    0.096609
   126  H    0.090486
   127  H    0.086730
   128  H    0.092596
   129  H    0.099619
   130  H    0.065003
   131  H    0.083183
   132  H    0.101374
   133  H    0.106619
   134  H    0.089258
   135  H    0.107654
   136  H    0.102959
   137  H    0.104534
 Sum of Mulliken charges =   0.00000

 Dipole moment (field-independent basis, Debye):
    X=              1.9929    Y=              3.7588    Z=              0.7170  Tot=              4.3145
 Quadrupole moment (field-independent basis, Debye-Ang):
   XX=           -327.2159   YY=           -390.5017   ZZ=           -398.0221
   XY=            -13.7740   XZ=              8.4853   YZ=             -0.5400

 Normal termination of Gaussian 09 at Thu Jul  4 10:47:00 2019.
