 Gaussian 16, Revision A.03,
 Gaussian 16:  ES64L-G16RevA.03 25-Dec-2016

 ----------------------------------------------------------------------
 # td=(NStates=1) iop(3/107=0140000000,3/108=0140000000) CAM-B3LYP/6-31
 G(d,p)
 ----------------------------------------------------------------------

 --
 TD
 --
 Symbolic Z-matrix:
 Charge =  0 Multiplicity = 1

                         Standard orientation:
 ---------------------------------------------------------------------
 Center     Atomic      Atomic             Coordinates (Angstroms)
 Number     Number       Type             X           Y           Z
 ---------------------------------------------------------------------
      1         12           0       -7.091342    0.589738   -0.016428
      2          6           0       -4.900219   -1.989828    0.377703
      3          6           0       -4.861675    2.791832    1.039576
      4          6           0       -9.501390    3.114424   -0.365829
      5          6           0       -9.451811   -1.810424   -0.916817
      6          7           0       -5.167500    0.414182    0.787913
      7          6           0       -4.375140   -0.750150    0.703392
      8          6           0       -2.945928   -0.393987    1.097055
      9          6           0       -3.020510    0.968484    1.559639
     10          6           0       -4.363431    1.490221    1.097619
     11          6           0       -2.874159    1.287509    3.135524
     12          6           0       -1.925128   -0.677742   -0.052483
     13          6           0       -0.500243   -0.434040    0.465434
     14          6           0        0.558191   -0.558665   -0.588274
     15          8           0        0.377063   -0.972132   -1.709365
     16          8           0        1.802192   -0.127099   -0.140901
     17          7           0       -7.194691    2.614325    0.266582
     18          6           0       -6.140958    3.300161    0.752161
     19          6           0       -6.422711    4.726554    0.773973
     20          6           0       -7.728245    4.854461    0.305018
     21          6           0       -8.231073    3.470441    0.065681
     22          6           0       -5.457172    5.884525    1.088682
     23          6           0       -8.500238    5.965752    0.045737
     24          6           0       -8.403661    7.149423    0.786146
     25          7           0       -9.093842    0.647596   -0.530859
     26          6           0       -9.877964    1.787396   -0.634932
     27          6           0      -11.265957    1.426047   -0.989271
     28          6           0      -11.297759    0.056433   -1.205276
     29          6           0       -9.889766   -0.401949   -0.814175
     30          6           0      -12.365067    2.391200   -1.120364
     31          6           0      -12.345821   -0.821110   -1.653964
     32          6           0      -12.414893   -1.010895   -3.191727
     33          7           0       -7.230773   -1.431882   -0.143593
     34          6           0       -8.308880   -2.301962   -0.579174
     35          6           0       -7.904217   -3.619636   -0.542900
     36          6           0       -6.508899   -3.564013   -0.116448
     37          6           0       -6.224540   -2.164381    0.086493
     38          6           0       -8.653837   -4.884122   -0.924156
     39          6           0       -5.409102   -4.370669    0.186605
     40          8           0       -5.200336   -5.581748    0.066297
     41          6           0       -4.181802   -3.376224    0.418216
     42          6           0       -3.667920   -3.730694    1.808923
     43          8           0       -3.770507   -3.103526    2.837975
     44          8           0       -2.724214   -4.714457    1.695488
     45          6           0       -2.175205   -5.084395    3.003332
     46          6           0        2.820538   -0.511213   -1.193004
     47          6           0        4.131965   -0.328945   -0.397765
     48          6           0        5.188319    0.467952   -0.797971
     49          6           0        5.149497    1.366435   -1.971523
     50          6           0        6.499050    0.616264    0.037047
     51          6           0        7.662024    0.045397   -0.802874
     52          6           0        8.997358   -0.003114    0.073182
     53          6           0       10.097365   -0.501917   -0.729531
     54          6           0       10.003919   -2.002660   -1.305514
     55          6           0       11.480217   -0.273215    0.090270
     56          6           0       12.811682   -0.630228   -0.625520
     57          6           0       13.936515   -0.211494    0.268203
     58          6           0       15.309467   -0.260047   -0.438006
     59          6           0       15.811314   -1.660742   -0.878251
     60          6           0       16.458713    0.400195    0.489242
     61          6           0       17.820158    0.440778   -0.095805
     62          6           0       18.907477    1.177843    0.731790
     63          6           0       20.351791    1.299692   -0.011062
     64          6           0       20.241826    1.982917   -1.358745
     65          6           0       21.334577    1.950897    1.059049
     66          1           0       -4.049073    3.487498    1.386973
     67          1           0      -10.226260    3.993170   -0.447691
     68          1           0      -10.359102   -2.349231   -1.060246
     69          1           0       -2.845022   -0.971232    1.857566
     70          1           0       -2.478041    1.778152    1.026150
     71          1           0       -1.849990    0.870736    3.445535
     72          1           0       -2.990300    2.383300    3.454879
     73          1           0       -3.673712    0.589763    3.531459
     74          1           0       -1.836859   -1.785421   -0.504416
     75          1           0       -2.151314    0.035545   -0.654909
     76          1           0       -0.337056    0.491295    0.844069
     77          1           0       -0.294773   -1.074064    1.157953
     78          1           0       -5.841402    6.736322    0.531340
     79          1           0       -5.393332    5.941824    2.204562
     80          1           0       -4.486679    5.569118    0.639105
     81          1           0       -9.350834    5.815332   -0.521511
     82          1           0       -9.219846    7.835756    0.625990
     83          1           0       -7.551361    7.254113    1.359768
     84          1           0      -11.998089    3.360838   -1.824118
     85          1           0      -13.208172    1.707280   -1.414166
     86          1           0      -12.475778    2.968515   -0.128066
     87          1           0      -12.376022   -1.795902   -1.093524
     88          1           0      -13.236580   -0.216806   -1.305201
     89          1           0      -13.160063   -1.714316   -3.527752
     90          1           0      -12.637417   -0.010089   -3.688581
     91          1           0      -11.330777   -1.350858   -3.504634
     92          1           0       -9.337133   -4.591913   -1.776779
     93          1           0       -8.020198   -5.702619   -1.104811
     94          1           0       -9.465583   -5.149611   -0.140809
     95          1           0       -3.440113   -3.773534   -0.244821
     96          1           0       -1.710179   -4.127038    3.580990
     97          1           0       -3.022152   -5.822066    3.584642
     98          1           0       -1.280234   -5.898573    2.621509
     99          1           0        2.843981   -1.620677   -1.416046
    100          1           0        2.741012    0.073538   -2.126695
    101          1           0        4.209683   -1.031989    0.482141
    102          1           0        4.119446    1.473642   -2.399489
    103          1           0        5.551996    2.482927   -1.700687
    104          1           0        5.866503    0.981341   -2.736566
    105          1           0        6.811405    1.478649    0.053900
    106          1           0        6.276288   -0.104158    1.111061
    107          1           0        7.488547   -0.921546   -1.048281
    108          1           0        7.796928    0.681896   -1.547717
    109          1           0        9.103271    0.927937    0.495190
    110          1           0        9.054762   -0.615607    1.055919
    111          1           0       10.193485    0.271700   -1.639993
    112          1           0        9.107787   -1.810326   -1.904824
    113          1           0       10.714928   -2.259734   -1.915969
    114          1           0        9.766782   -2.656461   -0.333171
    115          1           0       11.323923    0.740572    0.330311
    116          1           0       11.610680   -1.032908    0.979682
    117          1           0       12.766497   -1.888459   -0.723829
    118          1           0       13.047445   -0.089878   -1.564698
    119          1           0       13.876918    0.774131    0.637806
    120          1           0       13.891644   -1.016848    1.067123
    121          1           0       15.251738    0.407400   -1.312506
    122          1           0       15.918875   -2.383069    0.045651
    123          1           0       14.879543   -2.078969   -1.316762
    124          1           0       16.588304   -1.774816   -1.643520
    125          1           0       16.014941    1.299728    0.938368
    126          1           0       16.435725   -0.226175    1.350233
    127          1           0       18.258461   -0.526540   -0.226554
    128          1           0       17.648438    0.915297   -1.108742
    129          1           0       18.432488    2.186621    1.090430
    130          1           0       19.335271    0.642629    1.718855
    131          1           0       20.859649    0.229826    0.033502
    132          1           0       19.806866    2.973835   -1.200910
    133          1           0       21.165596    2.117589   -1.880867
    134          1           0       19.723023    1.238702   -1.978883
    135          1           0       21.620069    1.360037    1.828258
    136          1           0       22.157620    2.134287    0.441361
    137          1           0       20.543223    2.857276    1.231354
 ---------------------------------------------------------------------

 SCF Done:  E(RCAM-B3LYP) =  -2933.44822531     A.U. after   16 cycles

 Excitation energies and oscillator strengths:

 Excited State   1:      Singlet-A      1.9950 eV  621.48 nm  f=0.2653  <S**2>=0.000
     240 -> 243        0.21007
     241 -> 242        0.66984
 This state for optimization and/or second-order correction.
 Total Energy, E(TD-HF/TD-DFT) =  -2933.37491092
 Copying the excited state density for this state as the 1-particle RhoCI density.

 The electronic state is 1-A.
 Alpha  occ. eigenvalues --  -46.79898 -19.21828 -19.21427 -19.16740 -19.16317
 Alpha  occ. eigenvalues --  -19.14806 -14.37224 -14.35612 -14.35263 -14.34977
 Alpha  occ. eigenvalues --  -10.33996 -10.33805 -10.30178 -10.29071 -10.28031
 Alpha  occ. eigenvalues --  -10.26534 -10.26427 -10.25740 -10.25070 -10.24744
 Alpha  occ. eigenvalues --  -10.24650 -10.24506 -10.24090 -10.23956 -10.23843
 Alpha  occ. eigenvalues --  -10.23818 -10.23776 -10.23622 -10.23353 -10.23178
 Alpha  occ. eigenvalues --  -10.23058 -10.22884 -10.22691 -10.22638 -10.22567
 Alpha  occ. eigenvalues --  -10.22558 -10.22505 -10.22503 -10.22450 -10.22375
 Alpha  occ. eigenvalues --  -10.22330 -10.22306 -10.22162 -10.22140 -10.22040
 Alpha  occ. eigenvalues --  -10.22013 -10.21928 -10.21887 -10.21856 -10.21837
 Alpha  occ. eigenvalues --  -10.21786 -10.21769 -10.21595 -10.21151 -10.20955
 Alpha  occ. eigenvalues --  -10.20702 -10.20653 -10.20592 -10.20495 -10.20406
 Alpha  occ. eigenvalues --  -10.20401 -10.20039 -10.19820 -10.19600 -10.19404
 Alpha  occ. eigenvalues --   -3.08525  -1.83468  -1.82971  -1.82952  -1.12234
 Alpha  occ. eigenvalues --   -1.11582  -1.04103  -1.03421  -1.03326  -1.00070
 Alpha  occ. eigenvalues --   -0.98965  -0.97987  -0.97023  -0.87545  -0.86447
 Alpha  occ. eigenvalues --   -0.86134  -0.84803  -0.84727  -0.84375  -0.84029
 Alpha  occ. eigenvalues --   -0.83480  -0.83074  -0.82475  -0.82345  -0.81593
 Alpha  occ. eigenvalues --   -0.79928  -0.79445  -0.79007  -0.78349  -0.77666
 Alpha  occ. eigenvalues --   -0.76043  -0.75795  -0.75504  -0.74796  -0.73875
 Alpha  occ. eigenvalues --   -0.73062  -0.71892  -0.71732  -0.71709  -0.70849
 Alpha  occ. eigenvalues --   -0.69903  -0.69350  -0.69105  -0.68790  -0.68568
 Alpha  occ. eigenvalues --   -0.67563  -0.66893  -0.65634  -0.64604  -0.64404
 Alpha  occ. eigenvalues --   -0.63366  -0.62477  -0.62253  -0.61352  -0.59762
 Alpha  occ. eigenvalues --   -0.59378  -0.58521  -0.58023  -0.57291  -0.56661
 Alpha  occ. eigenvalues --   -0.56363  -0.56267  -0.55660  -0.55431  -0.55161
 Alpha  occ. eigenvalues --   -0.54474  -0.54171  -0.53720  -0.53185  -0.52807
 Alpha  occ. eigenvalues --   -0.52617  -0.52352  -0.51813  -0.50920  -0.50748
 Alpha  occ. eigenvalues --   -0.50475  -0.50409  -0.49896  -0.49384  -0.49193
 Alpha  occ. eigenvalues --   -0.48986  -0.48618  -0.48468  -0.48098  -0.47828
 Alpha  occ. eigenvalues --   -0.47699  -0.47635  -0.47237  -0.47084  -0.46685
 Alpha  occ. eigenvalues --   -0.46494  -0.46444  -0.46409  -0.45939  -0.45817
 Alpha  occ. eigenvalues --   -0.45730  -0.45383  -0.45088  -0.44910  -0.44838
 Alpha  occ. eigenvalues --   -0.44402  -0.44359  -0.44093  -0.43867  -0.43595
 Alpha  occ. eigenvalues --   -0.43475  -0.43427  -0.43295  -0.42801  -0.42769
 Alpha  occ. eigenvalues --   -0.42436  -0.42394  -0.42225  -0.41973  -0.41570
 Alpha  occ. eigenvalues --   -0.41359  -0.41291  -0.41257  -0.41198  -0.40802
 Alpha  occ. eigenvalues --   -0.40729  -0.40559  -0.40537  -0.40178  -0.39840
 Alpha  occ. eigenvalues --   -0.39712  -0.39291  -0.39181  -0.38954  -0.38868
 Alpha  occ. eigenvalues --   -0.38851  -0.38662  -0.38623  -0.38449  -0.38401
 Alpha  occ. eigenvalues --   -0.38232  -0.38003  -0.37854  -0.37692  -0.37631
 Alpha  occ. eigenvalues --   -0.37056  -0.37014  -0.36912  -0.36674  -0.36388
 Alpha  occ. eigenvalues --   -0.35977  -0.35878  -0.35349  -0.35260  -0.34663
 Alpha  occ. eigenvalues --   -0.34536  -0.34125  -0.33860  -0.33757  -0.33539
 Alpha  occ. eigenvalues --   -0.33215  -0.32924  -0.32568  -0.32535  -0.32171
 Alpha  occ. eigenvalues --   -0.31965  -0.31125  -0.30721  -0.30405  -0.30157
 Alpha  occ. eigenvalues --   -0.30032  -0.29690  -0.29127  -0.28154  -0.26791
 Alpha  occ. eigenvalues --   -0.25946  -0.25817  -0.25490  -0.24246  -0.22054
 Alpha  occ. eigenvalues --   -0.19825
 Alpha virt. eigenvalues --   -0.07184  -0.04073  -0.00285   0.01668   0.03682
 Alpha virt. eigenvalues --    0.03830   0.03999   0.04768   0.05246   0.05942
 Alpha virt. eigenvalues --    0.06979   0.08321   0.09003   0.09453   0.09650

 Mulliken charges:
               1
     1  Mg   0.807426
     2  C    0.058265
     3  C   -0.214165
     4  C   -0.174066
     5  C   -0.193844
     6  N   -0.639574
     7  C    0.259344
     8  C   -0.115360
     9  C   -0.170647
    10  C    0.326912
    11  C   -0.302953
    12  C   -0.142003
    13  C   -0.254734
    14  C    0.591909
    15  O   -0.464595
    16  O   -0.484628
    17  N   -0.714655
    18  C    0.343962
    19  C   -0.001412
    20  C    0.045087
    21  C    0.300082
    22  C   -0.368889
    23  C   -0.113196
    24  C   -0.228040
    25  N   -0.669692
    26  C    0.292660
    27  C    0.046867
    28  C    0.047962
    29  C    0.248369
    30  C   -0.367429
    31  C   -0.276789
    32  C   -0.295744
    33  N   -0.766530
    34  C    0.312041
    35  C    0.069480
    36  C   -0.002024
    37  C    0.417822
    38  C   -0.372158
    39  C    0.301646
    40  O   -0.485536
    41  C   -0.319953
    42  C    0.620801
    43  O   -0.473995
    44  O   -0.443505
    45  C   -0.067782
    46  C   -0.001824
    47  C   -0.145212
    48  C    0.136900
    49  C   -0.369634
    50  C   -0.171378
    51  C   -0.198612
    52  C   -0.168312
    53  C   -0.071770
    54  C   -0.296896
    55  C   -0.153349
    56  C   -0.178500
    57  C   -0.154600
    58  C   -0.071067
    59  C   -0.315860
    60  C   -0.178386
    61  C   -0.164457
    62  C   -0.165381
    63  C   -0.087334
    64  C   -0.300811
    65  C   -0.294667
    66  H    0.062735
    67  H    0.087940
    68  H    0.078968
    69  H    0.121119
    70  H    0.105156
    71  H    0.106639
    72  H    0.116572
    73  H    0.131087
    74  H    0.118312
    75  H    0.115596
    76  H    0.135817
    77  H    0.144716
    78  H    0.125907
    79  H    0.128565
    80  H    0.116574
    81  H    0.077761
    82  H    0.104912
    83  H    0.102594
    84  H    0.096205
    85  H    0.105772
    86  H    0.121950
    87  H    0.108988
    88  H    0.094141
    89  H    0.113820
    90  H    0.107751
    91  H    0.100073
    92  H    0.115572
    93  H    0.158096
    94  H    0.122718
    95  H    0.167134
    96  H    0.131027
    97  H    0.116907
    98  H    0.095541
    99  H    0.131737
   100  H    0.126234
   101  H    0.087224
   102  H    0.111320
   103  H    0.091762
   104  H    0.125405
   105  H    0.094387
   106  H    0.064613
   107  H    0.118272
   108  H    0.106513
   109  H    0.097714
   110  H    0.075371
   111  H    0.049489
   112  H    0.102364
   113  H    0.121015
   114  H    0.088317
   115  H    0.090131
   116  H    0.070400
   117  H    0.071042
   118  H    0.084908
   119  H    0.100605
   120  H    0.083318
   121  H    0.076305
   122  H    0.086341
   123  H    0.094762
   124  H    0.111655
   125  H    0.074005
   126  H    0.090803
   127  H    0.105410
   128  H    0.086335
   129  H    0.071817
   130  H    0.072320
   131  H    0.064137
   132  H    0.106091
   133  H    0.101386
   134  H    0.115499
   135  H    0.113417
   136  H    0.103232
   137  H    0.082091
 Sum of Mulliken charges =  -0.00000

 Dipole moment (field-independent basis, Debye):
    X=              0.3441    Y=              4.5410    Z=             -0.4808  Tot=              4.5794
 Quadrupole moment (field-independent basis, Debye-Ang):
   XX=           -348.4339   YY=           -399.8915   ZZ=           -399.4466
   XY=            -22.6188   XZ=              2.0289   YZ=             -2.4726

 Normal termination of Gaussian 16 at Tue Sep 17 17:24:59 2019.
