 Gaussian 09, Revision D.01,
 Gaussian 09:  ES64L-G09RevD.01 24-Apr-2013

 -------------------------------------
 # td=(NStates=1) CAM-B3LYP/6-31G(d,p)
 -------------------------------------

 --
 TD
 --
 Symbolic Z-matrix:
 Charge =  0 Multiplicity = 1

                         Standard orientation:
 ---------------------------------------------------------------------
 Center     Atomic      Atomic             Coordinates (Angstroms)
 Number     Number       Type             X           Y           Z
 ---------------------------------------------------------------------
      1         12           0       -7.132389    0.697616    0.038045
      2          6           0       -4.875843   -1.961563    0.602341
      3          6           0       -4.715746    2.892149    1.094852
      4          6           0       -9.445351    3.075372   -0.426784
      5          6           0       -9.503211   -1.691625   -0.867455
      6          7           0       -5.084641    0.537393    0.837045
      7          6           0       -4.337286   -0.649847    0.814500
      8          6           0       -2.911121   -0.410363    1.242184
      9          6           0       -2.903373    1.083652    1.698763
     10          6           0       -4.251720    1.497008    1.173267
     11          6           0       -2.890186    1.200872    3.286515
     12          6           0       -1.802851   -0.552950    0.117676
     13          6           0       -0.459920   -0.529624    0.617896
     14          6           0        0.454318   -0.691651   -0.597005
     15          8           0        0.165412   -0.945201   -1.676248
     16          8           0        1.709217   -0.660415   -0.184781
     17          7           0       -7.137098    2.579578    0.416578
     18          6           0       -6.037169    3.347448    0.757372
     19          6           0       -6.351039    4.706432    0.821155
     20          6           0       -7.726400    4.834423    0.363868
     21          6           0       -8.141825    3.408178    0.061073
     22          6           0       -5.388391    5.796847    1.089979
     23          6           0       -8.494398    5.997250    0.102271
     24          6           0       -8.419206    7.223884    0.727119
     25          7           0       -9.098187    0.716494   -0.582218
     26          6           0       -9.852298    1.721696   -0.752143
     27          6           0      -11.183981    1.504412   -1.118899
     28          6           0      -11.202631    0.099232   -1.199825
     29          6           0       -9.935003   -0.345356   -0.964684
     30          6           0      -12.318272    2.590058   -1.364221
     31          6           0      -12.337621   -0.732372   -1.692079
     32          6           0      -12.409580   -1.075775   -3.239764
     33          7           0       -7.273103   -1.350729   -0.086801
     34          6           0       -8.233057   -2.206338   -0.617044
     35          6           0       -7.753195   -3.633173   -0.636211
     36          6           0       -6.555928   -3.505478   -0.123460
     37          6           0       -6.113334   -2.166935    0.160088
     38          6           0       -8.626723   -4.867491   -0.949608
     39          6           0       -5.253651   -4.248797    0.121146
     40          8           0       -5.125023   -5.581617    0.134060
     41          6           0       -4.180254   -3.302744    0.577462
     42          6           0       -3.611602   -3.794813    1.969552
     43          8           0       -3.872998   -3.268180    3.003106
     44          8           0       -2.726962   -4.814217    1.731227
     45          6           0       -2.256526   -5.224157    2.977934
     46          6           0        2.774939   -0.681901   -1.266701
     47          6           0        4.036353   -0.454023   -0.532977
     48          6           0        5.137245    0.402202   -0.928060
     49          6           0        5.085588    1.224622   -2.228823
     50          6           0        6.337894    0.396646   -0.177803
     51          6           0        7.513084   -0.377156   -0.849707
     52          6           0        8.900215   -0.144994   -0.139345
     53          6           0       10.113906   -0.584293   -0.898429
     54          6           0       10.128656   -2.091119   -1.332182
     55          6           0       11.427302   -0.309187   -0.090035
     56          6           0       12.830997   -0.360049   -0.777301
     57          6           0       13.968001    0.002191    0.111389
     58          6           0       15.296256    0.038004   -0.561159
     59          6           0       15.768063   -1.428400   -1.106168
     60          6           0       16.345202    0.516923    0.504983
     61          6           0       17.728976    0.603737   -0.074009
     62          6           0       18.750327    1.367030    0.799011
     63          6           0       20.202593    1.253409    0.267313
     64          6           0       20.336455    2.059201   -0.997445
     65          6           0       21.228195    1.717855    1.298476
     66          1           0       -4.113919    3.564879    1.345170
     67          1           0      -10.066382    3.933794   -0.786653
     68          1           0      -10.320337   -2.605681   -1.215711
     69          1           0       -2.537560   -1.033365    2.101429
     70          1           0       -2.111331    1.709339    1.193381
     71          1           0       -1.906591    0.831998    3.788823
     72          1           0       -2.814935    2.317521    3.438006
     73          1           0       -3.671335    0.789339    3.731596
     74          1           0       -1.901168   -1.480114   -0.357151
     75          1           0       -2.185050   -0.138132   -0.779686
     76          1           0       -0.151869    0.507700    1.094200
     77          1           0       -0.330880   -1.144338    1.473741
     78          1           0       -5.633025    6.646316    0.531713
     79          1           0       -5.554054    6.257496    2.171239
     80          1           0       -4.385444    5.619756    1.130649
     81          1           0       -9.333059    5.870192   -0.665021
     82          1           0       -9.223966    8.073034    0.555353
     83          1           0       -7.535595    7.451378    1.327758
     84          1           0      -12.064270    3.183438   -2.130735
     85          1           0      -13.283015    2.026362   -1.444512
     86          1           0      -12.528416    3.253361   -0.380669
     87          1           0      -12.108519   -1.582728   -1.123559
     88          1           0      -13.278081   -0.388663   -1.368937
     89          1           0      -13.217438   -1.583977   -3.593831
     90          1           0      -12.407947   -0.070532   -3.604058
     91          1           0      -11.452125   -1.909431   -3.300927
     92          1           0       -9.192224   -4.696612   -1.901576
     93          1           0       -7.950078   -5.812762   -0.879901
     94          1           0       -9.292755   -4.999819    0.000784
     95          1           0       -3.391090   -3.325974   -0.451657
     96          1           0       -1.690866   -4.378466    3.382155
     97          1           0       -2.819483   -5.662634    3.761470
     98          1           0       -1.600981   -5.954313    2.762811
     99          1           0        2.754476   -1.710939   -1.598848
    100          1           0        2.458817    0.124183   -1.805404
    101          1           0        4.124717   -1.068385    0.246640
    102          1           0        4.076725    1.424338   -2.444220
    103          1           0        5.557597    2.271577   -1.802341
    104          1           0        5.655486    0.828001   -3.114857
    105          1           0        6.579047    1.348886    0.266121
    106          1           0        6.104232   -0.243544    0.633720
    107          1           0        7.212295   -1.569220   -0.955335
    108          1           0        7.514507   -0.082728   -1.988437
    109          1           0        8.937547    1.007875    0.142896
    110          1           0        8.730902   -0.809150    0.750992
    111          1           0       10.254114   -0.136508   -1.821095
    112          1           0        9.441334   -2.357520   -1.973204
    113          1           0       11.099979   -2.039241   -2.117231
    114          1           0       10.319038   -2.858570   -0.630170
    115          1           0       11.416876    0.687489    0.341349
    116          1           0       11.460907   -1.078940    0.652052
    117          1           0       13.016964   -1.523096   -1.235376
    118          1           0       12.528706    0.209354   -1.576708
    119          1           0       13.589820    0.910916    0.720346
    120          1           0       13.911991   -0.687391    0.953530
    121          1           0       15.582749    0.881079   -1.454473
    122          1           0       15.903725   -2.222312   -0.381022
    123          1           0       14.881669   -1.816477   -1.814696
    124          1           0       16.739508   -1.331236   -1.838710
    125          1           0       15.981477    1.477459    0.899995
    126          1           0       16.298177   -0.207706    1.222926
    127          1           0       18.135362   -0.164193   -0.305376
    128          1           0       17.829991    1.111577   -1.108779
    129          1           0       18.572188    2.402990    0.826416
    130          1           0       18.704332    0.842219    1.811518
    131          1           0       20.432048    0.211610    0.094966
    132          1           0       19.957489    3.040063   -0.843385
    133          1           0       21.385366    2.052532   -1.288376
    134          1           0       19.724063    1.609959   -1.802321
    135          1           0       21.092732    1.173517    2.281580
    136          1           0       22.305136    1.479048    0.888205
    137          1           0       21.009146    2.719271    1.660582
 ---------------------------------------------------------------------

 SCF Done:  E(RCAM-B3LYP) =  -2932.55647180     A.U. after   18 cycles

 Excitation energies and oscillator strengths:

 Excited State   1:      Singlet-A      2.0116 eV  616.34 nm  f=0.1407  <S**2>=0.000
     240 -> 242       -0.11067
     240 -> 243        0.31255
     241 -> 242        0.60672
     241 -> 243        0.11813
 This state for optimization and/or second-order correction.
 Total Energy, E(TD-HF/TD-KS) =  -2932.48254612
 Copying the excited state density for this state as the 1-particle RhoCI density.

 The electronic state is 1-A.
 Alpha  occ. eigenvalues --  -46.83981 -19.27432 -19.24388 -19.23066 -19.20873
 Alpha  occ. eigenvalues --  -19.19571 -14.42622 -14.39424 -14.39192 -14.38132
 Alpha  occ. eigenvalues --  -10.40750 -10.38137 -10.35530 -10.31711 -10.31511
 Alpha  occ. eigenvalues --  -10.31279 -10.31015 -10.29861 -10.29773 -10.29348
 Alpha  occ. eigenvalues --  -10.29258 -10.28746 -10.28683 -10.28614 -10.28553
 Alpha  occ. eigenvalues --  -10.28330 -10.28269 -10.28100 -10.28006 -10.27860
 Alpha  occ. eigenvalues --  -10.27855 -10.27791 -10.27641 -10.27629 -10.27455
 Alpha  occ. eigenvalues --  -10.27389 -10.27342 -10.27235 -10.27227 -10.27192
 Alpha  occ. eigenvalues --  -10.27091 -10.26963 -10.26948 -10.26398 -10.26148
 Alpha  occ. eigenvalues --  -10.26125 -10.25953 -10.25740 -10.25687 -10.25530
 Alpha  occ. eigenvalues --  -10.25383 -10.25329 -10.25314 -10.25165 -10.25054
 Alpha  occ. eigenvalues --  -10.25001 -10.24950 -10.24911 -10.24619 -10.24550
 Alpha  occ. eigenvalues --  -10.24448 -10.24332 -10.24014 -10.23687 -10.22957
 Alpha  occ. eigenvalues --   -3.13148  -1.87830  -1.87423  -1.87310  -1.19992
 Alpha  occ. eigenvalues --   -1.19920  -1.12133  -1.10262  -1.05282  -1.04992
 Alpha  occ. eigenvalues --   -1.04522  -1.02895  -1.01505  -0.93329  -0.91789
 Alpha  occ. eigenvalues --   -0.91105  -0.90853  -0.89874  -0.89000  -0.88443
 Alpha  occ. eigenvalues --   -0.88430  -0.87614  -0.86981  -0.86544  -0.85690
 Alpha  occ. eigenvalues --   -0.85366  -0.84584  -0.83672  -0.82963  -0.81874
 Alpha  occ. eigenvalues --   -0.81463  -0.81013  -0.80099  -0.79837  -0.77905
 Alpha  occ. eigenvalues --   -0.77893  -0.77032  -0.76972  -0.76316  -0.75562
 Alpha  occ. eigenvalues --   -0.75139  -0.75041  -0.74294  -0.73389  -0.72254
 Alpha  occ. eigenvalues --   -0.71840  -0.71073  -0.70334  -0.69432  -0.68303
 Alpha  occ. eigenvalues --   -0.67657  -0.66851  -0.65497  -0.64822  -0.64714
 Alpha  occ. eigenvalues --   -0.64100  -0.63879  -0.63173  -0.63019  -0.62239
 Alpha  occ. eigenvalues --   -0.62053  -0.61504  -0.60429  -0.59810  -0.59350
 Alpha  occ. eigenvalues --   -0.58702  -0.58100  -0.57827  -0.57377  -0.57284
 Alpha  occ. eigenvalues --   -0.56611  -0.55785  -0.55652  -0.55334  -0.55184
 Alpha  occ. eigenvalues --   -0.54567  -0.54418  -0.54367  -0.53975  -0.53247
 Alpha  occ. eigenvalues --   -0.53013  -0.52513  -0.52348  -0.51747  -0.51456
 Alpha  occ. eigenvalues --   -0.51313  -0.51250  -0.51133  -0.51090  -0.50811
 Alpha  occ. eigenvalues --   -0.50256  -0.50008  -0.49918  -0.49636  -0.49501
 Alpha  occ. eigenvalues --   -0.49183  -0.49057  -0.48928  -0.48702  -0.48580
 Alpha  occ. eigenvalues --   -0.48285  -0.48154  -0.47883  -0.47823  -0.47402
 Alpha  occ. eigenvalues --   -0.47147  -0.47031  -0.46876  -0.46276  -0.46232
 Alpha  occ. eigenvalues --   -0.45937  -0.45606  -0.45522  -0.45410  -0.45352
 Alpha  occ. eigenvalues --   -0.45084  -0.44655  -0.44418  -0.44087  -0.43926
 Alpha  occ. eigenvalues --   -0.43879  -0.43747  -0.43639  -0.43480  -0.43357
 Alpha  occ. eigenvalues --   -0.43282  -0.43153  -0.42934  -0.42513  -0.42166
 Alpha  occ. eigenvalues --   -0.42149  -0.42109  -0.41958  -0.41275  -0.41185
 Alpha  occ. eigenvalues --   -0.41040  -0.40864  -0.40853  -0.40567  -0.40416
 Alpha  occ. eigenvalues --   -0.40034  -0.39637  -0.39510  -0.39491  -0.38904
 Alpha  occ. eigenvalues --   -0.38527  -0.38477  -0.38011  -0.37651  -0.37447
 Alpha  occ. eigenvalues --   -0.37410  -0.37175  -0.37111  -0.36893  -0.36810
 Alpha  occ. eigenvalues --   -0.36677  -0.36459  -0.36346  -0.36153  -0.35965
 Alpha  occ. eigenvalues --   -0.35512  -0.35236  -0.35005  -0.34863  -0.34141
 Alpha  occ. eigenvalues --   -0.33635  -0.33229  -0.32186  -0.30871  -0.29694
 Alpha  occ. eigenvalues --   -0.29272  -0.28616  -0.27706  -0.26298  -0.22464
 Alpha  occ. eigenvalues --   -0.20734
 Alpha virt. eigenvalues --   -0.05776  -0.04296   0.00215   0.03393   0.03749
 Alpha virt. eigenvalues --    0.05078   0.05510   0.06928   0.07225   0.07956
 Alpha virt. eigenvalues --    0.08382   0.10181   0.10686   0.11073   0.11765

 Mulliken charges:
               1
     1  Mg   0.840961
     2  C    0.081965
     3  C   -0.156656
     4  C   -0.168704
     5  C   -0.194034
     6  N   -0.592802
     7  C    0.271870
     8  C   -0.179273
     9  C   -0.139862
    10  C    0.327990
    11  C   -0.296945
    12  C   -0.181990
    13  C   -0.264627
    14  C    0.605319
    15  O   -0.438400
    16  O   -0.517319
    17  N   -0.761308
    18  C    0.318839
    19  C    0.041136
    20  C    0.004676
    21  C    0.314001
    22  C   -0.383433
    23  C   -0.096904
    24  C   -0.254054
    25  N   -0.670711
    26  C    0.324941
    27  C    0.010660
    28  C   -0.009383
    29  C    0.278059
    30  C   -0.353965
    31  C   -0.252362
    32  C   -0.284574
    33  N   -0.705561
    34  C    0.245182
    35  C    0.007531
    36  C    0.045171
    37  C    0.273717
    38  C   -0.367276
    39  C    0.352399
    40  O   -0.513888
    41  C   -0.317320
    42  C    0.652426
    43  O   -0.437673
    44  O   -0.429841
    45  C   -0.090151
    46  C    0.031046
    47  C   -0.129614
    48  C    0.091643
    49  C   -0.343051
    50  C   -0.222922
    51  C   -0.184393
    52  C   -0.150494
    53  C   -0.066669
    54  C   -0.310520
    55  C   -0.191347
    56  C   -0.165666
    57  C   -0.168885
    58  C   -0.049527
    59  C   -0.314346
    60  C   -0.165047
    61  C   -0.152903
    62  C   -0.175556
    63  C   -0.069265
    64  C   -0.298661
    65  C   -0.302105
    66  H    0.025790
    67  H    0.088809
    68  H    0.074529
    69  H    0.111418
    70  H    0.112771
    71  H    0.096264
    72  H    0.103893
    73  H    0.143328
    74  H    0.115519
    75  H    0.123749
    76  H    0.108103
    77  H    0.144535
    78  H    0.133562
    79  H    0.101028
    80  H    0.127167
    81  H    0.090741
    82  H    0.104254
    83  H    0.100352
    84  H    0.137745
    85  H    0.113971
    86  H    0.103987
    87  H    0.104746
    88  H    0.100830
    89  H    0.118685
    90  H    0.118639
    91  H    0.074967
    92  H    0.126273
    93  H    0.150639
    94  H    0.131089
    95  H    0.154597
    96  H    0.109384
    97  H    0.135127
    98  H    0.120359
    99  H    0.142517
   100  H    0.128752
   101  H    0.092898
   102  H    0.119079
   103  H    0.085183
   104  H    0.130812
   105  H    0.107516
   106  H    0.113123
   107  H    0.077396
   108  H    0.074513
   109  H    0.081215
   110  H    0.099727
   111  H    0.095461
   112  H    0.115847
   113  H    0.064797
   114  H    0.110013
   115  H    0.084514
   116  H    0.090950
   117  H    0.056832
   118  H    0.102638
   119  H    0.082059
   120  H    0.104285
   121  H    0.067539
   122  H    0.112798
   123  H    0.088865
   124  H    0.088713
   125  H    0.091060
   126  H    0.097897
   127  H    0.099220
   128  H    0.061475
   129  H    0.091117
   130  H    0.073849
   131  H    0.084415
   132  H    0.104210
   133  H    0.097225
   134  H    0.096918
   135  H    0.088832
   136  H    0.087992
   137  H    0.101355
 Sum of Mulliken charges =   0.00000

 Dipole moment (field-independent basis, Debye):
    X=              3.7817    Y=              4.0508    Z=              0.3023  Tot=              5.5500
 Quadrupole moment (field-independent basis, Debye-Ang):
   XX=           -372.7270   YY=           -396.8778   ZZ=           -397.7973
   XY=            -25.9080   XZ=             16.1094   YZ=             -4.4026

 Normal termination of Gaussian 09 at Sun Jul  7 02:00:23 2019.
