 Gaussian 09, Revision D.01,
 Gaussian 09:  ES64L-G09RevD.01 24-Apr-2013

 -------------------------------------
 # td=(NStates=1) CAM-B3LYP/6-31G(d,p)
 -------------------------------------

 --
 TD
 --
 Symbolic Z-matrix:
 Charge =  0 Multiplicity = 1

                         Standard orientation:
 ---------------------------------------------------------------------
 Center     Atomic      Atomic             Coordinates (Angstroms)
 Number     Number       Type             X           Y           Z
 ---------------------------------------------------------------------
      1         12           0       -7.109985    0.685943    0.069629
      2          6           0       -4.893227   -1.938775    0.536036
      3          6           0       -4.850242    2.828162    1.145055
      4          6           0       -9.354850    3.120333   -0.489465
      5          6           0       -9.473245   -1.747471   -0.863063
      6          7           0       -5.183948    0.475191    0.734354
      7          6           0       -4.353659   -0.729238    0.809627
      8          6           0       -2.964582   -0.384210    1.370791
      9          6           0       -3.033372    1.078097    1.736341
     10          6           0       -4.453529    1.449656    1.209893
     11          6           0       -3.028161    1.336765    3.285609
     12          6           0       -1.907320   -0.656912    0.176647
     13          6           0       -0.462021   -0.559259    0.702908
     14          6           0        0.562414   -0.665516   -0.530036
     15          8           0        0.201294   -1.012912   -1.671800
     16          8           0        1.805516   -0.394718   -0.211328
     17          7           0       -7.095268    2.579592    0.293959
     18          6           0       -6.069710    3.262015    0.714535
     19          6           0       -6.486177    4.775344    0.673540
     20          6           0       -7.723935    4.806678    0.242024
     21          6           0       -8.147817    3.466120    0.049658
     22          6           0       -5.503845    5.945236    1.081482
     23          6           0       -8.506729    6.004743    0.117033
     24          6           0       -8.541688    7.101953    0.913231
     25          7           0       -9.097647    0.690112   -0.539328
     26          6           0       -9.896044    1.822348   -0.698488
     27          6           0      -11.182107    1.438753   -1.094135
     28          6           0      -11.155704    0.030267   -1.311022
     29          6           0       -9.875715   -0.425765   -0.868221
     30          6           0      -12.292184    2.374656   -1.396532
     31          6           0      -12.346083   -0.739883   -1.723201
     32          6           0      -12.292275   -1.117240   -3.191522
     33          7           0       -7.263867   -1.378606   -0.164634
     34          6           0       -8.248130   -2.202261   -0.563861
     35          6           0       -7.869324   -3.633451   -0.499885
     36          6           0       -6.508411   -3.537205   -0.127049
     37          6           0       -6.185687   -2.106688    0.027416
     38          6           0       -8.627822   -4.761679   -0.801950
     39          6           0       -5.280443   -4.332119    0.202788
     40          8           0       -5.220870   -5.601737    0.144739
     41          6           0       -4.241301   -3.301879    0.581053
     42          6           0       -3.593192   -3.656486    2.014801
     43          8           0       -3.807572   -3.042676    3.026731
     44          8           0       -2.769159   -4.626756    1.777824
     45          6           0       -2.111612   -5.288454    2.913723
     46          6           0        2.842285   -0.570945   -1.240650
     47          6           0        4.153285   -0.503366   -0.624492
     48          6           0        5.191814    0.382740   -0.986686
     49          6           0        5.140332    1.301661   -2.156183
     50          6           0        6.522797    0.315334   -0.253087
     51          6           0        7.577973   -0.270170   -1.145873
     52          6           0        8.987344   -0.166148   -0.344674
     53          6           0       10.214795   -0.601884   -0.961848
     54          6           0       10.199038   -2.070754   -1.404169
     55          6           0       11.443727   -0.347795   -0.075080
     56          6           0       12.842922   -0.569963   -0.748307
     57          6           0       14.005512   -0.173486    0.208398
     58          6           0       15.339909   -0.173574   -0.477115
     59          6           0       15.750301   -1.622856   -0.776440
     60          6           0       16.350876    0.565039    0.430402
     61          6           0       17.823677    0.625827   -0.160232
     62          6           0       18.823692    1.298407    0.849526
     63          6           0       20.233837    1.383908    0.327328
     64          6           0       20.311151    2.315384   -0.920072
     65          6           0       21.177190    1.836153    1.233727
     66          1           0       -4.166659    3.521351    1.477426
     67          1           0      -10.131357    3.724749   -0.733188
     68          1           0      -10.180755   -2.481315   -1.180892
     69          1           0       -2.701135   -1.161685    2.315718
     70          1           0       -2.362344    1.627602    1.362257
     71          1           0       -1.945606    0.945351    3.442241
     72          1           0       -3.124161    2.328759    3.481362
     73          1           0       -3.966129    0.908044    3.588227
     74          1           0       -2.097789   -1.765585   -0.068549
     75          1           0       -1.945183   -0.034232   -0.847742
     76          1           0       -0.456733    0.511567    1.103684
     77          1           0       -0.208066   -1.252537    1.515925
     78          1           0       -5.795037    6.935852    0.558989
     79          1           0       -5.530501    5.970943    2.217295
     80          1           0       -4.446029    5.783481    0.814311
     81          1           0       -9.393630    5.787767   -0.684070
     82          1           0       -9.426558    7.880964    0.812528
     83          1           0       -7.988447    7.148080    1.888916
     84          1           0      -12.131440    3.033931   -2.409342
     85          1           0      -13.219101    1.969887   -1.796392
     86          1           0      -12.513383    3.083347   -0.555856
     87          1           0      -12.549574   -1.636161   -1.088576
     88          1           0      -13.248708   -0.009555   -1.747219
     89          1           0      -13.275258   -1.595253   -3.479271
     90          1           0      -12.129059   -0.199012   -3.650579
     91          1           0      -11.338466   -1.716309   -3.348428
     92          1           0       -9.229520   -4.491941   -1.794778
     93          1           0       -8.031243   -5.886494   -1.155911
     94          1           0       -9.300353   -4.904714    0.009183
     95          1           0       -3.370205   -3.401846   -0.064384
     96          1           0       -1.762028   -4.517962    3.648847
     97          1           0       -3.125955   -5.686756    3.343313
     98          1           0       -1.419968   -6.049724    2.625661
     99          1           0        2.423307   -1.451193   -1.843541
    100          1           0        2.672784    0.096403   -1.884983
    101          1           0        4.445517   -1.174587    0.173990
    102          1           0        4.226372    1.525486   -2.629843
    103          1           0        5.493274    2.366723   -1.973449
    104          1           0        5.580001    1.078647   -3.011401
    105          1           0        6.778961    1.265388   -0.026408
    106          1           0        6.459565   -0.262072    0.700464
    107          1           0        7.303073   -1.285297   -1.168944
    108          1           0        7.657202    0.001758   -2.303393
    109          1           0        9.113978    1.020687   -0.000744
    110          1           0        8.936541   -0.556979    0.598660
    111          1           0       10.304785    0.111448   -1.836055
    112          1           0        9.220212   -2.353360   -2.006891
    113          1           0       11.000421   -2.387138   -2.095703
    114          1           0       10.280513   -2.797359   -0.483058
    115          1           0       11.532453    0.672344    0.041457
    116          1           0       11.295876   -1.006313    0.749413
    117          1           0       13.176474   -1.637667   -0.930306
    118          1           0       12.788755    0.038371   -1.639341
    119          1           0       13.978917    0.820293    0.682695
    120          1           0       13.940857   -0.886952    1.144092
    121          1           0       15.187759    0.394689   -1.558795
    122          1           0       15.632555   -2.490473   -0.025049
    123          1           0       15.011767   -2.056943   -1.473834
    124          1           0       16.775648   -1.674719   -1.392112
    125          1           0       16.152396    1.520603    0.897312
    126          1           0       16.653017   -0.019520    1.328027
    127          1           0       18.098112   -0.475171   -0.540251
    128          1           0       17.719702    1.366482   -1.026747
    129          1           0       18.279064    1.978925    1.268463
    130          1           0       18.764508    0.625260    1.694647
    131          1           0       20.502060    0.379755   -0.008385
    132          1           0       20.074506    3.472438   -0.589351
    133          1           0       21.240107    2.108757   -1.466428
    134          1           0       19.513620    1.769283   -1.697795
    135          1           0       21.304772    1.262261    2.009011
    136          1           0       22.153408    2.098682    0.812134
    137          1           0       20.760419    2.744632    1.554989
 ---------------------------------------------------------------------

 SCF Done:  E(RCAM-B3LYP) =  -2932.63873434     A.U. after   17 cycles

 Excitation energies and oscillator strengths:

 Excited State   1:      Singlet-A      2.2588 eV  548.89 nm  f=0.2459  <S**2>=0.000
     240 -> 243       -0.24546
     241 -> 242        0.65406
 This state for optimization and/or second-order correction.
 Total Energy, E(TD-HF/TD-KS) =  -2932.55572459
 Copying the excited state density for this state as the 1-particle RhoCI density.

 The electronic state is 1-A.
 Alpha  occ. eigenvalues --  -46.82825 -19.27735 -19.26592 -19.21639 -19.20390
 Alpha  occ. eigenvalues --  -19.19347 -14.41779 -14.39198 -14.38982 -14.37536
 Alpha  occ. eigenvalues --  -10.40041 -10.39622 -10.34727 -10.33462 -10.31285
 Alpha  occ. eigenvalues --  -10.30939 -10.30696 -10.29939 -10.29414 -10.29183
 Alpha  occ. eigenvalues --  -10.29170 -10.28687 -10.28459 -10.28448 -10.28290
 Alpha  occ. eigenvalues --  -10.28236 -10.27821 -10.27741 -10.27602 -10.27578
 Alpha  occ. eigenvalues --  -10.27574 -10.27481 -10.27297 -10.26985 -10.26971
 Alpha  occ. eigenvalues --  -10.26947 -10.26933 -10.26540 -10.26389 -10.26382
 Alpha  occ. eigenvalues --  -10.26370 -10.26363 -10.26358 -10.26160 -10.25990
 Alpha  occ. eigenvalues --  -10.25983 -10.25932 -10.25844 -10.25816 -10.25667
 Alpha  occ. eigenvalues --  -10.25658 -10.25634 -10.25545 -10.25343 -10.25139
 Alpha  occ. eigenvalues --  -10.25132 -10.24992 -10.24728 -10.24727 -10.24693
 Alpha  occ. eigenvalues --  -10.24437 -10.24381 -10.24026 -10.23435 -10.21322
 Alpha  occ. eigenvalues --   -3.12213  -1.86892  -1.86470  -1.86407  -1.20230
 Alpha  occ. eigenvalues --   -1.18406  -1.10884  -1.07571  -1.07093  -1.04941
 Alpha  occ. eigenvalues --   -1.04476  -1.03154  -1.00361  -0.92857  -0.92135
 Alpha  occ. eigenvalues --   -0.91364  -0.90786  -0.90242  -0.89765  -0.89326
 Alpha  occ. eigenvalues --   -0.88675  -0.87823  -0.87212  -0.87061  -0.86584
 Alpha  occ. eigenvalues --   -0.85061  -0.84378  -0.83910  -0.82876  -0.82465
 Alpha  occ. eigenvalues --   -0.82110  -0.81791  -0.80804  -0.80642  -0.78132
 Alpha  occ. eigenvalues --   -0.77681  -0.76846  -0.76777  -0.75819  -0.75674
 Alpha  occ. eigenvalues --   -0.74912  -0.74687  -0.74255  -0.74063  -0.71924
 Alpha  occ. eigenvalues --   -0.71441  -0.70215  -0.68992  -0.68039  -0.67540
 Alpha  occ. eigenvalues --   -0.67359  -0.67211  -0.65409  -0.64718  -0.64356
 Alpha  occ. eigenvalues --   -0.64155  -0.63926  -0.63824  -0.63145  -0.62766
 Alpha  occ. eigenvalues --   -0.62102  -0.61547  -0.60281  -0.60161  -0.59125
 Alpha  occ. eigenvalues --   -0.58071  -0.58007  -0.57333  -0.57249  -0.56836
 Alpha  occ. eigenvalues --   -0.56488  -0.56387  -0.55964  -0.55308  -0.54918
 Alpha  occ. eigenvalues --   -0.54884  -0.54857  -0.54210  -0.53625  -0.53237
 Alpha  occ. eigenvalues --   -0.52838  -0.52619  -0.52175  -0.51961  -0.51876
 Alpha  occ. eigenvalues --   -0.51671  -0.51378  -0.51229  -0.51039  -0.50691
 Alpha  occ. eigenvalues --   -0.50433  -0.50280  -0.49962  -0.49762  -0.49471
 Alpha  occ. eigenvalues --   -0.49234  -0.48952  -0.48898  -0.48667  -0.48487
 Alpha  occ. eigenvalues --   -0.48369  -0.48210  -0.48014  -0.47662  -0.47299
 Alpha  occ. eigenvalues --   -0.47162  -0.46528  -0.46404  -0.46310  -0.46143
 Alpha  occ. eigenvalues --   -0.46028  -0.45480  -0.45396  -0.45000  -0.44921
 Alpha  occ. eigenvalues --   -0.44692  -0.44479  -0.44308  -0.44116  -0.43950
 Alpha  occ. eigenvalues --   -0.43705  -0.43622  -0.43576  -0.43405  -0.42965
 Alpha  occ. eigenvalues --   -0.42591  -0.42283  -0.42203  -0.42128  -0.41877
 Alpha  occ. eigenvalues --   -0.41797  -0.41537  -0.41472  -0.41385  -0.41244
 Alpha  occ. eigenvalues --   -0.40929  -0.40742  -0.40631  -0.40276  -0.40119
 Alpha  occ. eigenvalues --   -0.39846  -0.39635  -0.39602  -0.38909  -0.38851
 Alpha  occ. eigenvalues --   -0.38681  -0.38478  -0.38387  -0.38286  -0.37908
 Alpha  occ. eigenvalues --   -0.37895  -0.37564  -0.37342  -0.36663  -0.36499
 Alpha  occ. eigenvalues --   -0.36333  -0.36261  -0.36048  -0.35975  -0.35924
 Alpha  occ. eigenvalues --   -0.35881  -0.35011  -0.34409  -0.33943  -0.33923
 Alpha  occ. eigenvalues --   -0.33537  -0.32455  -0.31864  -0.30515  -0.29525
 Alpha  occ. eigenvalues --   -0.29203  -0.28653  -0.28237  -0.26123  -0.23431
 Alpha  occ. eigenvalues --   -0.20706
 Alpha virt. eigenvalues --   -0.04879  -0.02286   0.01514   0.03713   0.04045
 Alpha virt. eigenvalues --    0.06254   0.06426   0.06727   0.07097   0.07260
 Alpha virt. eigenvalues --    0.08305   0.10577   0.11210   0.11764   0.12035

 Mulliken charges:
               1
     1  Mg   0.817140
     2  C    0.085172
     3  C   -0.219463
     4  C   -0.162584
     5  C   -0.160830
     6  N   -0.641533
     7  C    0.264281
     8  C   -0.167962
     9  C   -0.114442
    10  C    0.344868
    11  C   -0.295596
    12  C   -0.172209
    13  C   -0.261888
    14  C    0.594829
    15  O   -0.499535
    16  O   -0.460730
    17  N   -0.754564
    18  C    0.377205
    19  C   -0.037666
    20  C    0.079371
    21  C    0.318517
    22  C   -0.370062
    23  C   -0.078689
    24  C   -0.251883
    25  N   -0.702715
    26  C    0.273562
    27  C    0.018831
    28  C    0.030609
    29  C    0.286172
    30  C   -0.386065
    31  C   -0.255210
    32  C   -0.293662
    33  N   -0.688495
    34  C    0.273086
    35  C    0.083840
    36  C   -0.046410
    37  C    0.299428
    38  C   -0.393551
    39  C    0.388889
    40  O   -0.503835
    41  C   -0.327169
    42  C    0.607196
    43  O   -0.465393
    44  O   -0.424592
    45  C   -0.100508
    46  C    0.029017
    47  C   -0.133666
    48  C    0.103875
    49  C   -0.386872
    50  C   -0.219072
    51  C   -0.181110
    52  C   -0.152561
    53  C   -0.063037
    54  C   -0.306694
    55  C   -0.162005
    56  C   -0.184975
    57  C   -0.171733
    58  C   -0.025307
    59  C   -0.319523
    60  C   -0.201311
    61  C   -0.191702
    62  C   -0.167032
    63  C   -0.052283
    64  C   -0.293411
    65  C   -0.277993
    66  H    0.060961
    67  H    0.070225
    68  H    0.089156
    69  H    0.124176
    70  H    0.106889
    71  H    0.103477
    72  H    0.118372
    73  H    0.133172
    74  H    0.103368
    75  H    0.125111
    76  H    0.115110
    77  H    0.132593
    78  H    0.122682
    79  H    0.119897
    80  H    0.117628
    81  H    0.082674
    82  H    0.102738
    83  H    0.113000
    84  H    0.087017
    85  H    0.116352
    86  H    0.118303
    87  H    0.100447
    88  H    0.091107
    89  H    0.097245
    90  H    0.116865
    91  H    0.094276
    92  H    0.107802
    93  H    0.124235
    94  H    0.143954
    95  H    0.174907
    96  H    0.142848
    97  H    0.139865
    98  H    0.149756
    99  H    0.133407
   100  H    0.122350
   101  H    0.089446
   102  H    0.119582
   103  H    0.106346
   104  H    0.140660
   105  H    0.115509
   106  H    0.106248
   107  H    0.115417
   108  H    0.091051
   109  H    0.048283
   110  H    0.096020
   111  H    0.072354
   112  H    0.084660
   113  H    0.112183
   114  H    0.083418
   115  H    0.103114
   116  H    0.090485
   117  H    0.090731
   118  H    0.093630
   119  H    0.082750
   120  H    0.077952
   121  H    0.070766
   122  H    0.100663
   123  H    0.103962
   124  H    0.088808
   125  H    0.095110
   126  H    0.091748
   127  H    0.078233
   128  H    0.088208
   129  H    0.094822
   130  H    0.082111
   131  H    0.083814
   132  H    0.083958
   133  H    0.104576
   134  H    0.075882
   135  H    0.100585
   136  H    0.092233
   137  H    0.094364
 Sum of Mulliken charges =   0.00000

 Dipole moment (field-independent basis, Debye):
    X=              5.1576    Y=              3.1112    Z=              1.5896  Tot=              6.2296
 Quadrupole moment (field-independent basis, Debye-Ang):
   XX=           -376.3711   YY=           -392.7153   ZZ=           -395.6225
   XY=            -22.7617   XZ=              8.2398   YZ=             -4.6287

 Normal termination of Gaussian 09 at Sat Jul  6 05:55:11 2019.
