 Gaussian 09, Revision D.01,
 Gaussian 09:  ES64L-G09RevD.01 24-Apr-2013

 -------------------------------------
 # td=(NStates=1) CAM-B3LYP/6-31G(d,p)
 -------------------------------------

 --
 TD
 --
 Symbolic Z-matrix:
 Charge =  0 Multiplicity = 1

                         Standard orientation:
 ---------------------------------------------------------------------
 Center     Atomic      Atomic             Coordinates (Angstroms)
 Number     Number       Type             X           Y           Z
 ---------------------------------------------------------------------
      1         12           0       -7.199942    0.633025    0.071472
      2          6           0       -4.812428   -1.867475    0.478847
      3          6           0       -4.855254    2.872356    1.126894
      4          6           0       -9.475700    3.097922   -0.434221
      5          6           0       -9.628851   -1.764747   -0.786704
      6          7           0       -5.084400    0.480286    0.763269
      7          6           0       -4.299650   -0.596071    0.816362
      8          6           0       -2.865283   -0.416444    1.138637
      9          6           0       -3.024264    1.092482    1.732482
     10          6           0       -4.350312    1.548655    1.129889
     11          6           0       -2.949953    1.200904    3.167339
     12          6           0       -1.934716   -0.508225   -0.055220
     13          6           0       -0.453752   -0.441050    0.435937
     14          6           0        0.517448   -0.611370   -0.682124
     15          8           0        0.295514   -0.956874   -1.842946
     16          8           0        1.721197   -0.356034   -0.227751
     17          7           0       -7.178049    2.679040    0.267431
     18          6           0       -6.117993    3.370197    0.817054
     19          6           0       -6.458652    4.786763    0.847995
     20          6           0       -7.768498    4.920944    0.239663
     21          6           0       -8.145935    3.518648   -0.006664
     22          6           0       -5.598991    5.949795    1.141199
     23          6           0       -8.710605    6.018194    0.014403
     24          6           0       -8.607103    7.118340    0.673727
     25          7           0       -9.151116    0.688845   -0.563463
     26          6           0       -9.866090    1.779428   -0.726899
     27          6           0      -11.300149    1.417296   -1.138863
     28          6           0      -11.274473    0.016794   -1.237905
     29          6           0      -10.039420   -0.468213   -0.846028
     30          6           0      -12.393913    2.365830   -1.252571
     31          6           0      -12.459429   -0.834845   -1.717773
     32          6           0      -12.281649   -1.059796   -3.255660
     33          7           0       -7.226023   -1.441714   -0.091714
     34          6           0       -8.348830   -2.332351   -0.361451
     35          6           0       -7.875796   -3.605699   -0.418147
     36          6           0       -6.492928   -3.549630   -0.052561
     37          6           0       -6.219191   -2.214018    0.173358
     38          6           0       -8.723648   -4.826750   -0.776654
     39          6           0       -5.310289   -4.310346    0.232201
     40          8           0       -5.065062   -5.503662    0.151793
     41          6           0       -4.158279   -3.279174    0.471460
     42          6           0       -3.488733   -3.643254    1.841727
     43          8           0       -3.677895   -3.121693    2.878878
     44          8           0       -2.725277   -4.741239    1.636498
     45          6           0       -2.220241   -5.315281    2.907601
     46          6           0        2.791186   -0.546162   -1.214326
     47          6           0        4.051680   -0.427913   -0.416543
     48          6           0        5.105788    0.289417   -0.811186
     49          6           0        5.093887    1.105380   -2.134199
     50          6           0        6.388375    0.311143   -0.092017
     51          6           0        7.688654   -0.342922   -0.818620
     52          6           0        8.922935   -0.209192   -0.009866
     53          6           0       10.221753   -0.576986   -0.770485
     54          6           0       10.163242   -2.114476   -1.174634
     55          6           0       11.523055   -0.162023   -0.042244
     56          6           0       12.909051   -0.661218   -0.682566
     57          6           0       14.110864   -0.135635    0.192182
     58          6           0       15.452633   -0.248178   -0.578177
     59          6           0       15.794005   -1.739329   -0.917054
     60          6           0       16.568622    0.448992    0.386477
     61          6           0       17.920120    0.467560   -0.281386
     62          6           0       18.859264    1.384933    0.664604
     63          6           0       20.241677    1.454647    0.168827
     64          6           0       20.324295    2.339335   -1.045223
     65          6           0       21.180777    1.966758    1.325192
     66          1           0       -4.039792    3.484877    1.451421
     67          1           0      -10.193987    3.840747   -0.397479
     68          1           0      -10.159789   -2.692888   -1.256505
     69          1           0       -2.508123   -0.862486    2.007643
     70          1           0       -2.279703    1.766417    1.331146
     71          1           0       -1.898437    0.733670    3.446602
     72          1           0       -2.975633    2.174356    3.609793
     73          1           0       -3.681065    0.561268    3.604763
     74          1           0       -1.908857   -1.594959   -0.532714
     75          1           0       -2.093092    0.163369   -0.693765
     76          1           0       -0.550319    0.601791    0.888036
     77          1           0       -0.202043   -1.242826    1.159960
     78          1           0       -6.090378    6.793215    0.690170
     79          1           0       -5.571135    5.918626    2.313120
     80          1           0       -4.429333    5.789075    0.794725
     81          1           0       -9.522393    5.918642   -0.648141
     82          1           0       -9.442855    8.031176    0.465426
     83          1           0       -7.857040    7.227713    1.619588
     84          1           0      -12.518358    2.872459   -2.401325
     85          1           0      -13.372275    1.864338   -1.170174
     86          1           0      -12.264420    3.125360   -0.293710
     87          1           0      -12.583763   -1.830216   -1.260720
     88          1           0      -13.426341   -0.398301   -1.398629
     89          1           0      -13.051326   -1.489895   -3.457937
     90          1           0      -12.180317   -0.005169   -3.713058
     91          1           0      -11.437474   -1.651020   -3.492065
     92          1           0       -9.348339   -4.626943   -1.568214
     93          1           0       -7.987494   -5.896436   -0.931286
     94          1           0       -9.431062   -5.086124    0.012957
     95          1           0       -3.379099   -3.602142   -0.355858
     96          1           0       -1.698874   -4.393120    3.232802
     97          1           0       -3.068784   -5.531017    3.667619
     98          1           0       -1.463939   -5.988801    2.594712
     99          1           0        2.674323   -1.601123   -1.464520
    100          1           0        2.804944    0.088036   -2.008292
    101          1           0        4.192666   -1.149292    0.400863
    102          1           0        4.025983    1.428027   -2.459544
    103          1           0        5.676421    2.094489   -2.104582
    104          1           0        5.750912    0.619490   -2.774060
    105          1           0        6.709187    1.421173    0.222533
    106          1           0        6.396175   -0.366289    0.829201
    107          1           0        7.456858   -1.225171   -1.321839
    108          1           0        7.755099    0.334300   -1.676433
    109          1           0        9.137864    0.775278    0.347196
    110          1           0        8.944311   -0.947167    0.750592
    111          1           0       10.271726   -0.087738   -1.670230
    112          1           0        9.251218   -2.608101   -1.558154
    113          1           0       10.903710   -2.138843   -2.085701
    114          1           0       10.521480   -3.097540   -0.481472
    115          1           0       11.432479    0.994625   -0.078580
    116          1           0       11.618920   -0.259409    1.177558
    117          1           0       12.919117   -1.759286   -0.723663
    118          1           0       12.952551   -0.074556   -1.614348
    119          1           0       13.920578    0.902052    0.560146
    120          1           0       14.101046   -0.638021    1.024758
    121          1           0       15.432417    0.439110   -1.523867
    122          1           0       15.806582   -2.304167    0.005556
    123          1           0       14.892462   -1.995930   -1.558357
    124          1           0       16.715846   -1.738484   -1.367940
    125          1           0       16.331516    1.439314    0.642304
    126          1           0       16.673101   -0.077353    1.291881
    127          1           0       18.411672   -0.697348   -0.371516
    128          1           0       17.902994    1.010419   -1.209022
    129          1           0       18.544592    2.397203    0.812165
    130          1           0       18.721787    0.798073    1.484054
    131          1           0       20.693394    0.451812   -0.104722
    132          1           0       20.130426    3.435107   -0.703136
    133          1           0       21.414433    2.467488   -1.457775
    134          1           0       19.730465    2.005456   -1.946461
    135          1           0       21.199651    1.422132    2.214583
    136          1           0       22.167540    1.962961    1.056568
    137          1           0       21.008107    3.095395    1.550749
 ---------------------------------------------------------------------

 SCF Done:  E(RCAM-B3LYP) =  -2932.65885379     A.U. after   18 cycles

 Excitation energies and oscillator strengths:

 Excited State   1:      Singlet-A      2.0777 eV  596.75 nm  f=0.2032  <S**2>=0.000
     240 -> 242       -0.31265
     240 -> 243        0.18758
     241 -> 242        0.57911
     241 -> 243        0.14815
 This state for optimization and/or second-order correction.
 Total Energy, E(TD-HF/TD-KS) =  -2932.58250101
 Copying the excited state density for this state as the 1-particle RhoCI density.

 The electronic state is 1-A.
 Alpha  occ. eigenvalues --  -46.85476 -19.26179 -19.24614 -19.20392 -19.20177
 Alpha  occ. eigenvalues --  -19.17810 -14.42272 -14.39866 -14.39626 -14.38048
 Alpha  occ. eigenvalues --  -10.38577 -10.37772 -10.32858 -10.31398 -10.31200
 Alpha  occ. eigenvalues --  -10.30975 -10.30861 -10.30358 -10.30001 -10.29970
 Alpha  occ. eigenvalues --  -10.29037 -10.28805 -10.28737 -10.28582 -10.28434
 Alpha  occ. eigenvalues --  -10.28199 -10.28051 -10.27836 -10.27762 -10.27718
 Alpha  occ. eigenvalues --  -10.27670 -10.27614 -10.27429 -10.27398 -10.27179
 Alpha  occ. eigenvalues --  -10.27130 -10.27093 -10.27077 -10.26875 -10.26862
 Alpha  occ. eigenvalues --  -10.26854 -10.26796 -10.26767 -10.26745 -10.26727
 Alpha  occ. eigenvalues --  -10.26657 -10.26525 -10.26388 -10.26194 -10.26070
 Alpha  occ. eigenvalues --  -10.25977 -10.25897 -10.25856 -10.25798 -10.25754
 Alpha  occ. eigenvalues --  -10.25688 -10.25413 -10.24694 -10.24243 -10.23846
 Alpha  occ. eigenvalues --  -10.23813 -10.23722 -10.23518 -10.23329 -10.23286
 Alpha  occ. eigenvalues --   -3.14245  -1.88973  -1.88482  -1.88397  -1.18805
 Alpha  occ. eigenvalues --   -1.17457  -1.09125  -1.08514  -1.07963  -1.05692
 Alpha  occ. eigenvalues --   -1.04664  -1.02797  -1.01843  -0.91473  -0.91029
 Alpha  occ. eigenvalues --   -0.90606  -0.90155  -0.90138  -0.89646  -0.89154
 Alpha  occ. eigenvalues --   -0.88477  -0.88099  -0.87419  -0.86688  -0.85977
 Alpha  occ. eigenvalues --   -0.85116  -0.84539  -0.83571  -0.83417  -0.82268
 Alpha  occ. eigenvalues --   -0.81769  -0.80840  -0.80090  -0.79323  -0.78267
 Alpha  occ. eigenvalues --   -0.77601  -0.76878  -0.76255  -0.75731  -0.75510
 Alpha  occ. eigenvalues --   -0.74927  -0.74112  -0.74089  -0.73705  -0.72639
 Alpha  occ. eigenvalues --   -0.71205  -0.70634  -0.69996  -0.69065  -0.67515
 Alpha  occ. eigenvalues --   -0.66724  -0.66302  -0.65802  -0.65161  -0.64375
 Alpha  occ. eigenvalues --   -0.63740  -0.63261  -0.62890  -0.62641  -0.61932
 Alpha  occ. eigenvalues --   -0.61236  -0.60765  -0.60224  -0.59833  -0.59280
 Alpha  occ. eigenvalues --   -0.58382  -0.57879  -0.57561  -0.56874  -0.56689
 Alpha  occ. eigenvalues --   -0.55839  -0.55656  -0.55214  -0.55138  -0.54972
 Alpha  occ. eigenvalues --   -0.54879  -0.54555  -0.54017  -0.53447  -0.53153
 Alpha  occ. eigenvalues --   -0.52537  -0.52485  -0.52304  -0.52140  -0.52014
 Alpha  occ. eigenvalues --   -0.51487  -0.50954  -0.50863  -0.50556  -0.50036
 Alpha  occ. eigenvalues --   -0.50008  -0.49804  -0.49722  -0.49568  -0.49334
 Alpha  occ. eigenvalues --   -0.49006  -0.48740  -0.48449  -0.48297  -0.48077
 Alpha  occ. eigenvalues --   -0.47942  -0.47736  -0.47570  -0.47493  -0.47220
 Alpha  occ. eigenvalues --   -0.47076  -0.47032  -0.46819  -0.46745  -0.46138
 Alpha  occ. eigenvalues --   -0.45838  -0.45536  -0.45233  -0.45216  -0.44790
 Alpha  occ. eigenvalues --   -0.44618  -0.44411  -0.44315  -0.44167  -0.43918
 Alpha  occ. eigenvalues --   -0.43603  -0.43418  -0.43217  -0.42993  -0.42859
 Alpha  occ. eigenvalues --   -0.42774  -0.42597  -0.42490  -0.42467  -0.42401
 Alpha  occ. eigenvalues --   -0.42306  -0.41805  -0.41606  -0.41249  -0.41084
 Alpha  occ. eigenvalues --   -0.41059  -0.40714  -0.40547  -0.40447  -0.40332
 Alpha  occ. eigenvalues --   -0.40298  -0.39728  -0.39530  -0.39506  -0.39347
 Alpha  occ. eigenvalues --   -0.39212  -0.38991  -0.38976  -0.38249  -0.38013
 Alpha  occ. eigenvalues --   -0.37800  -0.37505  -0.37217  -0.36970  -0.36724
 Alpha  occ. eigenvalues --   -0.36523  -0.36479  -0.36315  -0.36140  -0.36065
 Alpha  occ. eigenvalues --   -0.35135  -0.34917  -0.34802  -0.33592  -0.33245
 Alpha  occ. eigenvalues --   -0.32952  -0.32398  -0.31794  -0.30744  -0.29611
 Alpha  occ. eigenvalues --   -0.28241  -0.28153  -0.27623  -0.27263  -0.22429
 Alpha  occ. eigenvalues --   -0.21850
 Alpha virt. eigenvalues --   -0.07278  -0.02592   0.01910   0.04589   0.05712
 Alpha virt. eigenvalues --    0.06032   0.06267   0.06563   0.06968   0.08133
 Alpha virt. eigenvalues --    0.09209   0.10213   0.11081   0.11480   0.11768

 Mulliken charges:
               1
     1  Mg   0.831004
     2  C    0.052802
     3  C   -0.204249
     4  C   -0.184669
     5  C   -0.179077
     6  N   -0.604349
     7  C    0.299772
     8  C   -0.136001
     9  C   -0.181034
    10  C    0.319367
    11  C   -0.294468
    12  C   -0.138419
    13  C   -0.277385
    14  C    0.606373
    15  O   -0.500725
    16  O   -0.459529
    17  N   -0.714611
    18  C    0.344543
    19  C   -0.008732
    20  C   -0.000614
    21  C    0.310142
    22  C   -0.359381
    23  C   -0.028817
    24  C   -0.262118
    25  N   -0.701388
    26  C    0.359197
    27  C    0.020251
    28  C    0.050943
    29  C    0.273634
    30  C   -0.374646
    31  C   -0.256680
    32  C   -0.281637
    33  N   -0.710015
    34  C    0.208000
    35  C    0.022459
    36  C    0.000944
    37  C    0.309806
    38  C   -0.367017
    39  C    0.347403
    40  O   -0.479309
    41  C   -0.322902
    42  C    0.608532
    43  O   -0.460762
    44  O   -0.464779
    45  C   -0.086304
    46  C    0.027254
    47  C   -0.139124
    48  C    0.141220
    49  C   -0.375287
    50  C   -0.238294
    51  C   -0.193992
    52  C   -0.158061
    53  C   -0.057228
    54  C   -0.325158
    55  C   -0.187387
    56  C   -0.191063
    57  C   -0.168379
    58  C   -0.074736
    59  C   -0.307777
    60  C   -0.177490
    61  C   -0.190354
    62  C   -0.149247
    63  C   -0.057632
    64  C   -0.302540
    65  C   -0.317111
    66  H    0.076629
    67  H    0.075265
    68  H    0.095984
    69  H    0.124608
    70  H    0.094420
    71  H    0.093504
    72  H    0.119048
    73  H    0.135230
    74  H    0.116401
    75  H    0.116085
    76  H    0.126588
    77  H    0.140567
    78  H    0.134992
    79  H    0.115415
    80  H    0.101124
    81  H    0.110987
    82  H    0.085291
    83  H    0.107647
    84  H    0.096077
    85  H    0.121987
    86  H    0.106047
    87  H    0.103054
    88  H    0.101580
    89  H    0.112729
    90  H    0.099793
    91  H    0.118344
    92  H    0.121581
    93  H    0.116133
    94  H    0.129212
    95  H    0.153830
    96  H    0.122636
    97  H    0.141628
    98  H    0.133791
    99  H    0.133591
   100  H    0.122089
   101  H    0.091159
   102  H    0.114107
   103  H    0.100319
   104  H    0.139292
   105  H    0.088982
   106  H    0.093432
   107  H    0.111266
   108  H    0.084797
   109  H    0.092660
   110  H    0.108527
   111  H    0.104994
   112  H    0.106697
   113  H    0.086982
   114  H    0.071797
   115  H    0.076653
   116  H    0.063448
   117  H    0.115561
   118  H    0.098187
   119  H    0.081404
   120  H    0.103975
   121  H    0.068573
   122  H    0.104398
   123  H    0.103646
   124  H    0.115850
   125  H    0.097760
   126  H    0.093214
   127  H    0.061738
   128  H    0.096820
   129  H    0.091288
   130  H    0.098400
   131  H    0.079339
   132  H    0.087687
   133  H    0.084787
   134  H    0.105910
   135  H    0.106891
   136  H    0.105665
   137  H    0.076738
 Sum of Mulliken charges =   0.00000

 Dipole moment (field-independent basis, Debye):
    X=              1.6472    Y=              6.0495    Z=              1.0386  Tot=              6.3552
 Quadrupole moment (field-independent basis, Debye-Ang):
   XX=           -323.7828   YY=           -398.4287   ZZ=           -397.8216
   XY=            -30.9691   XZ=              8.5188   YZ=             -1.9505

 Normal termination of Gaussian 09 at Sat Jul  6 20:08:59 2019.
