 Gaussian 16, Revision A.03,
 Gaussian 16:  ES64L-G16RevA.03 25-Dec-2016

 ----------------------------------------------------------------------
 # td=(NStates=1) iop(3/107=0140000000,3/108=0140000000) CAM-B3LYP/6-31
 G(d,p)
 ----------------------------------------------------------------------

 --
 TD
 --
 Symbolic Z-matrix:
 Charge =  0 Multiplicity = 1

                         Standard orientation:
 ---------------------------------------------------------------------
 Center     Atomic      Atomic             Coordinates (Angstroms)
 Number     Number       Type             X           Y           Z
 ---------------------------------------------------------------------
      1         12           0       -7.186731    0.605483    0.098726
      2          6           0       -4.907836   -2.021756    0.504759
      3          6           0       -4.752086    2.832359    1.160268
      4          6           0       -9.358332    3.157959   -0.361797
      5          6           0       -9.552249   -1.649554   -0.900795
      6          7           0       -5.111990    0.381376    0.720639
      7          6           0       -4.359099   -0.759944    0.763211
      8          6           0       -2.953562   -0.497298    1.253537
      9          6           0       -3.030644    0.940563    1.804378
     10          6           0       -4.340638    1.546866    1.197193
     11          6           0       -3.010945    1.107389    3.305569
     12          6           0       -1.919231   -0.588580    0.107969
     13          6           0       -0.409458   -0.466258    0.541601
     14          6           0        0.537020   -0.720336   -0.575821
     15          8           0        0.191817   -0.971125   -1.748578
     16          8           0        1.840991   -0.495469   -0.129187
     17          7           0       -7.123405    2.628295    0.440634
     18          6           0       -6.029729    3.390253    0.759830
     19          6           0       -6.335169    4.782048    0.774796
     20          6           0       -7.692034    4.832250    0.348680
     21          6           0       -8.129142    3.549274    0.129924
     22          6           0       -5.377983    5.904026    1.132084
     23          6           0       -8.533786    6.059783    0.096453
     24          6           0       -8.296236    7.303605    0.636787
     25          7           0       -9.111057    0.690096   -0.487975
     26          6           0       -9.851237    1.884848   -0.682177
     27          6           0      -11.191383    1.550849   -1.063539
     28          6           0      -11.234048    0.234490   -1.269357
     29          6           0       -9.944194   -0.381821   -0.905532
     30          6           0      -12.309503    2.567118   -1.243677
     31          6           0      -12.408776   -0.544404   -1.818381
     32          6           0      -12.335686   -0.862144   -3.252552
     33          7           0       -7.305821   -1.367459   -0.182973
     34          6           0       -8.270273   -2.241744   -0.641155
     35          6           0       -7.922263   -3.606875   -0.588550
     36          6           0       -6.555381   -3.558298   -0.252055
     37          6           0       -6.286911   -2.181271    0.165071
     38          6           0       -8.756428   -4.744917   -1.045678
     39          6           0       -5.472096   -4.423565    0.232840
     40          8           0       -5.405723   -5.669675    0.172402
     41          6           0       -4.276679   -3.415740    0.517876
     42          6           0       -3.593249   -3.711617    1.820826
     43          8           0       -3.688363   -3.134635    2.944734
     44          8           0       -2.846447   -4.828836    1.658945
     45          6           0       -2.213832   -5.439642    2.884235
     46          6           0        2.842473   -0.897504   -1.083728
     47          6           0        4.088308   -0.638079   -0.510926
     48          6           0        4.999422    0.248809   -0.816932
     49          6           0        4.961349    1.124640   -2.086703
     50          6           0        6.479368    0.276377   -0.077993
     51          6           0        7.679848   -0.193703   -0.950618
     52          6           0        8.930462   -0.073471   -0.104970
     53          6           0       10.236065   -0.576610   -0.823379
     54          6           0       10.235434   -2.067130   -1.229817
     55          6           0       11.470896   -0.138160   -0.038414
     56          6           0       12.802106   -0.550053   -0.747891
     57          6           0       13.964443    0.076990   -0.005807
     58          6           0       15.500266   -0.129061   -0.551169
     59          6           0       15.696982   -1.621656   -0.767701
     60          6           0       16.417176    0.502158    0.453649
     61          6           0       17.813093    0.661841   -0.188779
     62          6           0       18.901314    1.332223    0.721791
     63          6           0       20.290808    1.301337    0.111897
     64          6           0       20.258739    2.161230   -1.118955
     65          6           0       21.253559    1.892278    1.201475
     66          1           0       -4.016794    3.445694    1.831650
     67          1           0      -10.011779    3.963378   -0.535740
     68          1           0      -10.331939   -2.462096   -1.165543
     69          1           0       -2.539121   -1.363040    2.093239
     70          1           0       -2.192541    1.599025    1.329402
     71          1           0       -2.082214    0.585523    3.634155
     72          1           0       -2.676949    2.377238    3.717546
     73          1           0       -3.988789    0.772619    3.668540
     74          1           0       -2.085812   -1.569457   -0.419584
     75          1           0       -2.209162    0.082378   -0.702960
     76          1           0       -0.227957    0.505914    1.178035
     77          1           0       -0.365218   -1.274000    1.338423
     78          1           0       -5.343680    6.709014    0.344493
     79          1           0       -5.595749    6.415337    1.966753
     80          1           0       -4.434527    5.487181    1.168189
     81          1           0       -9.248656    5.901443   -0.515320
     82          1           0       -8.987577    8.036187    0.497013
     83          1           0       -7.539534    7.410111    1.481526
     84          1           0      -12.050612    3.320373   -1.935682
     85          1           0      -13.367831    2.118364   -1.691411
     86          1           0      -12.442641    3.106365   -0.177472
     87          1           0      -12.379136   -1.599558   -1.398602
     88          1           0      -13.252324    0.034897   -1.496973
     89          1           0      -13.024417   -1.513148   -3.693336
     90          1           0      -12.151547    0.198097   -3.878442
     91          1           0      -11.240181   -1.151149   -3.513958
     92          1           0       -9.182604   -4.759843   -2.056737
     93          1           0       -8.496048   -5.701382   -0.801735
     94          1           0       -9.725496   -4.825082   -0.423771
     95          1           0       -3.687926   -3.699578   -0.332252
     96          1           0       -1.155422   -4.755068    3.004395
     97          1           0       -2.893115   -5.453674    3.722122
     98          1           0       -1.655399   -6.423408    2.665073
     99          1           0        2.571547   -1.892045   -1.487713
    100          1           0        2.739881   -0.126974   -2.078731
    101          1           0        4.131683   -1.238062    0.369202
    102          1           0        3.977541    1.269945   -2.285327
    103          1           0        5.402838    2.211338   -1.826586
    104          1           0        5.553127    0.567857   -2.920539
    105          1           0        6.836490    1.397032   -0.087571
    106          1           0        6.462653   -0.216552    0.838397
    107          1           0        7.633572   -1.133449   -1.339791
    108          1           0        7.743728    0.527266   -1.663986
    109          1           0        9.198741    0.933047    0.337335
    110          1           0        9.026920   -0.560429    0.975707
    111          1           0       10.163332    0.095360   -1.775909
    112          1           0        9.313800   -2.261984   -1.713330
    113          1           0       11.020594   -2.445674   -2.005119
    114          1           0       10.363087   -2.589377   -0.432225
    115          1           0       11.356070    0.745289    0.317233
    116          1           0       11.349777   -0.617623    1.033285
    117          1           0       12.972699   -1.757677   -0.975960
    118          1           0       12.738176   -0.173201   -1.751765
    119          1           0       13.967063    1.132257    0.153428
    120          1           0       14.038881   -0.565670    1.003917
    121          1           0       15.630270    0.527827   -1.466997
    122          1           0       15.676489   -2.040059    0.465264
    123          1           0       15.085895   -2.054203   -1.435367
    124          1           0       16.613053   -1.876560   -1.153798
    125          1           0       16.254204    1.650523    0.853259
    126          1           0       16.596564   -0.142637    1.230178
    127          1           0       18.061947   -0.386727   -0.258996
    128          1           0       17.754268    0.871914   -1.121307
    129          1           0       18.373588    2.266329    0.760767
    130          1           0       19.136280    0.850387    1.594865
    131          1           0       20.698031    0.228989   -0.190821
    132          1           0       20.043778    3.150233   -0.863972
    133          1           0       21.249890    2.386513   -1.607482
    134          1           0       19.780667    1.791513   -2.030896
    135          1           0       21.027081    1.463077    2.067923
    136          1           0       22.363222    1.712989    0.713589
    137          1           0       21.249547    2.864251    1.524194
 ---------------------------------------------------------------------

 SCF Done:  E(RCAM-B3LYP) =  -2933.41359524     A.U. after   16 cycles

 Excitation energies and oscillator strengths:

 Excited State   1:      Singlet-A      1.9434 eV  637.99 nm  f=0.3478  <S**2>=0.000
     240 -> 243       -0.19218
     241 -> 242        0.67731
 This state for optimization and/or second-order correction.
 Total Energy, E(TD-HF/TD-DFT) =  -2933.34217843
 Copying the excited state density for this state as the 1-particle RhoCI density.

 The electronic state is 1-A.
 Alpha  occ. eigenvalues --  -46.79430 -19.22193 -19.22170 -19.17565 -19.16172
 Alpha  occ. eigenvalues --  -19.16171 -14.37440 -14.35438 -14.35421 -14.35069
 Alpha  occ. eigenvalues --  -10.35324 -10.34844 -10.30883 -10.29409 -10.27640
 Alpha  occ. eigenvalues --  -10.26468 -10.26368 -10.25642 -10.25265 -10.25083
 Alpha  occ. eigenvalues --  -10.24795 -10.24768 -10.24695 -10.24595 -10.24276
 Alpha  occ. eigenvalues --  -10.24234 -10.24221 -10.24192 -10.23892 -10.23761
 Alpha  occ. eigenvalues --  -10.23754 -10.23283 -10.23022 -10.22878 -10.22677
 Alpha  occ. eigenvalues --  -10.22618 -10.22556 -10.22503 -10.22423 -10.22391
 Alpha  occ. eigenvalues --  -10.22290 -10.22233 -10.22152 -10.22043 -10.22010
 Alpha  occ. eigenvalues --  -10.22006 -10.22003 -10.21987 -10.21980 -10.21900
 Alpha  occ. eigenvalues --  -10.21759 -10.21648 -10.21541 -10.21048 -10.20655
 Alpha  occ. eigenvalues --  -10.20535 -10.20427 -10.20381 -10.20282 -10.20173
 Alpha  occ. eigenvalues --  -10.19561 -10.19548 -10.19165 -10.19033 -10.18103
 Alpha  occ. eigenvalues --   -3.08069  -1.83008  -1.82536  -1.82486  -1.11479
 Alpha  occ. eigenvalues --   -1.10961  -1.04145  -1.03678  -1.01319  -0.99189
 Alpha  occ. eigenvalues --   -0.98153  -0.96432  -0.95833  -0.87173  -0.85940
 Alpha  occ. eigenvalues --   -0.85491  -0.84716  -0.84407  -0.83887  -0.83781
 Alpha  occ. eigenvalues --   -0.83323  -0.83158  -0.82797  -0.82289  -0.81234
 Alpha  occ. eigenvalues --   -0.80503  -0.79075  -0.78710  -0.78183  -0.78039
 Alpha  occ. eigenvalues --   -0.76648  -0.76300  -0.75563  -0.75214  -0.74016
 Alpha  occ. eigenvalues --   -0.73381  -0.72447  -0.72052  -0.71721  -0.71558
 Alpha  occ. eigenvalues --   -0.71097  -0.70918  -0.70008  -0.69170  -0.68097
 Alpha  occ. eigenvalues --   -0.66694  -0.65843  -0.64993  -0.64671  -0.64348
 Alpha  occ. eigenvalues --   -0.63461  -0.62766  -0.61286  -0.60937  -0.59430
 Alpha  occ. eigenvalues --   -0.59367  -0.59239  -0.58750  -0.58502  -0.57784
 Alpha  occ. eigenvalues --   -0.57453  -0.56887  -0.56425  -0.55932  -0.55227
 Alpha  occ. eigenvalues --   -0.54595  -0.54244  -0.54011  -0.52946  -0.52673
 Alpha  occ. eigenvalues --   -0.52303  -0.51944  -0.51582  -0.51543  -0.51135
 Alpha  occ. eigenvalues --   -0.50541  -0.50176  -0.49598  -0.49329  -0.49126
 Alpha  occ. eigenvalues --   -0.48960  -0.48840  -0.48520  -0.47994  -0.47770
 Alpha  occ. eigenvalues --   -0.47678  -0.47444  -0.46941  -0.46822  -0.46583
 Alpha  occ. eigenvalues --   -0.46486  -0.46466  -0.46304  -0.45942  -0.45751
 Alpha  occ. eigenvalues --   -0.45703  -0.45281  -0.45230  -0.45048  -0.44659
 Alpha  occ. eigenvalues --   -0.44455  -0.44203  -0.44039  -0.43990  -0.43609
 Alpha  occ. eigenvalues --   -0.43532  -0.43082  -0.42967  -0.42812  -0.42585
 Alpha  occ. eigenvalues --   -0.42381  -0.42043  -0.41996  -0.41893  -0.41550
 Alpha  occ. eigenvalues --   -0.41384  -0.41116  -0.41013  -0.40872  -0.40731
 Alpha  occ. eigenvalues --   -0.40673  -0.40249  -0.40177  -0.40020  -0.39868
 Alpha  occ. eigenvalues --   -0.39643  -0.39639  -0.39115  -0.39074  -0.38832
 Alpha  occ. eigenvalues --   -0.38567  -0.38415  -0.38140  -0.37937  -0.37566
 Alpha  occ. eigenvalues --   -0.37491  -0.37310  -0.37163  -0.36880  -0.36612
 Alpha  occ. eigenvalues --   -0.36542  -0.36446  -0.36222  -0.36089  -0.35556
 Alpha  occ. eigenvalues --   -0.35542  -0.35227  -0.35123  -0.34923  -0.34490
 Alpha  occ. eigenvalues --   -0.34247  -0.34148  -0.33855  -0.33812  -0.33438
 Alpha  occ. eigenvalues --   -0.32957  -0.32653  -0.32608  -0.32162  -0.31911
 Alpha  occ. eigenvalues --   -0.31545  -0.31410  -0.31149  -0.30929  -0.30619
 Alpha  occ. eigenvalues --   -0.29711  -0.29505  -0.29012  -0.28860  -0.27902
 Alpha  occ. eigenvalues --   -0.27491  -0.26730  -0.26351  -0.24630  -0.22183
 Alpha  occ. eigenvalues --   -0.20314
 Alpha virt. eigenvalues --   -0.08238  -0.03480  -0.00391   0.01914   0.02186
 Alpha virt. eigenvalues --    0.02792   0.03875   0.04791   0.05168   0.05427
 Alpha virt. eigenvalues --    0.06176   0.07799   0.08761   0.09273   0.09708

 Mulliken charges:
               1
     1  Mg   0.806488
     2  C    0.059103
     3  C   -0.198358
     4  C   -0.175950
     5  C   -0.213359
     6  N   -0.637565
     7  C    0.332369
     8  C   -0.152917
     9  C   -0.138771
    10  C    0.292230
    11  C   -0.263253
    12  C   -0.177884
    13  C   -0.271326
    14  C    0.634228
    15  O   -0.472647
    16  O   -0.474938
    17  N   -0.709743
    18  C    0.300699
    19  C    0.009996
    20  C   -0.011830
    21  C    0.330139
    22  C   -0.372987
    23  C   -0.035197
    24  C   -0.241737
    25  N   -0.714227
    26  C    0.293555
    27  C    0.072148
    28  C   -0.001503
    29  C    0.356794
    30  C   -0.373228
    31  C   -0.212212
    32  C   -0.297749
    33  N   -0.700318
    34  C    0.277669
    35  C    0.069723
    36  C   -0.050515
    37  C    0.296629
    38  C   -0.397491
    39  C    0.370844
    40  O   -0.469049
    41  C   -0.297680
    42  C    0.625536
    43  O   -0.509385
    44  O   -0.449288
    45  C   -0.075592
    46  C    0.009390
    47  C   -0.087458
    48  C    0.092811
    49  C   -0.355920
    50  C   -0.210243
    51  C   -0.172041
    52  C   -0.191869
    53  C   -0.056076
    54  C   -0.301420
    55  C   -0.152444
    56  C   -0.173304
    57  C   -0.152319
    58  C   -0.085568
    59  C   -0.279656
    60  C   -0.150261
    61  C   -0.202820
    62  C   -0.148776
    63  C   -0.055349
    64  C   -0.308268
    65  C   -0.306707
    66  H    0.088650
    67  H    0.072016
    68  H    0.080640
    69  H    0.106938
    70  H    0.095461
    71  H    0.116294
    72  H    0.044750
    73  H    0.137667
    74  H    0.109037
    75  H    0.120329
    76  H    0.131692
    77  H    0.133137
    78  H    0.120666
    79  H    0.135240
    80  H    0.116301
    81  H    0.072963
    82  H    0.102614
    83  H    0.095644
    84  H    0.137032
    85  H    0.100288
    86  H    0.111250
    87  H    0.095792
    88  H    0.102506
    89  H    0.119887
    90  H    0.065960
    91  H    0.104456
    92  H    0.134200
    93  H    0.150508
    94  H    0.105897
    95  H    0.178698
    96  H    0.091316
    97  H    0.159820
    98  H    0.134293
    99  H    0.128690
   100  H    0.071213
   101  H    0.085101
   102  H    0.130442
   103  H    0.094407
   104  H    0.123121
   105  H    0.082982
   106  H    0.104653
   107  H    0.110625
   108  H    0.115260
   109  H    0.086165
   110  H    0.064558
   111  H    0.059384
   112  H    0.098768
   113  H    0.086817
   114  H    0.120669
   115  H    0.098972
   116  H    0.058147
   117  H    0.076222
   118  H    0.099803
   119  H    0.094102
   120  H    0.066664
   121  H    0.073410
   122  H    0.059743
   123  H    0.113612
   124  H    0.108078
   125  H    0.055229
   126  H    0.097512
   127  H    0.082718
   128  H    0.096496
   129  H    0.098361
   130  H    0.089614
   131  H    0.077392
   132  H    0.109555
   133  H    0.074733
   134  H    0.102738
   135  H    0.103764
   136  H    0.073726
   137  H    0.111456
 Sum of Mulliken charges =  -0.00000

 Dipole moment (field-independent basis, Debye):
    X=              0.9804    Y=              3.1674    Z=             -0.1731  Tot=              3.3202
 Quadrupole moment (field-independent basis, Debye-Ang):
   XX=           -337.8034   YY=           -388.0034   ZZ=           -398.7051
   XY=            -20.3871   XZ=              8.9988   YZ=              0.0474

 Normal termination of Gaussian 16 at Thu Sep 12 18:17:32 2019.
