 Gaussian 16, Revision A.03,
 Gaussian 16:  ES64L-G16RevA.03 25-Dec-2016

 ----------------------------------------------------------------------
 # td=(NStates=1) iop(3/107=0140000000,3/108=0140000000) CAM-B3LYP/6-31
 G(d,p)
 ----------------------------------------------------------------------

 --
 TD
 --
 Symbolic Z-matrix:
 Charge =  0 Multiplicity = 1

                         Standard orientation:
 ---------------------------------------------------------------------
 Center     Atomic      Atomic             Coordinates (Angstroms)
 Number     Number       Type             X           Y           Z
 ---------------------------------------------------------------------
      1         12           0       -7.183095    0.602059    0.072037
      2          6           0       -4.915151   -1.896509    0.543098
      3          6           0       -4.818378    2.786308    1.396154
      4          6           0       -9.393432    3.133339   -0.383886
      5          6           0       -9.504898   -1.658100   -1.004459
      6          7           0       -5.180143    0.451578    0.895213
      7          6           0       -4.346811   -0.666991    0.793397
      8          6           0       -2.958636   -0.388311    1.246202
      9          6           0       -3.034635    1.032187    1.760016
     10          6           0       -4.389473    1.503642    1.292507
     11          6           0       -2.916154    1.299616    3.297570
     12          6           0       -1.826352   -0.693993    0.134727
     13          6           0       -0.490475   -0.655764    0.566145
     14          6           0        0.466330   -0.782436   -0.526601
     15          8           0        0.262223   -1.116920   -1.606705
     16          8           0        1.753807   -0.570396   -0.040266
     17          7           0       -7.181815    2.612301    0.490033
     18          6           0       -6.120025    3.368416    0.851662
     19          6           0       -6.283324    4.647101    0.814842
     20          6           0       -7.612798    4.868355    0.411870
     21          6           0       -8.106915    3.518707    0.048886
     22          6           0       -5.419033    5.891901    1.269297
     23          6           0       -8.498122    6.033810    0.169923
     24          6           0       -8.287901    7.285268    0.655054
     25          7           0       -9.040591    0.639504   -0.629608
     26          6           0       -9.834081    1.841236   -0.797286
     27          6           0      -11.145678    1.572269   -1.349361
     28          6           0      -11.138711    0.188221   -1.508629
     29          6           0       -9.907428   -0.283327   -1.008746
     30          6           0      -12.186084    2.456002   -1.644759
     31          6           0      -12.338579   -0.588966   -1.980464
     32          6           0      -12.014903   -1.095727   -3.387537
     33          7           0       -7.194637   -1.398101   -0.292686
     34          6           0       -8.206685   -2.191728   -0.646681
     35          6           0       -7.891086   -3.556129   -0.527199
     36          6           0       -6.461674   -3.489320   -0.204596
     37          6           0       -6.183544   -2.183776    0.003524
     38          6           0       -8.726562   -4.692481   -0.880083
     39          6           0       -5.347389   -4.353881    0.165754
     40          8           0       -5.138666   -5.587789    0.152481
     41          6           0       -4.206946   -3.288970    0.579453
     42          6           0       -3.617507   -3.720650    1.897167
     43          8           0       -4.003335   -3.210039    2.932322
     44          8           0       -2.821455   -4.746056    1.778578
     45          6           0       -2.337483   -5.349786    3.036562
     46          6           0        2.727251   -0.737293   -1.029983
     47          6           0        4.113736   -0.591996   -0.287954
     48          6           0        5.133147    0.254071   -0.677873
     49          6           0        4.906873    1.230795   -1.938671
     50          6           0        6.426247    0.315198    0.018894
     51          6           0        7.647080   -0.074809   -0.832356
     52          6           0        8.950944   -0.034019   -0.100204
     53          6           0       10.219163   -0.552246   -0.782612
     54          6           0       10.021547   -2.081777   -1.293160
     55          6           0       11.417468   -0.431350    0.146612
     56          6           0       12.697321   -0.439259   -0.699460
     57          6           0       13.965338   -0.068086    0.067336
     58          6           0       15.322143   -0.248360   -0.588239
     59          6           0       15.695841   -1.789703   -0.797063
     60          6           0       16.427216    0.388742    0.277666
     61          6           0       17.818304    0.592600   -0.403981
     62          6           0       18.883565    1.361413    0.449061
     63          6           0       20.298736    1.450050    0.061118
     64          6           0       20.450143    2.253635   -1.159288
     65          6           0       21.074222    2.020049    1.131624
     66          1           0       -3.958366    3.502091    1.758880
     67          1           0       -9.985679    4.136901   -0.597889
     68          1           0      -10.320339   -2.308448   -1.309945
     69          1           0       -2.744968   -1.019794    2.203490
     70          1           0       -2.297599    1.677732    1.161929
     71          1           0       -2.067307    0.996724    3.575786
     72          1           0       -3.192866    2.306506    3.390422
     73          1           0       -3.493367    0.560151    3.870768
     74          1           0       -2.137726   -1.681127   -0.391713
     75          1           0       -2.248335    0.154080   -0.598442
     76          1           0       -0.435863    0.245268    1.110264
     77          1           0       -0.219967   -1.447855    1.404437
     78          1           0       -5.646476    6.718573    0.798679
     79          1           0       -5.790741    6.267647    2.292007
     80          1           0       -4.322015    5.545610    1.339573
     81          1           0       -9.545073    5.953099   -0.381296
     82          1           0       -8.984533    8.007537    0.557398
     83          1           0       -7.642044    7.683320    1.328170
     84          1           0      -11.808845    3.505183   -2.201866
     85          1           0      -13.236583    2.159051   -2.031232
     86          1           0      -12.505699    3.042004   -0.670291
     87          1           0      -12.561432   -1.539629   -1.398875
     88          1           0      -13.238530    0.032840   -2.054186
     89          1           0      -12.878169   -1.703895   -3.655945
     90          1           0      -11.732992   -0.387488   -4.068344
     91          1           0      -11.316906   -1.781063   -3.449574
     92          1           0       -8.892828   -4.682454   -1.926086
     93          1           0       -8.031991   -5.483053   -0.588667
     94          1           0       -9.812503   -4.705079   -0.457487
     95          1           0       -3.282853   -3.370945   -0.123395
     96          1           0       -1.895549   -4.694851    3.689775
     97          1           0       -3.035827   -6.101966    3.529779
     98          1           0       -1.474485   -5.950347    2.704902
     99          1           0        2.620958   -1.786804   -1.319925
    100          1           0        2.597581   -0.170150   -1.789194
    101          1           0        4.090062   -1.284386    0.660560
    102          1           0        3.762844    1.417153   -2.220086
    103          1           0        5.507093    2.234301   -1.939699
    104          1           0        5.395666    0.765211   -2.833878
    105          1           0        6.405350    1.340566    0.327692
    106          1           0        6.465956   -0.351851    0.921861
    107          1           0        7.309178   -1.023961   -1.348495
    108          1           0        7.800627    0.534054   -1.733497
    109          1           0        8.984765    1.039459    0.410346
    110          1           0        8.979127   -0.520998    0.880927
    111          1           0       10.301791    0.108878   -1.660046
    112          1           0        9.103958   -2.097634   -2.128197
    113          1           0       10.732143   -2.536941   -2.054237
    114          1           0        9.934333   -2.806735   -0.399986
    115          1           0       11.388024    0.554352    0.614825
    116          1           0       11.436282   -1.253477    0.793172
    117          1           0       12.848371   -1.496473   -0.935327
    118          1           0       12.730402    0.227943   -1.582512
    119          1           0       14.088498    0.974513    0.429176
    120          1           0       13.957778   -0.565352    1.030277
    121          1           0       15.377333    0.321613   -1.598619
    122          1           0       15.564321   -2.435127    0.024889
    123          1           0       15.139279   -2.256886   -1.683208
    124          1           0       16.774818   -1.896369   -1.054461
    125          1           0       16.094105    1.309528    0.636912
    126          1           0       16.656579   -0.170368    1.291861
    127          1           0       18.550486   -0.264373   -0.865560
    128          1           0       17.547858    1.257662   -1.325435
    129          1           0       18.346311    2.276553    0.788156
    130          1           0       18.852999    0.883679    1.522208
    131          1           0       20.709335    0.408517   -0.262739
    132          1           0       20.207160    3.243066   -0.949921
    133          1           0       21.611397    2.057724   -1.490330
    134          1           0       19.832696    1.966936   -2.000873
    135          1           0       21.043939    1.489225    2.085631
    136          1           0       22.101189    2.095033    1.054711
    137          1           0       20.670163    3.020401    1.185669
 ---------------------------------------------------------------------

 SCF Done:  E(RCAM-B3LYP) =  -2933.51173075     A.U. after   16 cycles

 Excitation energies and oscillator strengths:

 Excited State   1:      Singlet-A      1.9560 eV  633.87 nm  f=0.2751  <S**2>=0.000
     240 -> 242       -0.22925
     240 -> 243        0.21821
     241 -> 242        0.62146
 This state for optimization and/or second-order correction.
 Total Energy, E(TD-HF/TD-DFT) =  -2933.43984966
 Copying the excited state density for this state as the 1-particle RhoCI density.

 The electronic state is 1-A.
 Alpha  occ. eigenvalues --  -46.79915 -19.22644 -19.20204 -19.17602 -19.15877
 Alpha  occ. eigenvalues --  -19.14800 -14.36992 -14.35741 -14.34726 -14.34386
 Alpha  occ. eigenvalues --  -10.33810 -10.33153 -10.30533 -10.27095 -10.25908
 Alpha  occ. eigenvalues --  -10.25803 -10.25061 -10.24854 -10.24688 -10.24578
 Alpha  occ. eigenvalues --  -10.24574 -10.24551 -10.24530 -10.24455 -10.24178
 Alpha  occ. eigenvalues --  -10.23812 -10.23804 -10.23719 -10.23679 -10.23662
 Alpha  occ. eigenvalues --  -10.23581 -10.23551 -10.23488 -10.23180 -10.23112
 Alpha  occ. eigenvalues --  -10.23070 -10.22907 -10.22851 -10.22744 -10.22675
 Alpha  occ. eigenvalues --  -10.22595 -10.22462 -10.22433 -10.22224 -10.22145
 Alpha  occ. eigenvalues --  -10.22020 -10.21953 -10.21754 -10.21505 -10.21479
 Alpha  occ. eigenvalues --  -10.21423 -10.21402 -10.21360 -10.21053 -10.21034
 Alpha  occ. eigenvalues --  -10.20849 -10.20606 -10.20393 -10.20236 -10.20018
 Alpha  occ. eigenvalues --  -10.20000 -10.19854 -10.19640 -10.18746 -10.18621
 Alpha  occ. eigenvalues --   -3.08526  -1.83466  -1.83017  -1.82919  -1.14805
 Alpha  occ. eigenvalues --   -1.13388  -1.06347  -1.03665  -1.03229  -1.01022
 Alpha  occ. eigenvalues --   -0.99351  -0.98426  -0.97616  -0.86929  -0.86348
 Alpha  occ. eigenvalues --   -0.86279  -0.85634  -0.85001  -0.84440  -0.83613
 Alpha  occ. eigenvalues --   -0.83159  -0.83041  -0.82820  -0.82396  -0.81581
 Alpha  occ. eigenvalues --   -0.80097  -0.79608  -0.78871  -0.78033  -0.77726
 Alpha  occ. eigenvalues --   -0.76704  -0.75995  -0.75366  -0.74541  -0.73699
 Alpha  occ. eigenvalues --   -0.73409  -0.72899  -0.71836  -0.71684  -0.71549
 Alpha  occ. eigenvalues --   -0.70581  -0.70154  -0.69667  -0.68827  -0.68506
 Alpha  occ. eigenvalues --   -0.67440  -0.66496  -0.65586  -0.64867  -0.64234
 Alpha  occ. eigenvalues --   -0.63536  -0.62422  -0.61067  -0.60497  -0.60285
 Alpha  occ. eigenvalues --   -0.59495  -0.59264  -0.59036  -0.58383  -0.57789
 Alpha  occ. eigenvalues --   -0.57709  -0.57145  -0.56904  -0.56110  -0.55076
 Alpha  occ. eigenvalues --   -0.54472  -0.54208  -0.53487  -0.53379  -0.52961
 Alpha  occ. eigenvalues --   -0.51894  -0.51354  -0.51228  -0.51197  -0.51029
 Alpha  occ. eigenvalues --   -0.50892  -0.50577  -0.50447  -0.49784  -0.49654
 Alpha  occ. eigenvalues --   -0.49437  -0.48868  -0.48667  -0.48274  -0.48181
 Alpha  occ. eigenvalues --   -0.47836  -0.47634  -0.47615  -0.47018  -0.46775
 Alpha  occ. eigenvalues --   -0.46697  -0.46558  -0.46027  -0.45988  -0.45656
 Alpha  occ. eigenvalues --   -0.45360  -0.45174  -0.44962  -0.44839  -0.44737
 Alpha  occ. eigenvalues --   -0.44543  -0.44365  -0.44234  -0.43842  -0.43566
 Alpha  occ. eigenvalues --   -0.43517  -0.43042  -0.42958  -0.42601  -0.42478
 Alpha  occ. eigenvalues --   -0.42293  -0.41978  -0.41776  -0.41486  -0.41367
 Alpha  occ. eigenvalues --   -0.41196  -0.41060  -0.40904  -0.40728  -0.40647
 Alpha  occ. eigenvalues --   -0.40447  -0.40278  -0.40151  -0.40090  -0.39939
 Alpha  occ. eigenvalues --   -0.39669  -0.39611  -0.39416  -0.39195  -0.38911
 Alpha  occ. eigenvalues --   -0.38712  -0.38375  -0.38302  -0.38215  -0.37908
 Alpha  occ. eigenvalues --   -0.37314  -0.37310  -0.37266  -0.37154  -0.37086
 Alpha  occ. eigenvalues --   -0.37002  -0.36812  -0.36220  -0.36055  -0.35918
 Alpha  occ. eigenvalues --   -0.35850  -0.35773  -0.35390  -0.34863  -0.34740
 Alpha  occ. eigenvalues --   -0.34579  -0.34558  -0.34309  -0.33892  -0.33601
 Alpha  occ. eigenvalues --   -0.33538  -0.33147  -0.32978  -0.32733  -0.32652
 Alpha  occ. eigenvalues --   -0.32582  -0.32195  -0.31577  -0.31416  -0.31123
 Alpha  occ. eigenvalues --   -0.30806  -0.29913  -0.28529  -0.28057  -0.26517
 Alpha  occ. eigenvalues --   -0.26351  -0.26047  -0.25853  -0.24686  -0.21026
 Alpha  occ. eigenvalues --   -0.20496
 Alpha virt. eigenvalues --   -0.08053  -0.04128  -0.00117   0.02636   0.04219
 Alpha virt. eigenvalues --    0.04406   0.04633   0.04899   0.05420   0.05894
 Alpha virt. eigenvalues --    0.06828   0.08436   0.09060   0.09458   0.09569

 Mulliken charges:
               1
     1  Mg   0.818720
     2  C    0.105144
     3  C   -0.214732
     4  C   -0.159460
     5  C   -0.186466
     6  N   -0.608578
     7  C    0.288098
     8  C   -0.178019
     9  C   -0.159483
    10  C    0.352646
    11  C   -0.288449
    12  C   -0.163488
    13  C   -0.259886
    14  C    0.616894
    15  O   -0.422412
    16  O   -0.495476
    17  N   -0.677165
    18  C    0.300539
    19  C    0.032291
    20  C    0.024103
    21  C    0.242398
    22  C   -0.345008
    23  C   -0.098926
    24  C   -0.240553
    25  N   -0.691640
    26  C    0.231992
    27  C    0.147143
    28  C    0.032937
    29  C    0.331907
    30  C   -0.436866
    31  C   -0.247970
    32  C   -0.316134
    33  N   -0.730714
    34  C    0.296685
    35  C    0.033377
    36  C   -0.007148
    37  C    0.312012
    38  C   -0.386208
    39  C    0.369106
    40  O   -0.488876
    41  C   -0.338834
    42  C    0.616711
    43  O   -0.489518
    44  O   -0.424425
    45  C   -0.099976
    46  C    0.047347
    47  C   -0.147174
    48  C    0.112746
    49  C   -0.368712
    50  C   -0.219750
    51  C   -0.172342
    52  C   -0.165448
    53  C   -0.049378
    54  C   -0.315319
    55  C   -0.170158
    56  C   -0.175235
    57  C   -0.177715
    58  C   -0.043309
    59  C   -0.322329
    60  C   -0.174811
    61  C   -0.167815
    62  C   -0.159892
    63  C   -0.058739
    64  C   -0.279301
    65  C   -0.290444
    66  H    0.067915
    67  H    0.071441
    68  H    0.073842
    69  H    0.111088
    70  H    0.091488
    71  H    0.113310
    72  H    0.117861
    73  H    0.123840
    74  H    0.109456
    75  H    0.097603
    76  H    0.142480
    77  H    0.134232
    78  H    0.133397
    79  H    0.110800
    80  H    0.101627
    81  H    0.093180
    82  H    0.094628
    83  H    0.099176
    84  H    0.100902
    85  H    0.125576
    86  H    0.117905
    87  H    0.103387
    88  H    0.103674
    89  H    0.091445
    90  H    0.120257
    91  H    0.120500
    92  H    0.142027
    93  H    0.150354
    94  H    0.114804
    95  H    0.135257
    96  H    0.142894
    97  H    0.138040
    98  H    0.122474
    99  H    0.108711
   100  H    0.102233
   101  H    0.084714
   102  H    0.109165
   103  H    0.104155
   104  H    0.123049
   105  H    0.107645
   106  H    0.101622
   107  H    0.096918
   108  H    0.089380
   109  H    0.071656
   110  H    0.082857
   111  H    0.083744
   112  H    0.077418
   113  H    0.108270
   114  H    0.101208
   115  H    0.095814
   116  H    0.100985
   117  H    0.102035
   118  H    0.090641
   119  H    0.072793
   120  H    0.085882
   121  H    0.072537
   122  H    0.109838
   123  H    0.087637
   124  H    0.100778
   125  H    0.099150
   126  H    0.075752
   127  H    0.075111
   128  H    0.074320
   129  H    0.081715
   130  H    0.064808
   131  H    0.070100
   132  H    0.101401
   133  H    0.068940
   134  H    0.104131
   135  H    0.096691
   136  H    0.103331
   137  H    0.097488
 Sum of Mulliken charges =  -0.00000

 Dipole moment (field-independent basis, Debye):
    X=              0.1236    Y=              3.9672    Z=              0.2171  Tot=              3.9751
 Quadrupole moment (field-independent basis, Debye-Ang):
   XX=           -332.9633   YY=           -392.9491   ZZ=           -396.7049
   XY=            -21.0247   XZ=             22.0231   YZ=             -3.3906

 Normal termination of Gaussian 16 at Tue Sep  3 19:17:38 2019.
