 Gaussian 09, Revision D.01,
 Gaussian 09:  ES64L-G09RevD.01 24-Apr-2013

 -------------------------------------
 # td=(NStates=1) CAM-B3LYP/6-31G(d,p)
 -------------------------------------

 --
 TD
 --
 Symbolic Z-matrix:
 Charge =  0 Multiplicity = 1

                         Standard orientation:
 ---------------------------------------------------------------------
 Center     Atomic      Atomic             Coordinates (Angstroms)
 Number     Number       Type             X           Y           Z
 ---------------------------------------------------------------------
      1         12           0       -7.163235    0.674874    0.144426
      2          6           0       -4.833058   -1.883027    0.467807
      3          6           0       -4.802645    2.820874    1.130418
      4          6           0       -9.321328    3.147898   -0.494926
      5          6           0       -9.483725   -1.642368   -0.894984
      6          7           0       -5.171988    0.470269    0.695250
      7          6           0       -4.344827   -0.656363    0.720582
      8          6           0       -2.922846   -0.322886    1.251543
      9          6           0       -3.041870    1.094968    1.712961
     10          6           0       -4.344227    1.479449    1.104473
     11          6           0       -3.123956    1.278093    3.320842
     12          6           0       -1.941379   -0.700815    0.074025
     13          6           0       -0.475085   -0.451267    0.619081
     14          6           0        0.519081   -0.748545   -0.578178
     15          8           0        0.185059   -1.031498   -1.630036
     16          8           0        1.864405   -0.460335   -0.220651
     17          7           0       -6.969965    2.614417    0.289162
     18          6           0       -5.987522    3.403625    0.773484
     19          6           0       -6.416847    4.768822    0.744061
     20          6           0       -7.710849    4.867359    0.298185
     21          6           0       -8.092774    3.464820    0.040653
     22          6           0       -5.465446    5.787844    1.115793
     23          6           0       -8.453363    6.045820    0.100124
     24          6           0       -8.402752    7.146212    0.871731
     25          7           0       -9.125789    0.747178   -0.593958
     26          6           0       -9.814511    1.846317   -0.652708
     27          6           0      -11.171293    1.417785   -1.032835
     28          6           0      -11.196588    0.048835   -1.181465
     29          6           0       -9.937988   -0.355232   -0.889605
     30          6           0      -12.180255    2.402987   -1.366101
     31          6           0      -12.445008   -0.828911   -1.661786
     32          6           0      -12.330250   -0.954707   -3.127229
     33          7           0       -7.168803   -1.411531   -0.167328
     34          6           0       -8.207188   -2.171275   -0.571184
     35          6           0       -7.836116   -3.562656   -0.555940
     36          6           0       -6.509890   -3.627399   -0.132827
     37          6           0       -6.196814   -2.204617   -0.042481
     38          6           0       -8.691464   -4.805715   -0.736421
     39          6           0       -5.324627   -4.381096    0.244207
     40          8           0       -5.185122   -5.589790    0.176084
     41          6           0       -4.178584   -3.264080    0.539522
     42          6           0       -3.558015   -3.726275    1.913749
     43          8           0       -3.738048   -3.253488    2.952200
     44          8           0       -2.853380   -4.877430    1.689697
     45          6           0       -2.261741   -5.409587    2.923525
     46          6           0        2.842144   -0.729831   -1.188996
     47          6           0        4.134312   -0.359010   -0.567362
     48          6           0        5.175793    0.279294   -1.031359
     49          6           0        5.066845    1.086166   -2.330752
     50          6           0        6.446972    0.502694   -0.215495
     51          6           0        7.631056   -0.134613   -1.026580
     52          6           0        8.877219   -0.101399   -0.088661
     53          6           0       10.191411   -0.460377   -1.015355
     54          6           0       10.004542   -1.914976   -1.557997
     55          6           0       11.444450   -0.304132   -0.129517
     56          6           0       12.796624   -0.312720   -0.759803
     57          6           0       13.937031   -0.209231    0.186236
     58          6           0       15.344151   -0.160003   -0.437865
     59          6           0       15.680705   -1.551911   -1.066234
     60          6           0       16.364412    0.380629    0.546341
     61          6           0       17.761458    0.571341   -0.068934
     62          6           0       18.738464    1.305088    0.809055
     63          6           0       20.159490    1.261233    0.366615
     64          6           0       20.515511    1.991475   -0.936372
     65          6           0       21.224817    1.828861    1.435272
     66          1           0       -4.018477    3.441011    1.618390
     67          1           0      -10.065544    4.029116   -0.455046
     68          1           0      -10.244687   -2.246389   -1.005505
     69          1           0       -2.684829   -0.950047    2.067396
     70          1           0       -2.169446    1.794981    1.446296
     71          1           0       -2.047304    1.051630    3.589276
     72          1           0       -3.451613    2.501101    3.410623
     73          1           0       -3.904589    0.544101    3.563133
     74          1           0       -2.212107   -1.627422   -0.339416
     75          1           0       -1.934982    0.196182   -0.607203
     76          1           0       -0.478540    0.656959    0.877734
     77          1           0       -0.233363   -0.948266    1.439258
     78          1           0       -5.586933    6.708913    0.735085
     79          1           0       -5.356264    6.016711    2.156825
     80          1           0       -4.412861    5.458855    0.806080
     81          1           0       -9.093230    6.205209   -0.968339
     82          1           0       -9.007372    7.993559    0.538208
     83          1           0       -7.720087    7.193428    1.776809
     84          1           0      -12.102651    3.005815   -2.275267
     85          1           0      -13.259598    2.092927   -1.258525
     86          1           0      -12.408914    3.198014   -0.547205
     87          1           0      -12.353137   -1.719495   -1.052836
     88          1           0      -13.193340   -0.318090   -1.396199
     89          1           0      -13.126973   -1.537834   -3.594453
     90          1           0      -12.176299    0.093794   -3.660375
     91          1           0      -11.468023   -1.563267   -3.481531
     92          1           0       -9.397734   -4.652340   -1.652760
     93          1           0       -8.103777   -5.713013   -0.880691
     94          1           0       -9.281658   -5.154643    0.119259
     95          1           0       -3.324320   -3.444463   -0.252620
     96          1           0       -1.748564   -4.749072    3.488403
     97          1           0       -3.238385   -5.639737    3.581138
     98          1           0       -1.572433   -6.154212    2.537473
     99          1           0        2.642625   -1.760436   -1.477469
    100          1           0        2.687510    0.031873   -1.869207
    101          1           0        4.291483   -0.898819    0.379479
    102          1           0        4.024031    1.175338   -2.548508
    103          1           0        5.580129    2.094768   -2.220083
    104          1           0        5.513047    0.375562   -3.063135
    105          1           0        6.770030    1.517343   -0.303700
    106          1           0        6.295610    0.111939    0.849835
    107          1           0        7.592054   -0.929723   -1.555707
    108          1           0        7.930512    0.910015   -1.761290
    109          1           0        9.074067    1.014351    0.199846
    110          1           0        8.602332   -0.670532    0.929857
    111          1           0       10.098162    0.316396   -1.682824
    112          1           0        9.153505   -2.224240   -2.089150
    113          1           0       10.978445   -2.155792   -2.016676
    114          1           0       10.012320   -2.626946   -0.629823
    115          1           0       11.092072    0.591959    0.573436
    116          1           0       11.226684   -1.374034    0.422303
    117          1           0       12.853766   -1.302839   -1.357886
    118          1           0       12.779382    0.569051   -1.554498
    119          1           0       13.805858    0.772857    0.556337
    120          1           0       13.605650   -0.793782    1.147415
    121          1           0       15.332407    0.563340   -1.123835
    122          1           0       15.863416   -2.162291   -0.195451
    123          1           0       14.695858   -1.910204   -1.704509
    124          1           0       16.549370   -1.654973   -1.734200
    125          1           0       16.106061    1.474966    0.718915
    126          1           0       16.595540   -0.320592    1.383474
    127          1           0       18.191707   -0.481795   -0.185066
    128          1           0       17.691033    1.199370   -1.073544
    129          1           0       18.185424    2.209972    1.016608
    130          1           0       18.772344    0.754998    1.756883
    131          1           0       20.379725    0.240408    0.100735
    132          1           0       20.276199    3.038216   -0.798604
    133          1           0       21.612985    1.644174   -1.368375
    134          1           0       19.888426    1.752531   -1.711491
    135          1           0       21.080532    1.360843    2.386591
    136          1           0       22.147551    1.663231    1.099652
    137          1           0       21.121553    3.018207    1.324911
 ---------------------------------------------------------------------

 SCF Done:  E(RCAM-B3LYP) =  -2932.65010055     A.U. after   17 cycles

 Excitation energies and oscillator strengths:

 Excited State   1:      Singlet-A      2.1955 eV  564.71 nm  f=0.2138  <S**2>=0.000
     240 -> 242       -0.17300
     240 -> 243        0.21864
     241 -> 242        0.63044
     241 -> 243        0.11695
 This state for optimization and/or second-order correction.
 Total Energy, E(TD-HF/TD-KS) =  -2932.56941566
 Copying the excited state density for this state as the 1-particle RhoCI density.

 The electronic state is 1-A.
 Alpha  occ. eigenvalues --  -46.84285 -19.24899 -19.23791 -19.22376 -19.21258
 Alpha  occ. eigenvalues --  -19.19649 -14.41719 -14.39364 -14.39108 -14.38735
 Alpha  occ. eigenvalues --  -10.39090 -10.38406 -10.34816 -10.31603 -10.30669
 Alpha  occ. eigenvalues --  -10.30248 -10.30028 -10.29958 -10.29776 -10.29064
 Alpha  occ. eigenvalues --  -10.29016 -10.28923 -10.28688 -10.28544 -10.28160
 Alpha  occ. eigenvalues --  -10.28106 -10.27766 -10.27536 -10.27495 -10.27472
 Alpha  occ. eigenvalues --  -10.27224 -10.27167 -10.27126 -10.27114 -10.27057
 Alpha  occ. eigenvalues --  -10.27002 -10.26704 -10.26561 -10.26554 -10.26533
 Alpha  occ. eigenvalues --  -10.26498 -10.26348 -10.26296 -10.26288 -10.25864
 Alpha  occ. eigenvalues --  -10.25844 -10.25750 -10.25734 -10.25705 -10.25695
 Alpha  occ. eigenvalues --  -10.25628 -10.25489 -10.25456 -10.25370 -10.25335
 Alpha  occ. eigenvalues --  -10.25332 -10.25329 -10.25136 -10.25022 -10.24868
 Alpha  occ. eigenvalues --  -10.24323 -10.24286 -10.24267 -10.24266 -10.24262
 Alpha  occ. eigenvalues --   -3.13395  -1.88094  -1.87639  -1.87575  -1.19443
 Alpha  occ. eigenvalues --   -1.18637  -1.10948  -1.10237  -1.09719  -1.06241
 Alpha  occ. eigenvalues --   -1.04364  -1.03987  -1.02884  -0.91308  -0.91206
 Alpha  occ. eigenvalues --   -0.90916  -0.90520  -0.90039  -0.89780  -0.89588
 Alpha  occ. eigenvalues --   -0.88281  -0.88157  -0.87413  -0.87118  -0.85751
 Alpha  occ. eigenvalues --   -0.85239  -0.84351  -0.83632  -0.83462  -0.82944
 Alpha  occ. eigenvalues --   -0.81341  -0.80784  -0.80457  -0.79781  -0.78388
 Alpha  occ. eigenvalues --   -0.77622  -0.77382  -0.75533  -0.75348  -0.75339
 Alpha  occ. eigenvalues --   -0.75177  -0.74962  -0.74580  -0.72976  -0.72605
 Alpha  occ. eigenvalues --   -0.71281  -0.70559  -0.70188  -0.69384  -0.68594
 Alpha  occ. eigenvalues --   -0.67727  -0.66556  -0.64873  -0.64837  -0.64014
 Alpha  occ. eigenvalues --   -0.63937  -0.63078  -0.62665  -0.62408  -0.62083
 Alpha  occ. eigenvalues --   -0.61986  -0.60975  -0.60551  -0.59788  -0.59082
 Alpha  occ. eigenvalues --   -0.58252  -0.58188  -0.58074  -0.57702  -0.56377
 Alpha  occ. eigenvalues --   -0.56193  -0.55574  -0.55538  -0.55383  -0.55128
 Alpha  occ. eigenvalues --   -0.54784  -0.54419  -0.53923  -0.53532  -0.53301
 Alpha  occ. eigenvalues --   -0.52869  -0.52611  -0.52577  -0.52446  -0.52151
 Alpha  occ. eigenvalues --   -0.51715  -0.51477  -0.51276  -0.50928  -0.50778
 Alpha  occ. eigenvalues --   -0.50562  -0.50508  -0.50203  -0.50051  -0.49684
 Alpha  occ. eigenvalues --   -0.49493  -0.49389  -0.49068  -0.48699  -0.48348
 Alpha  occ. eigenvalues --   -0.48208  -0.48038  -0.47625  -0.47339  -0.46997
 Alpha  occ. eigenvalues --   -0.46885  -0.46831  -0.46732  -0.46210  -0.45926
 Alpha  occ. eigenvalues --   -0.45906  -0.45776  -0.45414  -0.45286  -0.45153
 Alpha  occ. eigenvalues --   -0.44853  -0.44552  -0.44499  -0.44343  -0.44212
 Alpha  occ. eigenvalues --   -0.44085  -0.43930  -0.43700  -0.43454  -0.43370
 Alpha  occ. eigenvalues --   -0.43189  -0.42984  -0.42620  -0.42557  -0.42384
 Alpha  occ. eigenvalues --   -0.41981  -0.41768  -0.41584  -0.41564  -0.41308
 Alpha  occ. eigenvalues --   -0.40999  -0.40791  -0.40567  -0.40505  -0.40272
 Alpha  occ. eigenvalues --   -0.40050  -0.39947  -0.39902  -0.39798  -0.39540
 Alpha  occ. eigenvalues --   -0.39068  -0.38814  -0.38418  -0.37958  -0.37794
 Alpha  occ. eigenvalues --   -0.37496  -0.37381  -0.37126  -0.36571  -0.36492
 Alpha  occ. eigenvalues --   -0.36148  -0.35955  -0.35593  -0.35459  -0.35312
 Alpha  occ. eigenvalues --   -0.35212  -0.35031  -0.34918  -0.34429  -0.33718
 Alpha  occ. eigenvalues --   -0.33481  -0.33236  -0.31988  -0.30896  -0.29669
 Alpha  occ. eigenvalues --   -0.29607  -0.29040  -0.28397  -0.27902  -0.23279
 Alpha  occ. eigenvalues --   -0.21497
 Alpha virt. eigenvalues --   -0.06073  -0.02725   0.02009   0.03694   0.05183
 Alpha virt. eigenvalues --    0.06068   0.06880   0.07421   0.07801   0.07865
 Alpha virt. eigenvalues --    0.09025   0.09698   0.10039   0.10667   0.11491

 Mulliken charges:
               1
     1  Mg   0.825570
     2  C    0.054655
     3  C   -0.269059
     4  C   -0.178728
     5  C   -0.118611
     6  N   -0.632279
     7  C    0.275404
     8  C   -0.141429
     9  C   -0.182651
    10  C    0.382849
    11  C   -0.278045
    12  C   -0.160580
    13  C   -0.275875
    14  C    0.582922
    15  O   -0.391658
    16  O   -0.521190
    17  N   -0.748969
    18  C    0.386995
    19  C    0.039354
    20  C    0.051034
    21  C    0.294175
    22  C   -0.394862
    23  C   -0.113365
    24  C   -0.230899
    25  N   -0.705016
    26  C    0.347027
    27  C   -0.015004
    28  C    0.011744
    29  C    0.257695
    30  C   -0.414262
    31  C   -0.161049
    32  C   -0.311538
    33  N   -0.638980
    34  C    0.263521
    35  C   -0.026417
    36  C    0.058669
    37  C    0.217769
    38  C   -0.376092
    39  C    0.360572
    40  O   -0.456699
    41  C   -0.341342
    42  C    0.597622
    43  O   -0.434081
    44  O   -0.463981
    45  C   -0.085017
    46  C    0.050707
    47  C   -0.152420
    48  C    0.116525
    49  C   -0.355061
    50  C   -0.206387
    51  C   -0.158959
    52  C   -0.181925
    53  C   -0.055892
    54  C   -0.321827
    55  C   -0.162149
    56  C   -0.157293
    57  C   -0.175444
    58  C   -0.036563
    59  C   -0.307587
    60  C   -0.176303
    61  C   -0.185736
    62  C   -0.153588
    63  C   -0.066079
    64  C   -0.308415
    65  C   -0.296912
    66  H    0.062610
    67  H    0.101280
    68  H    0.065446
    69  H    0.125118
    70  H    0.104633
    71  H    0.117349
    72  H    0.092933
    73  H    0.142363
    74  H    0.128867
    75  H    0.115093
    76  H    0.123860
    77  H    0.132941
    78  H    0.127029
    79  H    0.124888
    80  H    0.108650
    81  H    0.092410
    82  H    0.109439
    83  H    0.108178
    84  H    0.126523
    85  H    0.100856
    86  H    0.095300
    87  H    0.107392
    88  H    0.113944
    89  H    0.102180
    90  H    0.105533
    91  H    0.109153
    92  H    0.097585
    93  H    0.144934
    94  H    0.128662
    95  H    0.150437
    96  H    0.135118
    97  H    0.122222
    98  H    0.129324
    99  H    0.121106
   100  H    0.104214
   101  H    0.071781
   102  H    0.116919
   103  H    0.106909
   104  H    0.125094
   105  H    0.114315
   106  H    0.096689
   107  H    0.105235
   108  H    0.043849
   109  H    0.073605
   110  H    0.078418
   111  H    0.094501
   112  H    0.116012
   113  H    0.105900
   114  H    0.090281
   115  H    0.076923
   116  H    0.066733
   117  H    0.083788
   118  H    0.070669
   119  H    0.098961
   120  H    0.086526
   121  H    0.093725
   122  H    0.106598
   123  H    0.077482
   124  H    0.106354
   125  H    0.084419
   126  H    0.092016
   127  H    0.079135
   128  H    0.070105
   129  H    0.086176
   130  H    0.086060
   131  H    0.088828
   132  H    0.099332
   133  H    0.077454
   134  H    0.106877
   135  H    0.099360
   136  H    0.115208
   137  H    0.081598
 Sum of Mulliken charges =   0.00000

 Dipole moment (field-independent basis, Debye):
    X=              1.2196    Y=              5.5320    Z=              1.1351  Tot=              5.7774
 Quadrupole moment (field-independent basis, Debye-Ang):
   XX=           -349.4780   YY=           -391.9505   ZZ=           -399.1599
   XY=            -32.2148   XZ=              0.2691   YZ=             -1.3492

 Normal termination of Gaussian 09 at Sat Jul  6 12:23:31 2019.
