 Gaussian 09, Revision D.01,
 Gaussian 09:  ES64L-G09RevD.01 24-Apr-2013

 -------------------------------------
 # td=(NStates=1) CAM-B3LYP/6-31G(d,p)
 -------------------------------------

 --
 TD
 --
 Symbolic Z-matrix:
 Charge =  0 Multiplicity = 1

                         Standard orientation:
 ---------------------------------------------------------------------
 Center     Atomic      Atomic             Coordinates (Angstroms)
 Number     Number       Type             X           Y           Z
 ---------------------------------------------------------------------
      1         12           0       -7.118435    0.627705    0.096563
      2          6           0       -4.918326   -1.980958    0.518548
      3          6           0       -4.795096    2.851028    1.165947
      4          6           0       -9.342759    3.170934   -0.397439
      5          6           0       -9.604043   -1.641307   -0.821821
      6          7           0       -5.116573    0.429411    0.748041
      7          6           0       -4.402971   -0.733508    0.881996
      8          6           0       -2.963751   -0.425676    1.287238
      9          6           0       -2.973838    1.038690    1.714408
     10          6           0       -4.404632    1.417093    1.226389
     11          6           0       -2.780748    1.191451    3.218357
     12          6           0       -1.986731   -0.632602   -0.023123
     13          6           0       -0.545913   -0.427524    0.430013
     14          6           0        0.394713   -0.727464   -0.718574
     15          8           0        0.248532   -1.047505   -1.869645
     16          8           0        1.731346   -0.556898   -0.296229
     17          7           0       -7.118798    2.561570    0.310947
     18          6           0       -6.039662    3.303169    0.850845
     19          6           0       -6.448094    4.806910    0.772415
     20          6           0       -7.704774    4.830073    0.294735
     21          6           0       -8.086066    3.530726    0.022989
     22          6           0       -5.444446    5.885703    1.050985
     23          6           0       -8.362895    6.034867    0.008733
     24          6           0       -8.276669    7.209080    0.673586
     25          7           0       -9.092745    0.652925   -0.411165
     26          6           0       -9.837606    1.874958   -0.597674
     27          6           0      -11.158408    1.520748   -1.091749
     28          6           0      -11.175593    0.170674   -1.172157
     29          6           0      -10.011334   -0.355502   -0.757538
     30          6           0      -12.248307    2.479695   -1.402562
     31          6           0      -12.382838   -0.761954   -1.594903
     32          6           0      -12.276015   -1.068636   -3.111415
     33          7           0       -7.235436   -1.299004   -0.168942
     34          6           0       -8.394500   -2.194296   -0.498486
     35          6           0       -7.931777   -3.607588   -0.496578
     36          6           0       -6.570159   -3.558757   -0.123851
     37          6           0       -6.228845   -2.173319    0.095351
     38          6           0       -8.665101   -4.774286   -0.881429
     39          6           0       -5.322307   -4.257731    0.212656
     40          8           0       -5.134104   -5.498520    0.210283
     41          6           0       -4.168580   -3.275768    0.535702
     42          6           0       -3.526797   -3.576611    1.920969
     43          8           0       -3.817810   -3.026159    2.972102
     44          8           0       -2.740779   -4.661834    1.752113
     45          6           0       -2.252763   -5.203018    2.983194
     46          6           0        2.719552   -0.851405   -1.292692
     47          6           0        4.075413   -0.543735   -0.611190
     48          6           0        5.139275    0.177916   -0.983502
     49          6           0        5.191720    0.990923   -2.243660
     50          6           0        6.428796    0.323821   -0.158434
     51          6           0        7.613466   -0.398457   -0.868939
     52          6           0        8.931775   -0.271868   -0.121098
     53          6           0       10.122263   -0.621594   -0.859118
     54          6           0       10.166499   -2.039497   -1.451270
     55          6           0       11.331977   -0.275642   -0.023532
     56          6           0       12.763268   -0.511039   -0.640628
     57          6           0       13.953276    0.022327    0.253210
     58          6           0       15.395823   -0.202071   -0.572482
     59          6           0       15.736602   -1.634257   -0.954842
     60          6           0       16.435456    0.439317    0.333665
     61          6           0       17.875111    0.661083   -0.154543
     62          6           0       18.723082    1.354130    0.764472
     63          6           0       20.211748    1.354816    0.324656
     64          6           0       20.376008    2.214804   -0.961461
     65          6           0       21.074593    2.052123    1.358937
     66          1           0       -3.914545    3.304369    1.534493
     67          1           0      -10.048035    3.937261   -0.609286
     68          1           0      -10.278878   -2.227060   -1.317121
     69          1           0       -2.682796   -1.345668    2.080183
     70          1           0       -2.272064    1.668886    1.163454
     71          1           0       -1.709358    0.931741    3.373057
     72          1           0       -3.084117    2.196764    3.603144
     73          1           0       -3.445392    0.379180    3.566270
     74          1           0       -2.054861   -1.616331   -0.425429
     75          1           0       -2.308384    0.146422   -0.686776
     76          1           0       -0.474159    0.732639    0.795429
     77          1           0       -0.273136   -1.012701    1.370395
     78          1           0       -5.881796    6.752110    0.399569
     79          1           0       -5.509692    6.266198    2.129370
     80          1           0       -4.321018    5.512370    0.969949
     81          1           0       -8.968674    5.892990   -1.036132
     82          1           0       -8.871782    8.177529    0.330647
     83          1           0       -7.757831    7.239324    1.711454
     84          1           0      -12.054680    3.026122   -2.301781
     85          1           0      -13.251986    1.952822   -1.518237
     86          1           0      -12.532068    3.252039   -0.744857
     87          1           0      -12.494969   -1.737023   -0.857577
     88          1           0      -13.268480   -0.142897   -1.532371
     89          1           0      -13.340174   -1.315904   -3.738340
     90          1           0      -12.003543   -0.139705   -3.720377
     91          1           0      -11.237244   -1.734526   -3.201702
     92          1           0       -8.878312   -4.625111   -2.028777
     93          1           0       -7.802827   -5.517760   -0.765287
     94          1           0       -9.518875   -4.688723   -0.181156
     95          1           0       -3.227330   -3.288397   -0.174796
     96          1           0       -1.629116   -4.538077    3.532134
     97          1           0       -3.014829   -5.629424    3.714693
     98          1           0       -1.752145   -6.287274    2.641924
     99          1           0        2.646616   -1.741051   -1.627042
    100          1           0        2.711488   -0.198465   -2.277362
    101          1           0        4.214602   -1.171096    0.300073
    102          1           0        4.248362    1.322315   -2.653907
    103          1           0        5.752841    1.888054   -2.133364
    104          1           0        5.574125    0.289598   -3.217680
    105          1           0        6.538004    1.247717    0.168249
    106          1           0        6.346011   -0.179376    0.906213
    107          1           0        7.326902   -1.393461   -0.997872
    108          1           0        7.837374    0.076167   -1.943710
    109          1           0        9.063262    0.732069    0.225530
    110          1           0        8.789362   -0.954231    0.745650
    111          1           0       10.096001    0.038696   -1.792065
    112          1           0        9.364638   -2.042031   -2.215404
    113          1           0       11.259772   -2.118626   -2.022171
    114          1           0        9.918923   -2.720122   -0.621018
    115          1           0       11.406804    0.861692    0.175379
    116          1           0       11.210637   -0.955445    0.856051
    117          1           0       12.755959   -1.655335   -0.758946
    118          1           0       12.866782    0.154858   -1.634970
    119          1           0       14.010350    0.945626    0.635088
    120          1           0       13.941723   -0.705189    1.016833
    121          1           0       15.326851    0.583341   -1.388592
    122          1           0       16.044334   -2.386053   -0.147814
    123          1           0       14.973958   -2.165056   -1.712016
    124          1           0       16.680434   -1.580266   -1.462738
    125          1           0       16.015883    1.427271    0.443571
    126          1           0       16.602486   -0.265708    1.273010
    127          1           0       18.444938   -0.305323   -0.261683
    128          1           0       17.718350    1.037280   -1.241225
    129          1           0       18.284773    2.213376    1.076912
    130          1           0       18.905728    0.796932    1.752254
    131          1           0       20.781297    0.529682    0.242971
    132          1           0       19.854993    2.996950   -0.732548
    133          1           0       21.509574    2.276057   -1.083367
    134          1           0       19.867033    1.957589   -1.761902
    135          1           0       20.835770    1.687135    2.360168
    136          1           0       22.035177    2.080948    1.300977
    137          1           0       20.601179    3.165913    1.592527
 ---------------------------------------------------------------------

 SCF Done:  E(RCAM-B3LYP) =  -2932.61594171     A.U. after   18 cycles

 Excitation energies and oscillator strengths:

 Excited State   1:      Singlet-A      2.1138 eV  586.56 nm  f=0.2069  <S**2>=0.000
     240 -> 243        0.28160
     241 -> 242        0.64282
 This state for optimization and/or second-order correction.
 Total Energy, E(TD-HF/TD-KS) =  -2932.53826226
 Copying the excited state density for this state as the 1-particle RhoCI density.

 The electronic state is 1-A.
 Alpha  occ. eigenvalues --  -46.82344 -19.28082 -19.24935 -19.22493 -19.22264
 Alpha  occ. eigenvalues --  -19.19633 -14.42651 -14.39639 -14.39470 -14.38033
 Alpha  occ. eigenvalues --  -10.40609 -10.40120 -10.35442 -10.33069 -10.32246
 Alpha  occ. eigenvalues --  -10.31139 -10.30944 -10.30741 -10.30500 -10.29809
 Alpha  occ. eigenvalues --  -10.29571 -10.29248 -10.29103 -10.29095 -10.28929
 Alpha  occ. eigenvalues --  -10.28884 -10.28698 -10.28680 -10.28578 -10.28424
 Alpha  occ. eigenvalues --  -10.28204 -10.27882 -10.27833 -10.27787 -10.27108
 Alpha  occ. eigenvalues --  -10.27098 -10.26986 -10.26806 -10.26737 -10.26711
 Alpha  occ. eigenvalues --  -10.26487 -10.26377 -10.26181 -10.26147 -10.26070
 Alpha  occ. eigenvalues --  -10.25862 -10.25800 -10.25757 -10.25740 -10.25704
 Alpha  occ. eigenvalues --  -10.25666 -10.25662 -10.25528 -10.25404 -10.25368
 Alpha  occ. eigenvalues --  -10.25217 -10.25064 -10.25009 -10.25007 -10.24883
 Alpha  occ. eigenvalues --  -10.24367 -10.24273 -10.24059 -10.23650 -10.21643
 Alpha  occ. eigenvalues --   -3.11830  -1.86495  -1.86079  -1.86049  -1.19285
 Alpha  occ. eigenvalues --   -1.17602  -1.10557  -1.08710  -1.08606  -1.06038
 Alpha  occ. eigenvalues --   -1.02574  -1.01549  -1.00413  -0.92727  -0.91504
 Alpha  occ. eigenvalues --   -0.91131  -0.90994  -0.90712  -0.89382  -0.88951
 Alpha  occ. eigenvalues --   -0.88328  -0.88295  -0.87834  -0.87194  -0.86556
 Alpha  occ. eigenvalues --   -0.84692  -0.84152  -0.83316  -0.83089  -0.82180
 Alpha  occ. eigenvalues --   -0.81650  -0.81411  -0.80834  -0.79789  -0.78605
 Alpha  occ. eigenvalues --   -0.78002  -0.77240  -0.76907  -0.76217  -0.75758
 Alpha  occ. eigenvalues --   -0.75502  -0.74945  -0.74617  -0.73548  -0.71922
 Alpha  occ. eigenvalues --   -0.71801  -0.70677  -0.69282  -0.68117  -0.67514
 Alpha  occ. eigenvalues --   -0.67172  -0.67100  -0.65758  -0.65483  -0.65081
 Alpha  occ. eigenvalues --   -0.64581  -0.63647  -0.63148  -0.62181  -0.61729
 Alpha  occ. eigenvalues --   -0.61225  -0.61073  -0.60643  -0.59361  -0.58996
 Alpha  occ. eigenvalues --   -0.58629  -0.57714  -0.57310  -0.56834  -0.56742
 Alpha  occ. eigenvalues --   -0.56144  -0.55874  -0.55458  -0.55163  -0.54864
 Alpha  occ. eigenvalues --   -0.54754  -0.54353  -0.54124  -0.53749  -0.53714
 Alpha  occ. eigenvalues --   -0.53529  -0.52909  -0.52388  -0.51959  -0.51811
 Alpha  occ. eigenvalues --   -0.51663  -0.51365  -0.51272  -0.51172  -0.50707
 Alpha  occ. eigenvalues --   -0.50336  -0.50062  -0.49685  -0.49670  -0.49623
 Alpha  occ. eigenvalues --   -0.49315  -0.49199  -0.48778  -0.48614  -0.48198
 Alpha  occ. eigenvalues --   -0.47950  -0.47733  -0.47548  -0.47422  -0.47181
 Alpha  occ. eigenvalues --   -0.46986  -0.46838  -0.46500  -0.46434  -0.46114
 Alpha  occ. eigenvalues --   -0.45872  -0.45660  -0.45316  -0.45139  -0.45023
 Alpha  occ. eigenvalues --   -0.44984  -0.44844  -0.44723  -0.44415  -0.44199
 Alpha  occ. eigenvalues --   -0.43952  -0.43872  -0.43807  -0.43482  -0.43107
 Alpha  occ. eigenvalues --   -0.43031  -0.42957  -0.42696  -0.42518  -0.42490
 Alpha  occ. eigenvalues --   -0.42207  -0.41950  -0.41794  -0.41640  -0.41523
 Alpha  occ. eigenvalues --   -0.41191  -0.41059  -0.40859  -0.40564  -0.40101
 Alpha  occ. eigenvalues --   -0.40059  -0.39850  -0.39744  -0.39347  -0.39179
 Alpha  occ. eigenvalues --   -0.38667  -0.38623  -0.38147  -0.37933  -0.37672
 Alpha  occ. eigenvalues --   -0.37250  -0.37210  -0.36798  -0.36653  -0.36536
 Alpha  occ. eigenvalues --   -0.36312  -0.36294  -0.35892  -0.35823  -0.35463
 Alpha  occ. eigenvalues --   -0.35302  -0.35046  -0.34647  -0.34495  -0.34231
 Alpha  occ. eigenvalues --   -0.33434  -0.32496  -0.32311  -0.30718  -0.29869
 Alpha  occ. eigenvalues --   -0.29605  -0.29245  -0.28392  -0.27392  -0.23729
 Alpha  occ. eigenvalues --   -0.20859
 Alpha virt. eigenvalues --   -0.05713  -0.03706   0.00901   0.03395   0.04434
 Alpha virt. eigenvalues --    0.04960   0.06145   0.06340   0.06615   0.06897
 Alpha virt. eigenvalues --    0.07698   0.09937   0.10620   0.11169   0.11613

 Mulliken charges:
               1
     1  Mg   0.797211
     2  C    0.068919
     3  C   -0.192151
     4  C   -0.191760
     5  C   -0.185962
     6  N   -0.594469
     7  C    0.299601
     8  C   -0.183668
     9  C   -0.163062
    10  C    0.293964
    11  C   -0.290617
    12  C   -0.169664
    13  C   -0.265285
    14  C    0.616118
    15  O   -0.453913
    16  O   -0.503443
    17  N   -0.723098
    18  C    0.312464
    19  C    0.013070
    20  C    0.081535
    21  C    0.325172
    22  C   -0.376548
    23  C   -0.070996
    24  C   -0.278243
    25  N   -0.697327
    26  C    0.272743
    27  C    0.028622
    28  C    0.020300
    29  C    0.320014
    30  C   -0.394680
    31  C   -0.216200
    32  C   -0.291916
    33  N   -0.721294
    34  C    0.240169
    35  C    0.005241
    36  C    0.036477
    37  C    0.306348
    38  C   -0.365516
    39  C    0.358935
    40  O   -0.493631
    41  C   -0.302348
    42  C    0.616354
    43  O   -0.467739
    44  O   -0.423438
    45  C   -0.093666
    46  C    0.053211
    47  C   -0.151921
    48  C    0.119421
    49  C   -0.356448
    50  C   -0.224098
    51  C   -0.173969
    52  C   -0.148762
    53  C   -0.062357
    54  C   -0.306564
    55  C   -0.160189
    56  C   -0.188509
    57  C   -0.169575
    58  C   -0.062552
    59  C   -0.317158
    60  C   -0.165190
    61  C   -0.169690
    62  C   -0.166281
    63  C   -0.076582
    64  C   -0.278235
    65  C   -0.303033
    66  H    0.076273
    67  H    0.080442
    68  H    0.082095
    69  H    0.109652
    70  H    0.111908
    71  H    0.111604
    72  H    0.111541
    73  H    0.135997
    74  H    0.123350
    75  H    0.130056
    76  H    0.126754
    77  H    0.145058
    78  H    0.124824
    79  H    0.117428
    80  H    0.111095
    81  H    0.090228
    82  H    0.109452
    83  H    0.113774
    84  H    0.125005
    85  H    0.103684
    86  H    0.127826
    87  H    0.094666
    88  H    0.104967
    89  H    0.084825
    90  H    0.113416
    91  H    0.087330
    92  H    0.126559
    93  H    0.155390
    94  H    0.137767
    95  H    0.158199
    96  H    0.136261
    97  H    0.133846
    98  H    0.110104
    99  H    0.130708
   100  H    0.090168
   101  H    0.079009
   102  H    0.118916
   103  H    0.116131
   104  H    0.090385
   105  H    0.114781
   106  H    0.075403
   107  H    0.112147
   108  H    0.073036
   109  H    0.096381
   110  H    0.078369
   111  H    0.067113
   112  H    0.108658
   113  H    0.092391
   114  H    0.098565
   115  H    0.079190
   116  H    0.081872
   117  H    0.096885
   118  H    0.068273
   119  H    0.093918
   120  H    0.100968
   121  H    0.077318
   122  H    0.099039
   123  H    0.090216
   124  H    0.114009
   125  H    0.086110
   126  H    0.073232
   127  H    0.085430
   128  H    0.075716
   129  H    0.098654
   130  H    0.084285
   131  H    0.100469
   132  H    0.106562
   133  H    0.083123
   134  H    0.097489
   135  H    0.090529
   136  H    0.108912
   137  H    0.060129
 Sum of Mulliken charges =   0.00000

 Dipole moment (field-independent basis, Debye):
    X=              1.5065    Y=              4.5197    Z=              1.3066  Tot=              4.9401
 Quadrupole moment (field-independent basis, Debye-Ang):
   XX=           -365.2575   YY=           -393.7906   ZZ=           -398.4453
   XY=            -32.3695   XZ=             15.2364   YZ=             -4.3673

 Normal termination of Gaussian 09 at Thu Jul  4 09:26:39 2019.
