 Gaussian 16, Revision A.03,
 Gaussian 16:  ES64L-G16RevA.03 25-Dec-2016

 ----------------------------------------------------------------------
 # td=(NStates=1) iop(3/107=0140000000,3/108=0140000000) CAM-B3LYP/6-31
 G(d,p)
 ----------------------------------------------------------------------

 --
 TD
 --
 Symbolic Z-matrix:
 Charge =  0 Multiplicity = 1

                         Standard orientation:
 ---------------------------------------------------------------------
 Center     Atomic      Atomic             Coordinates (Angstroms)
 Number     Number       Type             X           Y           Z
 ---------------------------------------------------------------------
      1         12           0       -7.158108    0.676293    0.002118
      2          6           0       -4.898522   -2.015981    0.510220
      3          6           0       -4.802625    2.751761    1.215110
      4          6           0       -9.378440    3.220943   -0.458735
      5          6           0       -9.564943   -1.650353   -0.863390
      6          7           0       -5.067375    0.416782    0.733987
      7          6           0       -4.359554   -0.695202    0.632568
      8          6           0       -2.900865   -0.423089    1.232180
      9          6           0       -3.044427    1.016162    1.620657
     10          6           0       -4.405330    1.412674    1.206770
     11          6           0       -2.925848    1.132083    3.153875
     12          6           0       -1.870850   -0.642166    0.002882
     13          6           0       -0.515231   -0.413677    0.542659
     14          6           0        0.565950   -0.766679   -0.525468
     15          8           0        0.317298   -1.179263   -1.675419
     16          8           0        1.799833   -0.447288   -0.116579
     17          7           0       -7.121974    2.693857    0.307048
     18          6           0       -6.080168    3.380450    0.793619
     19          6           0       -6.330476    4.816550    0.772453
     20          6           0       -7.698085    4.910642    0.307498
     21          6           0       -8.152150    3.537338    0.057073
     22          6           0       -5.358469    5.885483    1.221748
     23          6           0       -8.460035    6.077249    0.252029
     24          6           0       -8.365386    7.252131    0.794047
     25          7           0       -9.078425    0.652785   -0.547330
     26          6           0       -9.713829    1.962449   -0.762121
     27          6           0      -11.221236    1.481143   -1.109217
     28          6           0      -11.363138    0.177067   -1.198567
     29          6           0       -9.961296   -0.292046   -0.933428
     30          6           0      -12.296317    2.503578   -1.397690
     31          6           0      -12.472427   -0.707415   -1.769707
     32          6           0      -12.369452   -1.177749   -3.219124
     33          7           0       -7.212259   -1.336602   -0.261635
     34          6           0       -8.237161   -2.100537   -0.562428
     35          6           0       -7.943571   -3.570746   -0.453778
     36          6           0       -6.559290   -3.536461   -0.104739
     37          6           0       -6.229659   -2.133911    0.035874
     38          6           0       -8.865598   -4.743678   -0.690291
     39          6           0       -5.461512   -4.339128    0.342396
     40          8           0       -5.320744   -5.550725    0.311440
     41          6           0       -4.217560   -3.346339    0.510129
     42          6           0       -3.682628   -3.631762    1.820711
     43          8           0       -3.879326   -3.084360    2.858811
     44          8           0       -2.805900   -4.742042    1.665671
     45          6           0       -2.273298   -5.373240    2.951325
     46          6           0        2.874582   -0.722511   -1.153436
     47          6           0        4.161320   -0.514650   -0.495322
     48          6           0        5.115536    0.255811   -0.958134
     49          6           0        5.166359    0.992088   -2.156741
     50          6           0        6.423996    0.360600   -0.164132
     51          6           0        7.701651   -0.172071   -1.011679
     52          6           0        8.908450   -0.347014   -0.129039
     53          6           0       10.177042   -0.618355   -0.890276
     54          6           0       10.296067   -2.070637   -1.248977
     55          6           0       11.407380   -0.337165   -0.001418
     56          6           0       12.787339   -0.442927   -0.776179
     57          6           0       13.977065   -0.084449    0.176533
     58          6           0       15.435682   -0.096623   -0.483641
     59          6           0       15.669211   -1.607290   -0.841178
     60          6           0       16.450305    0.505630    0.382625
     61          6           0       17.844425    0.631833   -0.333381
     62          6           0       18.807006    1.356703    0.673798
     63          6           0       20.328877    1.352561    0.246927
     64          6           0       20.383751    2.180373   -1.041078
     65          6           0       21.216110    1.959351    1.439342
     66          1           0       -4.079752    3.367205    1.706997
     67          1           0      -10.067091    3.886189   -0.702150
     68          1           0      -10.182192   -2.484351   -0.952313
     69          1           0       -2.513753   -1.100220    2.074874
     70          1           0       -2.204931    1.649823    1.220928
     71          1           0       -1.949500    0.756423    3.462464
     72          1           0       -3.226884    2.249946    3.404248
     73          1           0       -3.852834    0.745454    3.639819
     74          1           0       -2.033193   -1.554639   -0.430080
     75          1           0       -2.129335    0.064780   -0.783699
     76          1           0       -0.282168    0.681118    1.003423
     77          1           0       -0.342510   -1.231947    1.285331
     78          1           0       -5.664136    6.769908    0.627705
     79          1           0       -5.530404    6.094396    2.356303
     80          1           0       -4.335244    5.505256    1.049272
     81          1           0       -9.420783    6.097957   -0.289697
     82          1           0       -8.971684    8.064719    0.632516
     83          1           0       -7.510339    7.631458    1.480006
     84          1           0      -12.073404    2.943687   -2.579067
     85          1           0      -13.183422    1.993685   -1.357387
     86          1           0      -12.370598    3.286913   -0.606190
     87          1           0      -12.517334   -1.695084   -1.456541
     88          1           0      -13.351110    0.001271   -1.514530
     89          1           0      -13.241942   -1.551474   -3.613262
     90          1           0      -12.303448   -0.271767   -3.892209
     91          1           0      -11.695521   -1.918638   -3.449156
     92          1           0       -9.533905   -4.855557   -1.713100
     93          1           0       -8.260083   -5.694883   -0.762154
     94          1           0       -9.469169   -4.702695    0.287611
     95          1           0       -3.478278   -3.481531   -0.205093
     96          1           0       -1.468314   -4.785792    3.437194
     97          1           0       -2.929182   -5.721593    3.654930
     98          1           0       -1.612832   -6.136950    2.502246
     99          1           0        2.671368   -1.822678   -1.275068
    100          1           0        2.704867   -0.341184   -2.076090
    101          1           0        4.313007   -1.134883    0.420555
    102          1           0        4.255001    1.147237   -2.770930
    103          1           0        5.611885    2.029994   -1.954415
    104          1           0        6.012503    0.590796   -2.858877
    105          1           0        6.713595    1.400334    0.162026
    106          1           0        6.141956   -0.309771    0.817009
    107          1           0        7.472488   -1.130009   -1.401538
    108          1           0        7.989672    0.244559   -1.898468
    109          1           0        9.087348    0.607675    0.316071
    110          1           0        8.752753   -1.214687    0.673622
    111          1           0       10.160355   -0.044570   -1.887892
    112          1           0        9.497569   -2.306202   -1.857709
    113          1           0       11.206954   -2.144361   -1.442138
    114          1           0       10.389897   -2.646881   -0.405973
    115          1           0       11.188289    0.784643    0.388407
    116          1           0       11.359937   -1.003477    0.800287
    117          1           0       12.739171   -1.543324   -1.213050
    118          1           0       12.565289    0.291489   -1.618144
    119          1           0       13.725817    0.987473    0.523764
    120          1           0       14.214682   -0.838073    0.992238
    121          1           0       15.457903    0.528966   -1.357429
    122          1           0       15.929882   -2.214618    0.200290
    123          1           0       14.839253   -2.166873   -1.326241
    124          1           0       16.758976   -1.720472   -1.371874
    125          1           0       16.209293    1.603391    0.525991
    126          1           0       16.433933    0.003177    1.343364
    127          1           0       18.246520   -0.483311   -0.609485
    128          1           0       17.754440    1.153612   -1.217836
    129          1           0       18.452337    2.362049    0.703631
    130          1           0       18.472404    0.819277    1.664418
    131          1           0       20.492931    0.395462   -0.140737
    132          1           0       20.088101    3.161357   -1.010888
    133          1           0       21.517022    2.294284   -1.424430
    134          1           0       20.076903    1.793640   -2.105431
    135          1           0       20.952325    1.347135    2.395401
    136          1           0       22.370097    1.710006    1.210408
    137          1           0       21.014440    2.899085    1.596122
 ---------------------------------------------------------------------

 SCF Done:  E(RCAM-B3LYP) =  -2933.47522767     A.U. after   16 cycles

 Excitation energies and oscillator strengths:

 Excited State   1:      Singlet-A      1.9693 eV  629.59 nm  f=0.3077  <S**2>=0.000
     240 -> 243       -0.22180
     241 -> 242        0.67005
 This state for optimization and/or second-order correction.
 Total Energy, E(TD-HF/TD-DFT) =  -2933.40285806
 Copying the excited state density for this state as the 1-particle RhoCI density.

 The electronic state is 1-A.
 Alpha  occ. eigenvalues --  -46.80791 -19.21607 -19.20315 -19.16691 -19.16175
 Alpha  occ. eigenvalues --  -19.15680 -14.37461 -14.36058 -14.35613 -14.35387
 Alpha  occ. eigenvalues --  -10.33882 -10.33374 -10.30460 -10.26565 -10.26193
 Alpha  occ. eigenvalues --  -10.26000 -10.25505 -10.25459 -10.25301 -10.25270
 Alpha  occ. eigenvalues --  -10.25047 -10.24981 -10.24484 -10.24419 -10.24396
 Alpha  occ. eigenvalues --  -10.24190 -10.23751 -10.23116 -10.23094 -10.22981
 Alpha  occ. eigenvalues --  -10.22921 -10.22871 -10.22859 -10.22805 -10.22615
 Alpha  occ. eigenvalues --  -10.22564 -10.22497 -10.22425 -10.22353 -10.22322
 Alpha  occ. eigenvalues --  -10.22298 -10.22120 -10.22035 -10.21931 -10.21858
 Alpha  occ. eigenvalues --  -10.21825 -10.21811 -10.21534 -10.21442 -10.21407
 Alpha  occ. eigenvalues --  -10.21338 -10.21240 -10.21227 -10.21143 -10.21123
 Alpha  occ. eigenvalues --  -10.21013 -10.21010 -10.20932 -10.20921 -10.20628
 Alpha  occ. eigenvalues --  -10.20601 -10.20577 -10.20395 -10.20194 -10.16489
 Alpha  occ. eigenvalues --   -3.09376  -1.84316  -1.83859  -1.83771  -1.11346
 Alpha  occ. eigenvalues --   -1.10645  -1.05898  -1.02313  -1.01837  -1.01779
 Alpha  occ. eigenvalues --   -1.01038  -0.98681  -0.95968  -0.88236  -0.87221
 Alpha  occ. eigenvalues --   -0.86144  -0.84870  -0.84767  -0.84631  -0.84139
 Alpha  occ. eigenvalues --   -0.83711  -0.82657  -0.82457  -0.81901  -0.80733
 Alpha  occ. eigenvalues --   -0.80235  -0.79253  -0.79157  -0.78490  -0.78030
 Alpha  occ. eigenvalues --   -0.77111  -0.76017  -0.75327  -0.74825  -0.73381
 Alpha  occ. eigenvalues --   -0.72723  -0.72253  -0.71985  -0.71797  -0.70975
 Alpha  occ. eigenvalues --   -0.70330  -0.69855  -0.69015  -0.68164  -0.67837
 Alpha  occ. eigenvalues --   -0.66831  -0.66088  -0.65668  -0.64684  -0.64415
 Alpha  occ. eigenvalues --   -0.63145  -0.62877  -0.61434  -0.60570  -0.60319
 Alpha  occ. eigenvalues --   -0.59982  -0.59715  -0.58855  -0.58821  -0.57861
 Alpha  occ. eigenvalues --   -0.57334  -0.56413  -0.56306  -0.55566  -0.55252
 Alpha  occ. eigenvalues --   -0.54597  -0.54400  -0.54042  -0.53799  -0.52322
 Alpha  occ. eigenvalues --   -0.52029  -0.51397  -0.51292  -0.50897  -0.50810
 Alpha  occ. eigenvalues --   -0.50285  -0.50091  -0.49795  -0.49344  -0.49118
 Alpha  occ. eigenvalues --   -0.48964  -0.48846  -0.48245  -0.47981  -0.47919
 Alpha  occ. eigenvalues --   -0.47763  -0.47448  -0.47344  -0.47287  -0.47053
 Alpha  occ. eigenvalues --   -0.46664  -0.46520  -0.46215  -0.45703  -0.45503
 Alpha  occ. eigenvalues --   -0.45425  -0.45230  -0.45061  -0.44834  -0.44828
 Alpha  occ. eigenvalues --   -0.44661  -0.44582  -0.44452  -0.44377  -0.43903
 Alpha  occ. eigenvalues --   -0.43549  -0.43306  -0.43116  -0.42791  -0.42516
 Alpha  occ. eigenvalues --   -0.42411  -0.42267  -0.42139  -0.42031  -0.41862
 Alpha  occ. eigenvalues --   -0.41565  -0.41371  -0.40956  -0.40802  -0.40727
 Alpha  occ. eigenvalues --   -0.40483  -0.40392  -0.40300  -0.40083  -0.39995
 Alpha  occ. eigenvalues --   -0.39797  -0.39648  -0.39339  -0.39211  -0.38899
 Alpha  occ. eigenvalues --   -0.38841  -0.38404  -0.38239  -0.38153  -0.38074
 Alpha  occ. eigenvalues --   -0.37651  -0.37533  -0.37415  -0.36942  -0.36677
 Alpha  occ. eigenvalues --   -0.36551  -0.36389  -0.36058  -0.35908  -0.35518
 Alpha  occ. eigenvalues --   -0.35500  -0.35233  -0.35224  -0.34907  -0.34681
 Alpha  occ. eigenvalues --   -0.34648  -0.34527  -0.34207  -0.33973  -0.33944
 Alpha  occ. eigenvalues --   -0.33406  -0.33057  -0.32544  -0.32334  -0.32234
 Alpha  occ. eigenvalues --   -0.32214  -0.31952  -0.31680  -0.30211  -0.29991
 Alpha  occ. eigenvalues --   -0.29813  -0.29701  -0.29398  -0.28036  -0.27561
 Alpha  occ. eigenvalues --   -0.27066  -0.26970  -0.26684  -0.24112  -0.21311
 Alpha  occ. eigenvalues --   -0.19623
 Alpha virt. eigenvalues --   -0.07290  -0.02965  -0.00728   0.02548   0.03554
 Alpha virt. eigenvalues --    0.04280   0.04522   0.04565   0.05089   0.05639
 Alpha virt. eigenvalues --    0.06970   0.08813   0.09046   0.09766   0.09936

 Mulliken charges:
               1
     1  Mg   0.831162
     2  C    0.098409
     3  C   -0.177769
     4  C   -0.117864
     5  C   -0.172165
     6  N   -0.597246
     7  C    0.239231
     8  C   -0.161698
     9  C   -0.138288
    10  C    0.349551
    11  C   -0.307922
    12  C   -0.160556
    13  C   -0.261018
    14  C    0.597293
    15  O   -0.498870
    16  O   -0.475707
    17  N   -0.720446
    18  C    0.302085
    19  C    0.014176
    20  C    0.007970
    21  C    0.324761
    22  C   -0.365715
    23  C   -0.081745
    24  C   -0.259794
    25  N   -0.687440
    26  C    0.281203
    27  C   -0.036056
    28  C    0.082928
    29  C    0.287548
    30  C   -0.362333
    31  C   -0.213141
    32  C   -0.328551
    33  N   -0.701830
    34  C    0.261837
    35  C    0.020938
    36  C    0.020580
    37  C    0.294322
    38  C   -0.380062
    39  C    0.349232
    40  O   -0.453150
    41  C   -0.314082
    42  C    0.636082
    43  O   -0.453200
    44  O   -0.500812
    45  C   -0.095883
    46  C    0.005026
    47  C   -0.140695
    48  C    0.198836
    49  C   -0.383916
    50  C   -0.231430
    51  C   -0.194628
    52  C   -0.140693
    53  C   -0.083839
    54  C   -0.264735
    55  C   -0.180465
    56  C   -0.183730
    57  C   -0.158413
    58  C   -0.052066
    59  C   -0.303414
    60  C   -0.166599
    61  C   -0.178923
    62  C   -0.165570
    63  C   -0.048111
    64  C   -0.327530
    65  C   -0.296486
    66  H    0.070549
    67  H    0.078037
    68  H    0.066926
    69  H    0.114818
    70  H    0.099476
    71  H    0.113258
    72  H    0.081266
    73  H    0.128006
    74  H    0.123357
    75  H    0.113845
    76  H    0.121601
    77  H    0.131005
    78  H    0.127331
    79  H    0.118534
    80  H    0.116301
    81  H    0.075216
    82  H    0.100595
    83  H    0.075168
    84  H    0.096118
    85  H    0.116291
    86  H    0.118344
    87  H    0.119029
    88  H    0.092171
    89  H    0.120954
    90  H    0.096681
    91  H    0.123053
    92  H    0.109275
    93  H    0.149035
    94  H    0.135183
    95  H    0.168928
    96  H    0.113893
    97  H    0.147183
    98  H    0.126172
    99  H    0.121704
   100  H    0.132978
   101  H    0.089349
   102  H    0.112654
   103  H    0.111095
   104  H    0.116968
   105  H    0.104189
   106  H    0.080831
   107  H    0.102115
   108  H    0.101900
   109  H    0.084544
   110  H    0.074023
   111  H    0.063499
   112  H    0.099960
   113  H    0.082343
   114  H    0.092830
   115  H    0.057888
   116  H    0.101950
   117  H    0.089107
   118  H    0.098383
   119  H    0.082290
   120  H    0.089080
   121  H    0.082648
   122  H    0.066620
   123  H    0.114779
   124  H    0.082662
   125  H    0.084578
   126  H    0.087362
   127  H    0.063822
   128  H    0.107215
   129  H    0.092937
   130  H    0.073827
   131  H    0.101542
   132  H    0.114980
   133  H    0.067679
   134  H    0.096418
   135  H    0.095885
   136  H    0.087517
   137  H    0.123666
 Sum of Mulliken charges =  -0.00000

 Dipole moment (field-independent basis, Debye):
    X=              1.2260    Y=              3.1035    Z=             -0.6176  Tot=              3.3935
 Quadrupole moment (field-independent basis, Debye-Ang):
   XX=           -326.8135   YY=           -398.3756   ZZ=           -396.5584
   XY=             -2.2345   XZ=             12.6656   YZ=             -4.0190

 Normal termination of Gaussian 16 at Wed Sep 11 20:58:08 2019.
