 Gaussian 16, Revision A.03,
 Gaussian 16:  ES64L-G16RevA.03 25-Dec-2016

 ----------------------------------------------------------------------
 # td=(NStates=1) iop(3/107=0140000000,3/108=0140000000) CAM-B3LYP/6-31
 G(d,p)
 ----------------------------------------------------------------------

 --
 TD
 --
 Symbolic Z-matrix:
 Charge =  0 Multiplicity = 1

                         Standard orientation:
 ---------------------------------------------------------------------
 Center     Atomic      Atomic             Coordinates (Angstroms)
 Number     Number       Type             X           Y           Z
 ---------------------------------------------------------------------
      1         12           0       -7.167596    0.666094    0.157648
      2          6           0       -4.875207   -1.926505    0.488632
      3          6           0       -4.790994    2.811019    1.306594
      4          6           0       -9.364675    3.081088   -0.409082
      5          6           0       -9.601915   -1.822423   -0.946843
      6          7           0       -5.203249    0.406586    0.808368
      7          6           0       -4.338757   -0.676380    0.772397
      8          6           0       -2.887386   -0.453972    1.238354
      9          6           0       -2.939048    1.154029    1.719597
     10          6           0       -4.414890    1.499738    1.245536
     11          6           0       -2.857502    1.259350    3.207717
     12          6           0       -1.941439   -0.599835   -0.006653
     13          6           0       -0.409982   -0.648931    0.620442
     14          6           0        0.526149   -0.737516   -0.546861
     15          8           0        0.095404   -1.123652   -1.687834
     16          8           0        1.839498   -0.345960   -0.215797
     17          7           0       -7.147647    2.625828    0.300356
     18          6           0       -6.081285    3.394517    0.748653
     19          6           0       -6.353080    4.723336    0.869713
     20          6           0       -7.687860    4.835703    0.384493
     21          6           0       -8.190851    3.497977   -0.040024
     22          6           0       -5.498087    5.781164    1.194992
     23          6           0       -8.466523    6.061744   -0.019013
     24          6           0       -8.359240    7.333460    0.455543
     25          7           0       -9.150081    0.673020   -0.477491
     26          6           0       -9.893141    1.755388   -0.659633
     27          6           0      -11.223172    1.493246   -1.109125
     28          6           0      -11.315731    0.133414   -1.227521
     29          6           0       -9.978948   -0.415927   -0.921556
     30          6           0      -12.216935    2.545679   -1.301885
     31          6           0      -12.418346   -0.752865   -1.743213
     32          6           0      -12.309877   -1.158389   -3.180096
     33          7           0       -7.204178   -1.340863   -0.175414
     34          6           0       -8.319119   -2.255284   -0.619049
     35          6           0       -7.820237   -3.585581   -0.448354
     36          6           0       -6.531187   -3.598389   -0.090934
     37          6           0       -6.157405   -2.172718    0.134366
     38          6           0       -8.603582   -4.805134   -0.869971
     39          6           0       -5.283324   -4.393995    0.251234
     40          8           0       -5.038137   -5.543154    0.307634
     41          6           0       -4.177808   -3.343430    0.507679
     42          6           0       -3.469719   -3.596983    1.831713
     43          8           0       -3.683942   -3.003295    2.927072
     44          8           0       -2.694013   -4.621433    1.722278
     45          6           0       -2.127962   -5.166046    2.937819
     46          6           0        2.822092   -0.956003   -1.184345
     47          6           0        4.126978   -0.630197   -0.548398
     48          6           0        5.045161    0.281854   -0.894153
     49          6           0        5.001792    1.141865   -2.154365
     50          6           0        6.358551    0.226216   -0.183543
     51          6           0        7.604633   -0.210774   -0.976556
     52          6           0        8.933788   -0.188017   -0.142327
     53          6           0       10.228553   -0.513571   -0.913521
     54          6           0       10.152550   -1.927583   -1.405042
     55          6           0       11.427193   -0.351775    0.025874
     56          6           0       12.788124   -0.395284   -0.640121
     57          6           0       13.943361    0.096060    0.133477
     58          6           0       15.331385   -0.162954   -0.533759
     59          6           0       15.716048   -1.673035   -0.919755
     60          6           0       16.367467    0.464331    0.395344
     61          6           0       17.813376    0.526066   -0.175138
     62          6           0       18.737186    1.347143    0.601107
     63          6           0       20.242117    1.431116    0.238620
     64          6           0       20.326912    2.097673   -1.158670
     65          6           0       21.084134    2.011425    1.385319
     66          1           0       -4.155678    3.707247    1.554230
     67          1           0      -10.057807    3.906531   -0.652621
     68          1           0      -10.294929   -2.530622   -1.486601
     69          1           0       -2.609263   -1.033347    2.014909
     70          1           0       -2.245952    1.569811    1.355172
     71          1           0       -1.919940    0.782905    3.676912
     72          1           0       -2.916972    2.342275    3.459934
     73          1           0       -3.879301    0.769234    3.658357
     74          1           0       -1.961739   -1.639579   -0.535366
     75          1           0       -1.909151    0.159277   -0.571779
     76          1           0       -0.209266    0.323847    1.068485
     77          1           0       -0.391329   -1.437294    1.382133
     78          1           0       -5.609033    6.567736    0.509546
     79          1           0       -5.904529    6.290919    1.958691
     80          1           0       -4.371485    5.396984    1.295750
     81          1           0       -9.536207    5.969366   -0.689582
     82          1           0       -9.007816    7.935414    0.087073
     83          1           0       -7.583067    7.738600    1.225984
     84          1           0      -11.763567    3.153753   -2.124955
     85          1           0      -13.169560    2.035100   -1.705099
     86          1           0      -12.699691    3.276046   -0.431412
     87          1           0      -12.444930   -1.574096   -1.034210
     88          1           0      -13.279893   -0.131540   -1.513252
     89          1           0      -13.113456   -2.004518   -3.278978
     90          1           0      -12.480331   -0.273412   -3.886621
     91          1           0      -11.274163   -1.597721   -3.428132
     92          1           0       -9.002034   -4.810572   -1.910100
     93          1           0       -8.102432   -5.746329   -0.643252
     94          1           0       -9.519496   -4.592030   -0.340317
     95          1           0       -3.376393   -3.172389   -0.373014
     96          1           0       -1.249154   -4.750453    3.339029
     97          1           0       -2.924886   -5.532792    3.601944
     98          1           0       -1.537154   -6.133398    2.638959
     99          1           0        2.592791   -2.115862   -1.289764
    100          1           0        2.772542   -0.428949   -2.317629
    101          1           0        4.482334   -0.980104    0.575845
    102          1           0        3.955975    1.229436   -2.507072
    103          1           0        5.217464    2.280197   -1.785271
    104          1           0        5.802513    0.918753   -2.856170
    105          1           0        6.765348    1.235434   -0.012064
    106          1           0        6.187749   -0.255349    0.641213
    107          1           0        7.409248   -1.231873   -1.149255
    108          1           0        7.649036    0.232628   -1.841452
    109          1           0        9.034758    0.869310    0.361765
    110          1           0        8.791485   -0.713336    0.631741
    111          1           0       10.146080    0.268404   -1.676728
    112          1           0        9.539151   -2.084705   -2.107050
    113          1           0       10.965999   -2.023791   -2.025395
    114          1           0       10.115632   -2.715943   -0.587292
    115          1           0       11.318199    0.757056    0.480792
    116          1           0       11.272814   -0.978395    0.752375
    117          1           0       12.945436   -1.391056   -0.821550
    118          1           0       12.839876    0.132109   -1.467421
    119          1           0       13.940033    1.108509    0.217993
    120          1           0       14.142726   -0.529746    1.153027
    121          1           0       15.479012    0.491819   -1.341845
    122          1           0       15.648038   -2.225713    0.009010
    123          1           0       14.977940   -2.266944   -1.664659
    124          1           0       16.729966   -1.728927   -1.346341
    125          1           0       15.991302    1.508462    0.566907
    126          1           0       16.227608   -0.036410    1.393457
    127          1           0       18.264172   -0.583410   -0.225890
    128          1           0       17.491801    0.782922   -1.119970
    129          1           0       18.234633    2.157664    0.749621
    130          1           0       18.946095    0.854501    1.647179
    131          1           0       20.383202    0.447182    0.404012
    132          1           0       20.361430    3.276204   -1.024549
    133          1           0       21.336052    2.167486   -1.420082
    134          1           0       19.578457    1.755907   -1.965642
    135          1           0       20.999579    1.122599    2.067018
    136          1           0       22.231495    2.102080    1.058746
    137          1           0       20.495374    2.991119    1.756988
 ---------------------------------------------------------------------

 SCF Done:  E(RCAM-B3LYP) =  -2933.33214001     A.U. after   16 cycles

 Excitation energies and oscillator strengths:

 Excited State   1:      Singlet-A      2.0362 eV  608.91 nm  f=0.2652  <S**2>=0.000
     240 -> 242       -0.10771
     240 -> 243        0.23358
     241 -> 242        0.64775
 This state for optimization and/or second-order correction.
 Total Energy, E(TD-HF/TD-DFT) =  -2933.25731225
 Copying the excited state density for this state as the 1-particle RhoCI density.

 The electronic state is 1-A.
 Alpha  occ. eigenvalues --  -46.78367 -19.23486 -19.22821 -19.17401 -19.16769
 Alpha  occ. eigenvalues --  -19.15585 -14.37563 -14.34822 -14.34650 -14.34592
 Alpha  occ. eigenvalues --  -10.35428 -10.34482 -10.31132 -10.30423 -10.27857
 Alpha  occ. eigenvalues --  -10.26330 -10.26303 -10.25124 -10.24876 -10.24772
 Alpha  occ. eigenvalues --  -10.24710 -10.24576 -10.24013 -10.23948 -10.23897
 Alpha  occ. eigenvalues --  -10.23726 -10.23506 -10.23481 -10.23375 -10.23106
 Alpha  occ. eigenvalues --  -10.23094 -10.22841 -10.22750 -10.22599 -10.22568
 Alpha  occ. eigenvalues --  -10.22524 -10.22315 -10.22229 -10.22091 -10.22021
 Alpha  occ. eigenvalues --  -10.21794 -10.21695 -10.21503 -10.21389 -10.21339
 Alpha  occ. eigenvalues --  -10.21333 -10.21277 -10.21230 -10.21214 -10.21192
 Alpha  occ. eigenvalues --  -10.21134 -10.21094 -10.20983 -10.20969 -10.20821
 Alpha  occ. eigenvalues --  -10.20802 -10.20718 -10.20660 -10.20080 -10.19978
 Alpha  occ. eigenvalues --  -10.19770 -10.19744 -10.19205 -10.18354 -10.18277
 Alpha  occ. eigenvalues --   -3.07136  -1.82062  -1.81623  -1.81546  -1.14745
 Alpha  occ. eigenvalues --   -1.09792  -1.08897  -1.02167  -1.01735  -0.97692
 Alpha  occ. eigenvalues --   -0.96703  -0.96493  -0.94868  -0.86897  -0.86186
 Alpha  occ. eigenvalues --   -0.86097  -0.85356  -0.85037  -0.84123  -0.83824
 Alpha  occ. eigenvalues --   -0.83554  -0.82704  -0.82258  -0.81691  -0.81008
 Alpha  occ. eigenvalues --   -0.80533  -0.79461  -0.78940  -0.78749  -0.78351
 Alpha  occ. eigenvalues --   -0.77012  -0.76401  -0.75630  -0.74703  -0.73417
 Alpha  occ. eigenvalues --   -0.73089  -0.72744  -0.72324  -0.71493  -0.71303
 Alpha  occ. eigenvalues --   -0.70979  -0.70161  -0.69884  -0.68678  -0.67879
 Alpha  occ. eigenvalues --   -0.66787  -0.66095  -0.65163  -0.65004  -0.63825
 Alpha  occ. eigenvalues --   -0.63207  -0.62380  -0.61641  -0.61008  -0.60484
 Alpha  occ. eigenvalues --   -0.60290  -0.60052  -0.59432  -0.58434  -0.58178
 Alpha  occ. eigenvalues --   -0.57319  -0.56039  -0.55582  -0.55433  -0.54407
 Alpha  occ. eigenvalues --   -0.53962  -0.53515  -0.52974  -0.52667  -0.52643
 Alpha  occ. eigenvalues --   -0.52199  -0.52027  -0.51753  -0.51266  -0.51041
 Alpha  occ. eigenvalues --   -0.50634  -0.50460  -0.50189  -0.49931  -0.49741
 Alpha  occ. eigenvalues --   -0.49051  -0.48634  -0.48309  -0.48239  -0.48125
 Alpha  occ. eigenvalues --   -0.47898  -0.47711  -0.47235  -0.47048  -0.46908
 Alpha  occ. eigenvalues --   -0.46748  -0.46592  -0.46400  -0.46346  -0.46246
 Alpha  occ. eigenvalues --   -0.45638  -0.45229  -0.45176  -0.44967  -0.44725
 Alpha  occ. eigenvalues --   -0.44577  -0.44309  -0.44083  -0.43654  -0.43318
 Alpha  occ. eigenvalues --   -0.43238  -0.43000  -0.42872  -0.42841  -0.42675
 Alpha  occ. eigenvalues --   -0.42366  -0.42235  -0.41849  -0.41781  -0.41732
 Alpha  occ. eigenvalues --   -0.41416  -0.41261  -0.41175  -0.40909  -0.40658
 Alpha  occ. eigenvalues --   -0.40518  -0.40392  -0.40232  -0.40094  -0.39924
 Alpha  occ. eigenvalues --   -0.39559  -0.39194  -0.39182  -0.38793  -0.38649
 Alpha  occ. eigenvalues --   -0.38558  -0.38488  -0.38217  -0.37942  -0.37772
 Alpha  occ. eigenvalues --   -0.37495  -0.37156  -0.37079  -0.36793  -0.36705
 Alpha  occ. eigenvalues --   -0.36645  -0.36347  -0.36325  -0.36158  -0.36089
 Alpha  occ. eigenvalues --   -0.35844  -0.35780  -0.35039  -0.34935  -0.34481
 Alpha  occ. eigenvalues --   -0.34239  -0.34020  -0.33981  -0.33558  -0.33385
 Alpha  occ. eigenvalues --   -0.33225  -0.32974  -0.32780  -0.32689  -0.32414
 Alpha  occ. eigenvalues --   -0.32397  -0.31831  -0.31756  -0.30338  -0.30078
 Alpha  occ. eigenvalues --   -0.29946  -0.29793  -0.29273  -0.28363  -0.27242
 Alpha  occ. eigenvalues --   -0.27019  -0.26610  -0.25275  -0.24335  -0.21654
 Alpha  occ. eigenvalues --   -0.19625
 Alpha virt. eigenvalues --   -0.06707  -0.04230   0.00393   0.01417   0.02754
 Alpha virt. eigenvalues --    0.03227   0.03820   0.05376   0.05929   0.06198
 Alpha virt. eigenvalues --    0.06649   0.09005   0.09360   0.09618   0.09822

 Mulliken charges:
               1
     1  Mg   0.798871
     2  C    0.054788
     3  C   -0.185111
     4  C   -0.172854
     5  C   -0.187384
     6  N   -0.627291
     7  C    0.316010
     8  C   -0.158600
     9  C   -0.069172
    10  C    0.310090
    11  C   -0.304461
    12  C   -0.151691
    13  C   -0.295257
    14  C    0.610142
    15  O   -0.479128
    16  O   -0.471303
    17  N   -0.733256
    18  C    0.284908
    19  C    0.080545
    20  C   -0.023602
    21  C    0.332833
    22  C   -0.386607
    23  C   -0.095805
    24  C   -0.220610
    25  N   -0.673118
    26  C    0.327591
    27  C    0.070336
    28  C   -0.011515
    29  C    0.242292
    30  C   -0.380061
    31  C   -0.232021
    32  C   -0.290662
    33  N   -0.718589
    34  C    0.273204
    35  C   -0.040353
    36  C    0.046712
    37  C    0.287671
    38  C   -0.371581
    39  C    0.395301
    40  O   -0.423967
    41  C   -0.320888
    42  C    0.606309
    43  O   -0.509647
    44  O   -0.393430
    45  C   -0.094381
    46  C   -0.004875
    47  C   -0.113802
    48  C    0.142082
    49  C   -0.368286
    50  C   -0.204916
    51  C   -0.186522
    52  C   -0.161884
    53  C   -0.074256
    54  C   -0.293685
    55  C   -0.152018
    56  C   -0.149913
    57  C   -0.161812
    58  C   -0.081645
    59  C   -0.312209
    60  C   -0.186353
    61  C   -0.157020
    62  C   -0.154498
    63  C   -0.046848
    64  C   -0.310774
    65  C   -0.297859
    66  H    0.062485
    67  H    0.072453
    68  H    0.099523
    69  H    0.125256
    70  H    0.076216
    71  H    0.100429
    72  H    0.105357
    73  H    0.110186
    74  H    0.121184
    75  H    0.119755
    76  H    0.131753
    77  H    0.142410
    78  H    0.135103
    79  H    0.140947
    80  H    0.102309
    81  H    0.074720
    82  H    0.098176
    83  H    0.088728
    84  H    0.123134
    85  H    0.097716
    86  H    0.103718
    87  H    0.110828
    88  H    0.101067
    89  H    0.095525
    90  H    0.108930
    91  H    0.105661
    92  H    0.124000
    93  H    0.138237
    94  H    0.124292
    95  H    0.150732
    96  H    0.136704
    97  H    0.148466
    98  H    0.103956
    99  H    0.127300
   100  H    0.111307
   101  H    0.065806
   102  H    0.116629
   103  H    0.093488
   104  H    0.130586
   105  H    0.089939
   106  H    0.086846
   107  H    0.102187
   108  H    0.093573
   109  H    0.055196
   110  H    0.095646
   111  H    0.080789
   112  H    0.107311
   113  H    0.102869
   114  H    0.094875
   115  H    0.053572
   116  H    0.095129
   117  H    0.102169
   118  H    0.094248
   119  H    0.095057
   120  H    0.060421
   121  H    0.083751
   122  H    0.106526
   123  H    0.080721
   124  H    0.110322
   125  H    0.080759
   126  H    0.078362
   127  H    0.066708
   128  H    0.096282
   129  H    0.087207
   130  H    0.055704
   131  H    0.099531
   132  H    0.077929
   133  H    0.104441
   134  H    0.107731
   135  H    0.102026
   136  H    0.092563
   137  H    0.096373
 Sum of Mulliken charges =  -0.00000

 Dipole moment (field-independent basis, Debye):
    X=              3.2130    Y=              2.8460    Z=             -0.4578  Tot=              4.3166
 Quadrupole moment (field-independent basis, Debye-Ang):
   XX=           -348.6307   YY=           -383.1862   ZZ=           -399.9976
   XY=            -20.5093   XZ=              7.0623   YZ=             -3.9807

 Normal termination of Gaussian 16 at Thu Sep  5 16:18:42 2019.
