 Gaussian 16, Revision A.03,
 Gaussian 16:  ES64L-G16RevA.03 25-Dec-2016

 ----------------------------------------------------------------------
 # td=(NStates=1) iop(3/107=0140000000,3/108=0140000000) CAM-B3LYP/6-31
 G(d,p)
 ----------------------------------------------------------------------

 --
 TD
 --
 Symbolic Z-matrix:
 Charge =  0 Multiplicity = 1

                         Standard orientation:
 ---------------------------------------------------------------------
 Center     Atomic      Atomic             Coordinates (Angstroms)
 Number     Number       Type             X           Y           Z
 ---------------------------------------------------------------------
      1         12           0       -7.111336    0.612261    0.006625
      2          6           0       -4.868030   -1.932495    0.489952
      3          6           0       -4.911273    2.807189    1.241069
      4          6           0       -9.436673    3.105335   -0.384937
      5          6           0       -9.591519   -1.743168   -0.801488
      6          7           0       -5.187591    0.471219    0.681877
      7          6           0       -4.401300   -0.684681    0.733757
      8          6           0       -2.962900   -0.443479    1.238912
      9          6           0       -3.013970    1.009931    1.727889
     10          6           0       -4.293873    1.486935    1.166336
     11          6           0       -2.871391    1.244195    3.208780
     12          6           0       -1.883379   -0.533719    0.079844
     13          6           0       -0.562459   -0.343986    0.551292
     14          6           0        0.455124   -0.525401   -0.693518
     15          8           0        0.079025   -1.046180   -1.744594
     16          8           0        1.709673   -0.289985   -0.317522
     17          7           0       -7.128605    2.662332    0.208994
     18          6           0       -6.012399    3.404820    0.730888
     19          6           0       -6.341409    4.760796    0.725880
     20          6           0       -7.612698    4.880510    0.241706
     21          6           0       -8.107720    3.467831   -0.021959
     22          6           0       -5.495107    5.882725    1.134479
     23          6           0       -8.514852    6.141160   -0.009472
     24          6           0       -8.269968    7.343077    0.519434
     25          7           0       -9.099979    0.708352   -0.565308
     26          6           0       -9.912714    1.875176   -0.656657
     27          6           0      -11.250727    1.489751   -0.979374
     28          6           0      -11.300306    0.076901   -1.157346
     29          6           0       -9.936596   -0.396129   -0.803713
     30          6           0      -12.347284    2.444691   -1.148459
     31          6           0      -12.412950   -0.776685   -1.405616
     32          6           0      -12.285827   -1.374844   -2.875783
     33          7           0       -7.256015   -1.447781   -0.195651
     34          6           0       -8.308267   -2.211850   -0.485152
     35          6           0       -7.868062   -3.639318   -0.485733
     36          6           0       -6.569884   -3.547967    0.012128
     37          6           0       -6.217729   -2.182937    0.016697
     38          6           0       -8.667539   -4.835616   -0.757651
     39          6           0       -5.353710   -4.331565    0.239192
     40          8           0       -5.090846   -5.564656    0.190103
     41          6           0       -4.206370   -3.268921    0.533610
     42          6           0       -3.504216   -3.704683    1.772286
     43          8           0       -3.628067   -3.131259    2.928671
     44          8           0       -2.620236   -4.764221    1.709418
     45          6           0       -1.917393   -5.270271    2.924715
     46          6           0        2.773140   -0.692051   -1.326529
     47          6           0        4.105899   -0.434213   -0.579148
     48          6           0        5.216821    0.271863   -1.084554
     49          6           0        5.167662    1.148872   -2.241914
     50          6           0        6.458904    0.450224   -0.280916
     51          6           0        7.656437   -0.226800   -1.038056
     52          6           0        8.990845   -0.235606   -0.225193
     53          6           0       10.185486   -0.671213   -0.962050
     54          6           0       10.078696   -2.107825   -1.420310
     55          6           0       11.503059   -0.417417   -0.102976
     56          6           0       12.774249   -0.347993   -0.760604
     57          6           0       13.932431    0.075294    0.198613
     58          6           0       15.309382   -0.130296   -0.478745
     59          6           0       15.702526   -1.616084   -0.961425
     60          6           0       16.344473    0.336196    0.403151
     61          6           0       17.779440    0.592413   -0.040903
     62          6           0       18.732586    1.264106    0.860834
     63          6           0       20.165050    1.268371    0.440924
     64          6           0       20.413362    1.997098   -0.916327
     65          6           0       21.016013    2.009252    1.482531
     66          1           0       -3.878305    3.539938    1.373506
     67          1           0      -10.072045    3.938523   -0.661068
     68          1           0      -10.334299   -2.286443   -1.185184
     69          1           0       -2.686854   -1.284343    2.080950
     70          1           0       -2.176616    1.647297    1.189394
     71          1           0       -1.902410    0.941046    3.528986
     72          1           0       -3.000696    2.312278    3.416292
     73          1           0       -3.595773    0.898829    3.726118
     74          1           0       -2.162214   -1.508642   -0.369945
     75          1           0       -1.929988    0.275320   -0.682339
     76          1           0       -0.283017    0.496640    0.933999
     77          1           0       -0.189225   -1.040901    1.294337
     78          1           0       -5.726655    6.857052    0.378050
     79          1           0       -5.603093    6.083574    2.315757
     80          1           0       -4.319029    5.591359    1.097721
     81          1           0       -9.368526    6.041485   -0.702189
     82          1           0       -9.132935    8.143058    0.272101
     83          1           0       -7.420612    7.482106    1.401541
     84          1           0      -11.986624    3.283938   -2.004705
     85          1           0      -13.286068    1.880217   -1.542150
     86          1           0      -12.433843    2.679524   -0.085331
     87          1           0      -12.565354   -1.560688   -0.568459
     88          1           0      -13.539770   -0.331650   -1.562812
     89          1           0      -13.302885   -1.900950   -3.198589
     90          1           0      -12.268597   -0.553738   -3.577825
     91          1           0      -11.496004   -2.016403   -3.031614
     92          1           0       -9.052170   -4.897998   -1.820140
     93          1           0       -8.150999   -5.695097   -0.376927
     94          1           0       -9.526946   -4.976517   -0.056573
     95          1           0       -3.570615   -3.550413   -0.272056
     96          1           0       -0.966360   -4.542801    3.039905
     97          1           0       -2.452825   -5.408104    3.786742
     98          1           0       -1.395218   -6.104456    2.445305
     99          1           0        2.629421   -1.741940   -1.767014
    100          1           0        2.401896   -0.036908   -2.184738
    101          1           0        4.216253   -1.143809    0.282765
    102          1           0        4.149652    1.190039   -2.893837
    103          1           0        5.531750    2.140863   -1.824716
    104          1           0        5.766385    0.932454   -2.977685
    105          1           0        6.665115    1.540792   -0.142601
    106          1           0        6.367522   -0.027575    0.553257
    107          1           0        7.268403   -1.198259   -1.247869
    108          1           0        7.850124    0.378965   -1.932168
    109          1           0        8.943336    0.702603    0.143173
    110          1           0        8.642516   -0.929984    0.726202
    111          1           0       10.118585   -0.091651   -1.923577
    112          1           0        9.223487   -2.403972   -1.945625
    113          1           0       10.940997   -2.255969   -2.202850
    114          1           0        9.942749   -2.793315   -0.460540
    115          1           0       11.287024    0.423787    0.637826
    116          1           0       11.413249   -1.253743    0.740980
    117          1           0       12.947680   -1.282757   -1.369421
    118          1           0       12.998394    0.396252   -1.546350
    119          1           0       13.812552    1.219025    0.476338
    120          1           0       13.781550   -0.371774    1.281406
    121          1           0       15.344115    0.457149   -1.459692
    122          1           0       15.554627   -2.258250   -0.112810
    123          1           0       15.099371   -1.984398   -1.808183
    124          1           0       16.850421   -1.682348   -1.322136
    125          1           0       16.042701    1.405278    1.052909
    126          1           0       16.568537   -0.414986    1.161791
    127          1           0       18.256702   -0.363444   -0.503461
    128          1           0       17.702912    1.073077   -1.052271
    129          1           0       18.536923    2.111964    0.997623
    130          1           0       18.656156    0.745738    1.746786
    131          1           0       20.672013    0.319314    0.249691
    132          1           0       19.918442    3.064320   -1.120803
    133          1           0       21.564873    2.019669   -1.167434
    134          1           0       19.764057    1.696318   -1.761499
    135          1           0       20.655717    1.825329    2.557006
    136          1           0       22.130681    2.088566    1.337722
    137          1           0       20.698097    3.089984    1.551174
 ---------------------------------------------------------------------

 SCF Done:  E(RCAM-B3LYP) =  -2933.39946668     A.U. after   16 cycles

 Excitation energies and oscillator strengths:

 Excited State   1:      Singlet-A      1.8790 eV  659.86 nm  f=0.2755  <S**2>=0.000
     240 -> 243        0.18972
     241 -> 242        0.68110
 This state for optimization and/or second-order correction.
 Total Energy, E(TD-HF/TD-DFT) =  -2933.33041644
 Copying the excited state density for this state as the 1-particle RhoCI density.

 The electronic state is 1-A.
 Alpha  occ. eigenvalues --  -46.79873 -19.22316 -19.21278 -19.16159 -19.15784
 Alpha  occ. eigenvalues --  -19.14961 -14.38460 -14.35161 -14.34922 -14.34573
 Alpha  occ. eigenvalues --  -10.34582 -10.34049 -10.30701 -10.29278 -10.27717
 Alpha  occ. eigenvalues --  -10.27539 -10.25738 -10.25203 -10.25022 -10.24702
 Alpha  occ. eigenvalues --  -10.24700 -10.24460 -10.24252 -10.24226 -10.24146
 Alpha  occ. eigenvalues --  -10.24078 -10.23921 -10.23885 -10.23727 -10.23642
 Alpha  occ. eigenvalues --  -10.23636 -10.23616 -10.23590 -10.23410 -10.23245
 Alpha  occ. eigenvalues --  -10.23095 -10.23075 -10.22772 -10.22768 -10.22365
 Alpha  occ. eigenvalues --  -10.22267 -10.22017 -10.21949 -10.21930 -10.21832
 Alpha  occ. eigenvalues --  -10.21793 -10.21777 -10.21740 -10.21724 -10.21697
 Alpha  occ. eigenvalues --  -10.21570 -10.21549 -10.21500 -10.21440 -10.21394
 Alpha  occ. eigenvalues --  -10.21370 -10.21307 -10.21217 -10.21148 -10.21104
 Alpha  occ. eigenvalues --  -10.20904 -10.20807 -10.20716 -10.19618 -10.17847
 Alpha  occ. eigenvalues --   -3.08457  -1.83404  -1.82918  -1.82867  -1.11937
 Alpha  occ. eigenvalues --   -1.09179  -1.03322  -1.03068  -1.00990  -0.99120
 Alpha  occ. eigenvalues --   -0.98860  -0.97109  -0.95291  -0.87707  -0.87134
 Alpha  occ. eigenvalues --   -0.86484  -0.85616  -0.85347  -0.84632  -0.84033
 Alpha  occ. eigenvalues --   -0.83289  -0.83056  -0.82992  -0.82042  -0.81591
 Alpha  occ. eigenvalues --   -0.80712  -0.79067  -0.79006  -0.78415  -0.77569
 Alpha  occ. eigenvalues --   -0.77035  -0.76331  -0.76230  -0.75828  -0.73874
 Alpha  occ. eigenvalues --   -0.72737  -0.72280  -0.72155  -0.71020  -0.70845
 Alpha  occ. eigenvalues --   -0.70539  -0.70399  -0.69845  -0.69116  -0.68108
 Alpha  occ. eigenvalues --   -0.67347  -0.66060  -0.65321  -0.64876  -0.64042
 Alpha  occ. eigenvalues --   -0.62975  -0.61283  -0.60593  -0.60474  -0.59970
 Alpha  occ. eigenvalues --   -0.59721  -0.59472  -0.59392  -0.58513  -0.58131
 Alpha  occ. eigenvalues --   -0.57578  -0.56946  -0.55985  -0.55630  -0.54881
 Alpha  occ. eigenvalues --   -0.54407  -0.54008  -0.53194  -0.52980  -0.52671
 Alpha  occ. eigenvalues --   -0.52287  -0.51903  -0.51287  -0.50908  -0.50792
 Alpha  occ. eigenvalues --   -0.50632  -0.49862  -0.49764  -0.49506  -0.49125
 Alpha  occ. eigenvalues --   -0.48732  -0.48590  -0.48367  -0.47996  -0.47942
 Alpha  occ. eigenvalues --   -0.47639  -0.47496  -0.47320  -0.47285  -0.46945
 Alpha  occ. eigenvalues --   -0.46628  -0.46467  -0.46334  -0.46172  -0.45964
 Alpha  occ. eigenvalues --   -0.45849  -0.45643  -0.45452  -0.45234  -0.45027
 Alpha  occ. eigenvalues --   -0.44377  -0.44110  -0.43941  -0.43799  -0.43702
 Alpha  occ. eigenvalues --   -0.43540  -0.43358  -0.43007  -0.42854  -0.42552
 Alpha  occ. eigenvalues --   -0.42324  -0.42237  -0.42100  -0.41670  -0.41464
 Alpha  occ. eigenvalues --   -0.41420  -0.41132  -0.40569  -0.40502  -0.40413
 Alpha  occ. eigenvalues --   -0.40386  -0.40222  -0.39940  -0.39920  -0.39627
 Alpha  occ. eigenvalues --   -0.39516  -0.39170  -0.39031  -0.38918  -0.38719
 Alpha  occ. eigenvalues --   -0.38401  -0.38323  -0.37963  -0.37938  -0.37730
 Alpha  occ. eigenvalues --   -0.37585  -0.37260  -0.37130  -0.37002  -0.36852
 Alpha  occ. eigenvalues --   -0.36781  -0.36632  -0.36485  -0.36252  -0.35744
 Alpha  occ. eigenvalues --   -0.35666  -0.35491  -0.35417  -0.35232  -0.34391
 Alpha  occ. eigenvalues --   -0.34283  -0.34216  -0.33827  -0.33676  -0.33462
 Alpha  occ. eigenvalues --   -0.33445  -0.32841  -0.32712  -0.32543  -0.32466
 Alpha  occ. eigenvalues --   -0.32172  -0.31533  -0.31042  -0.30691  -0.30209
 Alpha  occ. eigenvalues --   -0.29716  -0.29385  -0.28598  -0.27941  -0.27186
 Alpha  occ. eigenvalues --   -0.26765  -0.26396  -0.25494  -0.24503  -0.22038
 Alpha  occ. eigenvalues --   -0.19351
 Alpha virt. eigenvalues --   -0.07349  -0.03824  -0.00210   0.01752   0.02075
 Alpha virt. eigenvalues --    0.02991   0.04467   0.04696   0.04789   0.05332
 Alpha virt. eigenvalues --    0.06476   0.08420   0.08644   0.09417   0.09953

 Mulliken charges:
               1
     1  Mg   0.807369
     2  C    0.122976
     3  C   -0.223512
     4  C   -0.182794
     5  C   -0.126369
     6  N   -0.616555
     7  C    0.312348
     8  C   -0.175577
     9  C   -0.137432
    10  C    0.293422
    11  C   -0.289529
    12  C   -0.150659
    13  C   -0.242223
    14  C    0.572951
    15  O   -0.478014
    16  O   -0.465339
    17  N   -0.704257
    18  C    0.307027
    19  C    0.096037
    20  C   -0.024359
    21  C    0.330953
    22  C   -0.391656
    23  C   -0.053175
    24  C   -0.253680
    25  N   -0.710129
    26  C    0.345415
    27  C   -0.010024
    28  C    0.091596
    29  C    0.290702
    30  C   -0.357684
    31  C   -0.288530
    32  C   -0.317600
    33  N   -0.704386
    34  C    0.284046
    35  C    0.013891
    36  C    0.030481
    37  C    0.267591
    38  C   -0.398729
    39  C    0.342187
    40  O   -0.486854
    41  C   -0.322752
    42  C    0.620543
    43  O   -0.519968
    44  O   -0.467615
    45  C   -0.067994
    46  C   -0.011670
    47  C   -0.143503
    48  C    0.127693
    49  C   -0.349839
    50  C   -0.221523
    51  C   -0.201176
    52  C   -0.152052
    53  C   -0.052974
    54  C   -0.297554
    55  C   -0.166808
    56  C   -0.159996
    57  C   -0.181204
    58  C   -0.042488
    59  C   -0.322984
    60  C   -0.141078
    61  C   -0.203542
    62  C   -0.108557
    63  C   -0.049855
    64  C   -0.307100
    65  C   -0.318835
    66  H    0.049312
    67  H    0.073965
    68  H    0.067190
    69  H    0.132328
    70  H    0.093843
    71  H    0.113789
    72  H    0.102374
    73  H    0.137341
    74  H    0.116823
    75  H    0.107218
    76  H    0.128016
    77  H    0.125826
    78  H    0.113885
    79  H    0.113827
    80  H    0.092321
    81  H    0.098916
    82  H    0.091266
    83  H    0.108617
    84  H    0.100139
    85  H    0.103946
    86  H    0.141557
    87  H    0.110747
    88  H    0.089190
    89  H    0.080127
    90  H    0.122194
    91  H    0.123853
    92  H    0.123392
    93  H    0.148632
    94  H    0.121267
    95  H    0.173982
    96  H    0.101002
    97  H    0.157148
    98  H    0.138854
    99  H    0.139646
   100  H    0.127601
   101  H    0.094797
   102  H    0.089968
   103  H    0.108395
   104  H    0.142135
   105  H    0.098272
   106  H    0.105545
   107  H    0.104902
   108  H    0.090262
   109  H    0.101712
   110  H    0.050844
   111  H    0.079268
   112  H    0.114985
   113  H    0.089380
   114  H    0.084701
   115  H    0.083087
   116  H    0.078688
   117  H    0.092615
   118  H    0.098083
   119  H    0.088052
   120  H    0.078953
   121  H    0.078817
   122  H    0.115717
   123  H    0.104363
   124  H    0.092293
   125  H    0.038986
   126  H    0.095584
   127  H    0.072747
   128  H    0.072181
   129  H    0.094474
   130  H    0.095134
   131  H    0.095471
   132  H    0.071448
   133  H    0.089901
   134  H    0.098617
   135  H    0.085480
   136  H    0.102080
   137  H    0.094830
 Sum of Mulliken charges =  -0.00000

 Dipole moment (field-independent basis, Debye):
    X=              2.8071    Y=              3.7404    Z=             -0.4198  Tot=              4.6954
 Quadrupole moment (field-independent basis, Debye-Ang):
   XX=           -348.8844   YY=           -402.9587   ZZ=           -395.7602
   XY=            -17.9639   XZ=              8.1620   YZ=             -2.0793

 Normal termination of Gaussian 16 at Tue Sep 24 11:21:07 2019.
