 Gaussian 16, Revision A.03,
 Gaussian 16:  ES64L-G16RevA.03 25-Dec-2016

 ----------------------------------------------------------------------
 # td=(NStates=1) iop(3/107=0140000000,3/108=0140000000) CAM-B3LYP/6-31
 G(d,p)
 ----------------------------------------------------------------------

 --
 TD
 --
 Symbolic Z-matrix:
 Charge =  0 Multiplicity = 1

                         Standard orientation:
 ---------------------------------------------------------------------
 Center     Atomic      Atomic             Coordinates (Angstroms)
 Number     Number       Type             X           Y           Z
 ---------------------------------------------------------------------
      1         12           0       -7.083784    0.578787    0.070926
      2          6           0       -4.760068   -2.100681    0.462970
      3          6           0       -4.835831    2.814494    1.161942
      4          6           0       -9.409421    3.145490   -0.406062
      5          6           0       -9.485907   -1.679429   -0.951764
      6          7           0       -5.099320    0.392726    0.666167
      7          6           0       -4.248778   -0.784387    0.776161
      8          6           0       -2.876498   -0.371066    1.242765
      9          6           0       -3.054877    1.043248    1.644443
     10          6           0       -4.392828    1.453389    1.115856
     11          6           0       -2.878420    1.357886    3.152942
     12          6           0       -1.943283   -0.601283    0.035776
     13          6           0       -0.492213   -0.427780    0.676581
     14          6           0        0.510321   -0.686036   -0.522953
     15          8           0        0.108724   -1.025868   -1.653986
     16          8           0        1.700908   -0.644027   -0.182751
     17          7           0       -7.140326    2.701855    0.367012
     18          6           0       -6.050443    3.384805    0.825795
     19          6           0       -6.335668    4.741239    0.706439
     20          6           0       -7.732927    4.938757    0.390335
     21          6           0       -8.103928    3.584570    0.124903
     22          6           0       -5.419017    5.934690    1.115354
     23          6           0       -8.562978    6.114200    0.130866
     24          6           0       -8.315096    7.328419    0.704126
     25          7           0       -9.025391    0.735823   -0.570756
     26          6           0       -9.792336    1.823991   -0.654153
     27          6           0      -11.153831    1.452393   -1.085894
     28          6           0      -11.125717    0.127506   -1.338322
     29          6           0       -9.837922   -0.347666   -0.981647
     30          6           0      -12.186727    2.529483   -1.361864
     31          6           0      -12.338100   -0.699765   -1.773821
     32          6           0      -12.111129   -1.021409   -3.287419
     33          7           0       -7.198811   -1.426459   -0.146894
     34          6           0       -8.285363   -2.279755   -0.488938
     35          6           0       -7.803442   -3.688769   -0.474024
     36          6           0       -6.433907   -3.627092   -0.083841
     37          6           0       -6.145568   -2.275175    0.139620
     38          6           0       -8.665567   -4.837171   -0.791607
     39          6           0       -5.335746   -4.471994    0.234916
     40          8           0       -5.247565   -5.704731    0.267065
     41          6           0       -4.164871   -3.397536    0.545387
     42          6           0       -3.499484   -3.636769    1.866692
     43          8           0       -3.780931   -3.084203    2.893629
     44          8           0       -2.651702   -4.675444    1.805883
     45          6           0       -2.014681   -5.057953    3.036192
     46          6           0        2.725723   -0.820315   -1.187788
     47          6           0        4.085608   -0.595851   -0.471213
     48          6           0        5.063226    0.151001   -0.967409
     49          6           0        5.039360    1.041320   -2.215092
     50          6           0        6.327705    0.276939   -0.140123
     51          6           0        7.524020   -0.214511   -0.940600
     52          6           0        8.877538   -0.162456   -0.081169
     53          6           0       10.204559   -0.604960   -0.880083
     54          6           0       10.122954   -2.007167   -1.445175
     55          6           0       11.401791   -0.279656    0.042738
     56          6           0       12.716734   -0.483405   -0.626117
     57          6           0       13.936178   -0.113529    0.228752
     58          6           0       15.305119   -0.136764   -0.503676
     59          6           0       15.723083   -1.497301   -1.022513
     60          6           0       16.286859    0.445977    0.502192
     61          6           0       17.682417    0.691982   -0.124909
     62          6           0       18.689603    1.288320    0.802555
     63          6           0       20.155662    1.386570    0.196515
     64          6           0       20.159828    2.264069   -1.172543
     65          6           0       21.070437    1.968715    1.131235
     66          1           0       -4.060056    3.648183    1.347670
     67          1           0       -9.836065    3.930773   -0.531707
     68          1           0      -10.362362   -2.339526   -1.236759
     69          1           0       -2.547996   -1.000413    2.258302
     70          1           0       -2.211084    1.582219    1.078219
     71          1           0       -1.825701    0.988628    3.347721
     72          1           0       -3.010295    2.438986    3.400760
     73          1           0       -3.494424    0.764915    3.767280
     74          1           0       -2.147765   -1.734660   -0.257236
     75          1           0       -2.202897   -0.108436   -0.871716
     76          1           0       -0.467551    0.674480    1.227217
     77          1           0       -0.392220   -1.170483    1.476903
     78          1           0       -5.911079    6.786295    0.501372
     79          1           0       -5.647488    6.268014    2.099810
     80          1           0       -4.196955    5.601631    1.282836
     81          1           0       -9.454310    6.017188   -0.475496
     82          1           0       -8.779762    8.318299    0.556852
     83          1           0       -7.613747    7.281754    1.505896
     84          1           0      -12.146709    2.941003   -2.466113
     85          1           0      -13.212550    1.870733   -1.473350
     86          1           0      -12.340013    3.464530   -0.695753
     87          1           0      -12.280732   -1.466962   -1.141439
     88          1           0      -13.193776    0.049447   -1.763238
     89          1           0      -12.924807   -1.677804   -3.570428
     90          1           0      -12.227815   -0.113540   -4.014028
     91          1           0      -11.221703   -1.673554   -3.259687
     92          1           0       -8.880868   -4.581089   -1.957575
     93          1           0       -7.946468   -5.717957   -0.892671
     94          1           0       -9.684472   -5.007657   -0.178875
     95          1           0       -3.194330   -3.578145   -0.149150
     96          1           0       -1.430899   -4.232270    3.397957
     97          1           0       -2.824831   -5.315346    3.741746
     98          1           0       -1.438695   -5.981813    2.790748
     99          1           0        2.657523   -2.056902   -1.401638
    100          1           0        2.492703   -0.331595   -2.192283
    101          1           0        4.244321   -1.295166    0.429669
    102          1           0        4.070794    0.713605   -2.745717
    103          1           0        5.252230    2.176126   -1.956092
    104          1           0        5.858835    0.982194   -2.919276
    105          1           0        6.343738    1.386023    0.204168
    106          1           0        6.268793   -0.287930    0.822055
    107          1           0        7.131827   -1.278249   -1.149438
    108          1           0        7.815810    0.211315   -1.951662
    109          1           0        9.000405    0.916029    0.192550
    110          1           0        8.638465   -0.771788    0.804696
    111          1           0       10.224686   -0.030266   -1.641605
    112          1           0        9.416372   -2.126991   -2.197674
    113          1           0       11.085115   -2.378245   -1.670197
    114          1           0        9.721737   -2.611790   -0.591248
    115          1           0       11.406543    0.967224    0.341981
    116          1           0       11.265367   -0.866665    0.854218
    117          1           0       12.852704   -1.503745   -1.149608
    118          1           0       12.887385    0.145578   -1.681953
    119          1           0       13.913680    0.915517    0.685867
    120          1           0       13.803843   -0.814743    1.139642
    121          1           0       15.182571    0.684433   -1.363213
    122          1           0       15.915252   -2.183882   -0.184596
    123          1           0       14.778010   -1.946460   -1.427998
    124          1           0       16.621130   -1.437129   -1.634953
    125          1           0       15.980731    1.299595    0.880077
    126          1           0       16.516781   -0.573517    1.159361
    127          1           0       18.026641   -0.303036   -0.477001
    128          1           0       17.875893    1.387964   -0.887154
    129          1           0       18.286376    2.394130    1.024542
    130          1           0       18.646567    0.745145    1.745203
    131          1           0       20.468145    0.370678   -0.164428
    132          1           0       19.787964    3.269031   -0.871938
    133          1           0       21.061445    2.265742   -1.326845
    134          1           0       19.761991    1.820273   -2.197908
    135          1           0       21.062815    1.380354    2.148688
    136          1           0       22.167669    1.813956    0.666438
    137          1           0       20.937527    3.035955    1.660710
 ---------------------------------------------------------------------

 SCF Done:  E(RCAM-B3LYP) =  -2933.45920566     A.U. after   16 cycles

 Excitation energies and oscillator strengths:

 Excited State   1:      Singlet-A      1.9131 eV  648.09 nm  f=0.2704  <S**2>=0.000
     240 -> 243        0.21292
     241 -> 242        0.66867
 This state for optimization and/or second-order correction.
 Total Energy, E(TD-HF/TD-DFT) =  -2933.38890174
 Copying the excited state density for this state as the 1-particle RhoCI density.

 The electronic state is 1-A.
 Alpha  occ. eigenvalues --  -46.79875 -19.23888 -19.21311 -19.15970 -19.15880
 Alpha  occ. eigenvalues --  -19.15194 -14.38325 -14.35288 -14.34742 -14.34016
 Alpha  occ. eigenvalues --  -10.34310 -10.33512 -10.30465 -10.30459 -10.26848
 Alpha  occ. eigenvalues --  -10.26773 -10.26738 -10.25132 -10.24994 -10.24378
 Alpha  occ. eigenvalues --  -10.24351 -10.24290 -10.24282 -10.24203 -10.24129
 Alpha  occ. eigenvalues --  -10.24120 -10.24104 -10.23777 -10.23754 -10.23636
 Alpha  occ. eigenvalues --  -10.23632 -10.23520 -10.23395 -10.23328 -10.23300
 Alpha  occ. eigenvalues --  -10.23119 -10.23066 -10.22868 -10.22855 -10.22752
 Alpha  occ. eigenvalues --  -10.22616 -10.22599 -10.22526 -10.22469 -10.22454
 Alpha  occ. eigenvalues --  -10.22384 -10.22089 -10.22032 -10.21870 -10.21811
 Alpha  occ. eigenvalues --  -10.21779 -10.21749 -10.21606 -10.21533 -10.21410
 Alpha  occ. eigenvalues --  -10.21132 -10.20759 -10.20687 -10.20631 -10.20511
 Alpha  occ. eigenvalues --  -10.20458 -10.20420 -10.19666 -10.19565 -10.19067
 Alpha  occ. eigenvalues --   -3.08374  -1.83326  -1.82846  -1.82770  -1.17266
 Alpha  occ. eigenvalues --   -1.13121  -1.04579  -1.04233  -1.02535  -0.99113
 Alpha  occ. eigenvalues --   -0.97861  -0.97748  -0.96353  -0.87877  -0.86405
 Alpha  occ. eigenvalues --   -0.85658  -0.84902  -0.84637  -0.84265  -0.83635
 Alpha  occ. eigenvalues --   -0.83349  -0.82628  -0.81905  -0.81245  -0.81043
 Alpha  occ. eigenvalues --   -0.79743  -0.79130  -0.78396  -0.77861  -0.77284
 Alpha  occ. eigenvalues --   -0.77026  -0.76585  -0.75958  -0.75392  -0.73002
 Alpha  occ. eigenvalues --   -0.72616  -0.71948  -0.71653  -0.71484  -0.71225
 Alpha  occ. eigenvalues --   -0.70949  -0.70360  -0.69391  -0.68994  -0.67236
 Alpha  occ. eigenvalues --   -0.66735  -0.65674  -0.65240  -0.64289  -0.63847
 Alpha  occ. eigenvalues --   -0.62818  -0.61708  -0.61266  -0.60303  -0.59788
 Alpha  occ. eigenvalues --   -0.59649  -0.59450  -0.59343  -0.58055  -0.57895
 Alpha  occ. eigenvalues --   -0.57199  -0.56909  -0.56301  -0.55570  -0.55344
 Alpha  occ. eigenvalues --   -0.54300  -0.54130  -0.53761  -0.52980  -0.52386
 Alpha  occ. eigenvalues --   -0.51930  -0.51710  -0.51574  -0.50998  -0.50714
 Alpha  occ. eigenvalues --   -0.50558  -0.50263  -0.49870  -0.49542  -0.49460
 Alpha  occ. eigenvalues --   -0.48949  -0.48764  -0.48675  -0.48383  -0.47880
 Alpha  occ. eigenvalues --   -0.47650  -0.47249  -0.47032  -0.46723  -0.46685
 Alpha  occ. eigenvalues --   -0.46545  -0.46194  -0.45909  -0.45669  -0.45574
 Alpha  occ. eigenvalues --   -0.45466  -0.45145  -0.44991  -0.44952  -0.44359
 Alpha  occ. eigenvalues --   -0.44295  -0.43956  -0.43854  -0.43801  -0.43314
 Alpha  occ. eigenvalues --   -0.43064  -0.42880  -0.42554  -0.42358  -0.42285
 Alpha  occ. eigenvalues --   -0.42257  -0.42063  -0.42009  -0.41643  -0.41508
 Alpha  occ. eigenvalues --   -0.41475  -0.41155  -0.40863  -0.40855  -0.40626
 Alpha  occ. eigenvalues --   -0.40488  -0.40422  -0.40091  -0.39908  -0.39800
 Alpha  occ. eigenvalues --   -0.39630  -0.39367  -0.39204  -0.39026  -0.38993
 Alpha  occ. eigenvalues --   -0.38785  -0.38752  -0.38372  -0.37955  -0.37781
 Alpha  occ. eigenvalues --   -0.37667  -0.37543  -0.37359  -0.37059  -0.37035
 Alpha  occ. eigenvalues --   -0.36800  -0.36425  -0.36096  -0.36031  -0.35843
 Alpha  occ. eigenvalues --   -0.35237  -0.34974  -0.34852  -0.34775  -0.34618
 Alpha  occ. eigenvalues --   -0.34423  -0.34277  -0.34142  -0.33747  -0.33312
 Alpha  occ. eigenvalues --   -0.33220  -0.32808  -0.32572  -0.32483  -0.32432
 Alpha  occ. eigenvalues --   -0.32303  -0.32226  -0.31403  -0.30350  -0.30192
 Alpha  occ. eigenvalues --   -0.29900  -0.29579  -0.29142  -0.27849  -0.27782
 Alpha  occ. eigenvalues --   -0.26861  -0.26336  -0.25591  -0.24237  -0.21213
 Alpha  occ. eigenvalues --   -0.19628
 Alpha virt. eigenvalues --   -0.07413  -0.03588  -0.00712   0.01776   0.03384
 Alpha virt. eigenvalues --    0.04007   0.04315   0.04987   0.05115   0.05567
 Alpha virt. eigenvalues --    0.06360   0.08528   0.08595   0.09049   0.09460

 Mulliken charges:
               1
     1  Mg   0.808078
     2  C    0.119502
     3  C   -0.198717
     4  C   -0.051876
     5  C   -0.206678
     6  N   -0.632105
     7  C    0.263168
     8  C   -0.159623
     9  C   -0.133694
    10  C    0.368286
    11  C   -0.306204
    12  C   -0.155297
    13  C   -0.275756
    14  C    0.589105
    15  O   -0.507642
    16  O   -0.380534
    17  N   -0.702395
    18  C    0.353231
    19  C   -0.018772
    20  C    0.016932
    21  C    0.251560
    22  C   -0.375554
    23  C   -0.066094
    24  C   -0.266936
    25  N   -0.702161
    26  C    0.337142
    27  C    0.038534
    28  C    0.022307
    29  C    0.326797
    30  C   -0.378194
    31  C   -0.224479
    32  C   -0.309387
    33  N   -0.724508
    34  C    0.271624
    35  C    0.021836
    36  C    0.048951
    37  C    0.289489
    38  C   -0.385638
    39  C    0.366545
    40  O   -0.474065
    41  C   -0.375953
    42  C    0.617884
    43  O   -0.473187
    44  O   -0.448993
    45  C   -0.084709
    46  C   -0.016271
    47  C   -0.139652
    48  C    0.149813
    49  C   -0.353881
    50  C   -0.223138
    51  C   -0.180691
    52  C   -0.185662
    53  C   -0.050777
    54  C   -0.320176
    55  C   -0.143301
    56  C   -0.176844
    57  C   -0.158434
    58  C   -0.043671
    59  C   -0.316612
    60  C   -0.139196
    61  C   -0.177363
    62  C   -0.167369
    63  C   -0.053745
    64  C   -0.301034
    65  C   -0.292554
    66  H    0.067203
    67  H   -0.016927
    68  H    0.076521
    69  H    0.106846
    70  H    0.095760
    71  H    0.094507
    72  H    0.112400
    73  H    0.136933
    74  H    0.100300
    75  H    0.139958
    76  H    0.107282
    77  H    0.136326
    78  H    0.122507
    79  H    0.139080
    80  H    0.082859
    81  H    0.102612
    82  H    0.111192
    83  H    0.106920
    84  H    0.114355
    85  H    0.082274
    86  H    0.122034
    87  H    0.118238
    88  H    0.097644
    89  H    0.104595
    90  H    0.109891
    91  H    0.112997
    92  H    0.109175
    93  H    0.145348
    94  H    0.124950
    95  H    0.145715
    96  H    0.124859
    97  H    0.135628
    98  H    0.126293
    99  H    0.100294
   100  H    0.144999
   101  H    0.099892
   102  H    0.098496
   103  H    0.110592
   104  H    0.132418
   105  H    0.088057
   106  H    0.097651
   107  H    0.087913
   108  H    0.089060
   109  H    0.090262
   110  H    0.086093
   111  H    0.094274
   112  H    0.115817
   113  H    0.108347
   114  H    0.090749
   115  H    0.058520
   116  H    0.104584
   117  H    0.086285
   118  H    0.053257
   119  H    0.083099
   120  H    0.074126
   121  H    0.066038
   122  H    0.100245
   123  H    0.096380
   124  H    0.116006
   125  H    0.088535
   126  H    0.067512
   127  H    0.075158
   128  H    0.101217
   129  H    0.056979
   130  H    0.081416
   131  H    0.091500
   132  H    0.101741
   133  H    0.110421
   134  H    0.086032
   135  H    0.090912
   136  H    0.081410
   137  H    0.096177
 Sum of Mulliken charges =  -0.00000

 Dipole moment (field-independent basis, Debye):
    X=              3.7254    Y=              4.0779    Z=              0.3690  Tot=              5.5357
 Quadrupole moment (field-independent basis, Debye-Ang):
   XX=           -338.3851   YY=           -399.5103   ZZ=           -397.3875
   XY=            -26.2257   XZ=              9.2490   YZ=             -1.2174

 Normal termination of Gaussian 16 at Sat Sep  7 01:26:00 2019.
