 Gaussian 09, Revision D.01,
 Gaussian 09:  ES64L-G09RevD.01 24-Apr-2013

 -------------------------------------
 # td=(NStates=1) CAM-B3LYP/6-31G(d,p)
 -------------------------------------

 --
 TD
 --
 Symbolic Z-matrix:
 Charge =  0 Multiplicity = 1

                         Standard orientation:
 ---------------------------------------------------------------------
 Center     Atomic      Atomic             Coordinates (Angstroms)
 Number     Number       Type             X           Y           Z
 ---------------------------------------------------------------------
      1         12           0       -7.199480    0.585162    0.206440
      2          6           0       -4.819412   -1.921863    0.703123
      3          6           0       -4.827674    2.746180    1.236681
      4          6           0       -9.481618    3.068422   -0.316174
      5          6           0       -9.514951   -1.808874   -0.920048
      6          7           0       -5.164694    0.472703    0.962315
      7          6           0       -4.307084   -0.685315    0.924006
      8          6           0       -2.852654   -0.329244    1.208392
      9          6           0       -3.056808    1.154173    1.749463
     10          6           0       -4.494297    1.529640    1.259467
     11          6           0       -2.884661    1.298863    3.249113
     12          6           0       -1.919672   -0.501371    0.076089
     13          6           0       -0.514689   -0.202223    0.460209
     14          6           0        0.428405   -0.548005   -0.673410
     15          8           0        0.180506   -1.125220   -1.783002
     16          8           0        1.715942   -0.284474   -0.357717
     17          7           0       -7.140937    2.571694    0.314402
     18          6           0       -6.104694    3.323927    0.801710
     19          6           0       -6.506246    4.695190    0.783135
     20          6           0       -7.867387    4.853101    0.373694
     21          6           0       -8.184900    3.454803    0.014252
     22          6           0       -5.462705    5.853160    1.170384
     23          6           0       -8.683433    5.976240    0.205404
     24          6           0       -8.558552    7.189727    0.869157
     25          7           0       -9.076280    0.588234   -0.525148
     26          6           0       -9.866312    1.741388   -0.695549
     27          6           0      -11.160115    1.333837   -1.302769
     28          6           0      -11.207160    0.026897   -1.370028
     29          6           0       -9.941392   -0.437825   -0.932385
     30          6           0      -12.167101    2.408742   -1.729616
     31          6           0      -12.346008   -0.867812   -1.861102
     32          6           0      -12.082894   -1.306064   -3.288366
     33          7           0       -7.183478   -1.389702   -0.014564
     34          6           0       -8.193095   -2.261678   -0.413709
     35          6           0       -7.694252   -3.586979   -0.460774
     36          6           0       -6.434720   -3.587548   -0.038756
     37          6           0       -6.127253   -2.114124    0.256763
     38          6           0       -8.600483   -4.802405   -0.805341
     39          6           0       -5.206678   -4.338067    0.269971
     40          8           0       -5.081696   -5.539624    0.327070
     41          6           0       -4.145177   -3.271796    0.726252
     42          6           0       -3.536509   -3.613801    1.989793
     43          8           0       -3.567058   -3.088399    3.004063
     44          8           0       -2.774179   -4.769097    1.792011
     45          6           0       -2.323446   -5.212000    3.060314
     46          6           0        2.760614   -0.516681   -1.295608
     47          6           0        4.116783   -0.378715   -0.572004
     48          6           0        5.057456    0.377741   -1.087195
     49          6           0        5.054006    1.239068   -2.335389
     50          6           0        6.428906    0.465766   -0.327036
     51          6           0        7.595123   -0.115602   -1.114889
     52          6           0        8.823312   -0.243992   -0.272615
     53          6           0       10.110175   -0.549481   -1.047592
     54          6           0       10.102187   -2.127902   -1.413085
     55          6           0       11.302728   -0.143440   -0.181234
     56          6           0       12.815251   -0.354980   -0.717235
     57          6           0       13.965233    0.040277    0.102186
     58          6           0       15.312058   -0.188190   -0.539211
     59          6           0       15.677584   -1.616222   -0.847743
     60          6           0       16.415851    0.368905    0.344341
     61          6           0       17.793885    0.430946   -0.113349
     62          6           0       18.764066    1.187995    0.735142
     63          6           0       20.331520    1.318305    0.439997
     64          6           0       20.455830    2.102316   -0.961808
     65          6           0       21.246721    1.842396    1.461208
     66          1           0       -4.153348    3.834680    1.105212
     67          1           0      -10.313830    3.807106   -0.605149
     68          1           0      -10.086465   -2.691905   -1.115069
     69          1           0       -2.463742   -1.014905    1.870133
     70          1           0       -2.189551    1.983023    1.470461
     71          1           0       -1.819205    1.123372    3.479525
     72          1           0       -3.121865    2.312900    3.558730
     73          1           0       -3.738887    0.849858    3.902500
     74          1           0       -1.913903   -1.311629   -0.291443
     75          1           0       -2.052334    0.053998   -0.872066
     76          1           0       -0.543482    0.904042    0.734199
     77          1           0       -0.070380   -0.815373    1.254737
     78          1           0       -5.834965    6.801342    0.689796
     79          1           0       -5.368844    6.251153    2.297554
     80          1           0       -4.423743    5.615742    0.647116
     81          1           0       -9.324729    5.801066   -0.696043
     82          1           0       -9.182071    8.059897    0.536043
     83          1           0       -7.724850    7.526869    1.634056
     84          1           0      -12.053774    2.640059   -2.874731
     85          1           0      -13.250731    1.899790   -1.849929
     86          1           0      -12.238230    3.481155   -1.047163
     87          1           0      -12.547494   -1.661041   -1.031382
     88          1           0      -13.198375   -0.171110   -1.747210
     89          1           0      -12.933375   -1.858135   -3.712070
     90          1           0      -12.019913   -0.517620   -4.124118
     91          1           0      -11.235904   -1.835556   -3.452270
     92          1           0       -9.181768   -4.725128   -1.789990
     93          1           0       -7.962275   -5.818545   -0.807182
     94          1           0       -9.518845   -5.106841   -0.240559
     95          1           0       -3.197445   -3.161734    0.030778
     96          1           0       -1.658703   -4.514615    3.472315
     97          1           0       -3.163227   -5.621214    3.665219
     98          1           0       -1.664262   -6.140707    2.991782
     99          1           0        2.831140   -1.609533   -1.484450
    100          1           0        2.681678    0.040377   -2.244042
    101          1           0        4.144544   -0.892680    0.284516
    102          1           0        4.127535    1.342540   -2.902218
    103          1           0        5.758251    2.119907   -2.135769
    104          1           0        5.691849    0.855125   -3.076163
    105          1           0        6.713229    1.278637    0.278322
    106          1           0        6.215310   -0.406464    0.603029
    107          1           0        7.273761   -1.074341   -1.908570
    108          1           0        7.909947    0.737997   -2.059348
    109          1           0        9.028340    0.724889    0.271004
    110          1           0        8.871504   -1.164946    0.394031
    111          1           0        9.957003    0.044243   -2.026005
    112          1           0        9.298399   -2.268241   -1.945656
    113          1           0       10.944020   -2.339922   -2.049448
    114          1           0        9.948514   -2.753255   -0.554349
    115          1           0       11.166620    0.957961    0.062477
    116          1           0       11.371236   -0.673420    0.816889
    117          1           0       12.808549   -1.443000   -0.985927
    118          1           0       12.805864   -0.016759   -1.795272
    119          1           0       14.018735    1.055346    0.626382
    120          1           0       13.791099   -0.572457    1.115578
    121          1           0       15.548121    0.286080   -1.536435
    122          1           0       15.433176   -2.363564   -0.066195
    123          1           0       15.250464   -2.076532   -1.835354
    124          1           0       16.650118   -1.799643   -1.159103
    125          1           0       15.993179    1.412378    0.626714
    126          1           0       16.387901   -0.201153    1.467488
    127          1           0       18.182466   -0.574225   -0.315902
    128          1           0       17.921398    0.874705   -1.177325
    129          1           0       18.442372    2.154094    0.962953
    130          1           0       18.773711    0.737623    1.746074
    131          1           0       20.590796    0.205399    0.188053
    132          1           0       19.965211    3.093409   -0.687425
    133          1           0       21.452236    2.100009   -1.099951
    134          1           0       19.633137    1.718125   -1.596781
    135          1           0       21.070305    1.271088    2.603008
    136          1           0       22.219267    1.804374    1.277495
    137          1           0       20.940919    2.793061    1.720810
 ---------------------------------------------------------------------

 SCF Done:  E(RCAM-B3LYP) =  -2932.55698426     A.U. after   16 cycles

 Excitation energies and oscillator strengths:

 Excited State   1:      Singlet-A      1.9632 eV  631.53 nm  f=0.3222  <S**2>=0.000
     240 -> 243        0.21134
     241 -> 242        0.66252
 This state for optimization and/or second-order correction.
 Total Energy, E(TD-HF/TD-KS) =  -2932.48483667
 Copying the excited state density for this state as the 1-particle RhoCI density.

 The electronic state is 1-A.
 Alpha  occ. eigenvalues --  -46.83753 -19.26260 -19.24253 -19.21677 -19.20714
 Alpha  occ. eigenvalues --  -19.20515 -14.41044 -14.40266 -14.39984 -14.39937
 Alpha  occ. eigenvalues --  -10.39821 -10.38214 -10.35789 -10.31722 -10.31149
 Alpha  occ. eigenvalues --  -10.30350 -10.30087 -10.29955 -10.29771 -10.29700
 Alpha  occ. eigenvalues --  -10.29576 -10.29539 -10.29510 -10.29421 -10.29202
 Alpha  occ. eigenvalues --  -10.29079 -10.28993 -10.28752 -10.28711 -10.28669
 Alpha  occ. eigenvalues --  -10.28599 -10.28591 -10.28417 -10.28258 -10.28066
 Alpha  occ. eigenvalues --  -10.28003 -10.27815 -10.27792 -10.27651 -10.27568
 Alpha  occ. eigenvalues --  -10.27106 -10.26859 -10.26819 -10.26716 -10.26706
 Alpha  occ. eigenvalues --  -10.26614 -10.26565 -10.26450 -10.26212 -10.26106
 Alpha  occ. eigenvalues --  -10.25881 -10.25881 -10.25838 -10.25665 -10.25608
 Alpha  occ. eigenvalues --  -10.25593 -10.25537 -10.25493 -10.24977 -10.24663
 Alpha  occ. eigenvalues --  -10.24265 -10.24218 -10.24197 -10.24081 -10.23214
 Alpha  occ. eigenvalues --   -3.13021  -1.87711  -1.87260  -1.87223  -1.19931
 Alpha  occ. eigenvalues --   -1.17440  -1.11712  -1.10257  -1.06307  -1.04998
 Alpha  occ. eigenvalues --   -1.03951  -1.02956  -1.01983  -0.93504  -0.92050
 Alpha  occ. eigenvalues --   -0.91396  -0.90952  -0.89561  -0.89380  -0.89247
 Alpha  occ. eigenvalues --   -0.88467  -0.88272  -0.87333  -0.86720  -0.86024
 Alpha  occ. eigenvalues --   -0.85203  -0.84481  -0.83736  -0.83200  -0.82081
 Alpha  occ. eigenvalues --   -0.81908  -0.80900  -0.80808  -0.80261  -0.78678
 Alpha  occ. eigenvalues --   -0.77527  -0.76705  -0.76336  -0.76321  -0.76128
 Alpha  occ. eigenvalues --   -0.75373  -0.75078  -0.74526  -0.73780  -0.72916
 Alpha  occ. eigenvalues --   -0.71610  -0.71399  -0.70309  -0.69724  -0.68955
 Alpha  occ. eigenvalues --   -0.67854  -0.66052  -0.65742  -0.65336  -0.64044
 Alpha  occ. eigenvalues --   -0.63777  -0.63149  -0.62809  -0.62192  -0.61935
 Alpha  occ. eigenvalues --   -0.61549  -0.61008  -0.60391  -0.59871  -0.59722
 Alpha  occ. eigenvalues --   -0.58526  -0.58181  -0.58088  -0.57584  -0.56946
 Alpha  occ. eigenvalues --   -0.56317  -0.55934  -0.55432  -0.54940  -0.54633
 Alpha  occ. eigenvalues --   -0.54427  -0.54063  -0.53957  -0.53590  -0.53313
 Alpha  occ. eigenvalues --   -0.53024  -0.52783  -0.52100  -0.52009  -0.51668
 Alpha  occ. eigenvalues --   -0.51438  -0.51179  -0.51163  -0.51027  -0.50954
 Alpha  occ. eigenvalues --   -0.50736  -0.50347  -0.50180  -0.49908  -0.49492
 Alpha  occ. eigenvalues --   -0.49411  -0.49223  -0.48710  -0.48673  -0.48265
 Alpha  occ. eigenvalues --   -0.47979  -0.47824  -0.47542  -0.47376  -0.47364
 Alpha  occ. eigenvalues --   -0.46849  -0.46612  -0.46493  -0.46296  -0.46169
 Alpha  occ. eigenvalues --   -0.46000  -0.45815  -0.45641  -0.45409  -0.45323
 Alpha  occ. eigenvalues --   -0.44977  -0.44620  -0.44420  -0.44315  -0.44120
 Alpha  occ. eigenvalues --   -0.43993  -0.43973  -0.43784  -0.43644  -0.43261
 Alpha  occ. eigenvalues --   -0.43058  -0.42840  -0.42733  -0.42591  -0.42435
 Alpha  occ. eigenvalues --   -0.42330  -0.42030  -0.41649  -0.41385  -0.40974
 Alpha  occ. eigenvalues --   -0.40855  -0.40788  -0.40617  -0.40266  -0.40117
 Alpha  occ. eigenvalues --   -0.39843  -0.39669  -0.39644  -0.39521  -0.38875
 Alpha  occ. eigenvalues --   -0.38753  -0.38612  -0.38049  -0.37518  -0.37469
 Alpha  occ. eigenvalues --   -0.37127  -0.36613  -0.36351  -0.36244  -0.35926
 Alpha  occ. eigenvalues --   -0.35755  -0.35631  -0.35561  -0.35502  -0.35163
 Alpha  occ. eigenvalues --   -0.34827  -0.34612  -0.34451  -0.34127  -0.33722
 Alpha  occ. eigenvalues --   -0.33557  -0.33033  -0.32432  -0.31250  -0.30840
 Alpha  occ. eigenvalues --   -0.30323  -0.30075  -0.29471  -0.27343  -0.23477
 Alpha  occ. eigenvalues --   -0.21484
 Alpha virt. eigenvalues --   -0.07293  -0.03148   0.01294   0.03084   0.05046
 Alpha virt. eigenvalues --    0.05854   0.06384   0.06942   0.07459   0.07591
 Alpha virt. eigenvalues --    0.08090   0.09689   0.10832   0.11158   0.11206

 Mulliken charges:
               1
     1  Mg   0.820274
     2  C    0.092441
     3  C   -0.187785
     4  C   -0.154764
     5  C   -0.150345
     6  N   -0.662464
     7  C    0.269151
     8  C   -0.132975
     9  C   -0.153468
    10  C    0.432558
    11  C   -0.305904
    12  C   -0.136210
    13  C   -0.266817
    14  C    0.593220
    15  O   -0.507384
    16  O   -0.469773
    17  N   -0.703970
    18  C    0.302808
    19  C   -0.030721
    20  C    0.072679
    21  C    0.257174
    22  C   -0.370835
    23  C   -0.097422
    24  C   -0.250904
    25  N   -0.672976
    26  C    0.264840
    27  C    0.038106
    28  C    0.052944
    29  C    0.257126
    30  C   -0.379157
    31  C   -0.219440
    32  C   -0.316488
    33  N   -0.725404
    34  C    0.228700
    35  C    0.015706
    36  C    0.025137
    37  C    0.288906
    38  C   -0.391594
    39  C    0.382522
    40  O   -0.435513
    41  C   -0.367727
    42  C    0.637717
    43  O   -0.419684
    44  O   -0.474905
    45  C   -0.075700
    46  C    0.024796
    47  C   -0.135704
    48  C    0.145775
    49  C   -0.374011
    50  C   -0.228528
    51  C   -0.136926
    52  C   -0.150902
    53  C   -0.077205
    54  C   -0.322881
    55  C   -0.170091
    56  C   -0.196405
    57  C   -0.159568
    58  C   -0.037529
    59  C   -0.316178
    60  C   -0.150386
    61  C   -0.172416
    62  C   -0.182628
    63  C   -0.070549
    64  C   -0.300890
    65  C   -0.288152
    66  H    0.069524
    67  H    0.088722
    68  H    0.097789
    69  H    0.121743
    70  H    0.077861
    71  H    0.109074
    72  H    0.115944
    73  H    0.110045
    74  H    0.109725
    75  H    0.114893
    76  H    0.137012
    77  H    0.140095
    78  H    0.115020
    79  H    0.112573
    80  H    0.107462
    81  H    0.109124
    82  H    0.106658
    83  H    0.111060
    84  H    0.122759
    85  H    0.098873
    86  H    0.103752
    87  H    0.108237
    88  H    0.104586
    89  H    0.104179
    90  H    0.102342
    91  H    0.129886
    92  H    0.109472
    93  H    0.130567
    94  H    0.129402
    95  H    0.174129
    96  H    0.122540
    97  H    0.120578
    98  H    0.101177
    99  H    0.121427
   100  H    0.115261
   101  H    0.096875
   102  H    0.115134
   103  H    0.115162
   104  H    0.135872
   105  H    0.122037
   106  H    0.053664
   107  H    0.080383
   108  H    0.034373
   109  H    0.090969
   110  H    0.095083
   111  H    0.075118
   112  H    0.113330
   113  H    0.106583
   114  H    0.103781
   115  H    0.080675
   116  H    0.084174
   117  H    0.102910
   118  H    0.081386
   119  H    0.090383
   120  H    0.076485
   121  H    0.093093
   122  H    0.101673
   123  H    0.074273
   124  H    0.112193
   125  H    0.075361
   126  H    0.055230
   127  H    0.103657
   128  H    0.070864
   129  H    0.091834
   130  H    0.082644
   131  H    0.064183
   132  H    0.087670
   133  H    0.111515
   134  H    0.106272
   135  H    0.055327
   136  H    0.120601
   137  H    0.114441
 Sum of Mulliken charges =   0.00000

 Dipole moment (field-independent basis, Debye):
    X=             -0.2128    Y=              4.9472    Z=             -0.6663  Tot=              4.9964
 Quadrupole moment (field-independent basis, Debye-Ang):
   XX=           -325.9786   YY=           -395.9280   ZZ=           -398.0625
   XY=            -19.1644   XZ=             17.3236   YZ=             -1.9026

 Normal termination of Gaussian 09 at Sat Jul  6 14:28:59 2019.
