 Gaussian 16, Revision A.03,
 Gaussian 16:  ES64L-G16RevA.03 25-Dec-2016

 ----------------------------------------------------------------------
 # td=(NStates=1) iop(3/107=0140000000,3/108=0140000000) CAM-B3LYP/6-31
 G(d,p)
 ----------------------------------------------------------------------

 --
 TD
 --
 Symbolic Z-matrix:
 Charge =  0 Multiplicity = 1

                         Standard orientation:
 ---------------------------------------------------------------------
 Center     Atomic      Atomic             Coordinates (Angstroms)
 Number     Number       Type             X           Y           Z
 ---------------------------------------------------------------------
      1         12           0       -7.181775    0.580681    0.103811
      2          6           0       -4.884876   -2.029771    0.541763
      3          6           0       -4.810922    2.804434    1.239530
      4          6           0       -9.384068    3.136010   -0.508760
      5          6           0       -9.549357   -1.734772   -0.930323
      6          7           0       -5.133977    0.409338    0.809361
      7          6           0       -4.386991   -0.741830    0.924088
      8          6           0       -2.896346   -0.466897    1.317005
      9          6           0       -3.043773    1.004790    1.660148
     10          6           0       -4.357390    1.531286    1.263177
     11          6           0       -2.778654    1.206416    3.300961
     12          6           0       -1.940728   -0.710093    0.216656
     13          6           0       -0.439688   -0.572322    0.704470
     14          6           0        0.484905   -0.764263   -0.419879
     15          8           0        0.189151   -1.131659   -1.530349
     16          8           0        1.758419   -0.318212   -0.181911
     17          7           0       -6.989840    2.639256    0.303732
     18          6           0       -6.087656    3.374250    0.792610
     19          6           0       -6.384886    4.757774    0.837197
     20          6           0       -7.618450    4.881157    0.313623
     21          6           0       -8.031448    3.483631   -0.071275
     22          6           0       -5.453909    5.837815    1.413682
     23          6           0       -8.507280    6.047605    0.107521
     24          6           0       -8.572965    7.204829    0.862823
     25          7           0       -9.102275    0.721946   -0.512861
     26          6           0       -9.773072    1.836595   -0.823355
     27          6           0      -11.212619    1.505557   -1.269655
     28          6           0      -11.226535    0.156123   -1.403156
     29          6           0       -9.855338   -0.318947   -0.954523
     30          6           0      -12.098040    2.573372   -1.573239
     31          6           0      -12.368551   -0.669138   -1.855834
     32          6           0      -12.252229   -1.156257   -3.278850
     33          7           0       -7.166299   -1.283799   -0.188688
     34          6           0       -8.274498   -2.137941   -0.589968
     35          6           0       -7.890165   -3.624725   -0.624973
     36          6           0       -6.473601   -3.536773   -0.232321
     37          6           0       -6.165493   -2.240079    0.056184
     38          6           0       -8.555145   -4.767173   -0.936295
     39          6           0       -5.347131   -4.400814    0.114828
     40          8           0       -5.239988   -5.605186    0.056432
     41          6           0       -4.219209   -3.352984    0.607492
     42          6           0       -3.577915   -3.787877    1.956483
     43          8           0       -3.766407   -3.244569    3.045833
     44          8           0       -2.754630   -4.792627    1.764127
     45          6           0       -2.029199   -5.214298    2.859500
     46          6           0        2.805044   -0.753204   -1.122926
     47          6           0        4.077321   -0.518041   -0.489224
     48          6           0        5.066527    0.351432   -0.911793
     49          6           0        4.968611    1.254122   -2.033675
     50          6           0        6.440490    0.288633   -0.011644
     51          6           0        7.617725   -0.117878   -0.860116
     52          6           0        8.882594   -0.196963    0.035126
     53          6           0       10.184764   -0.519737   -0.864320
     54          6           0       10.046656   -2.089066   -1.257264
     55          6           0       11.409944   -0.168364    0.065083
     56          6           0       12.763860   -0.541193   -0.673955
     57          6           0       13.932170   -0.145012    0.199621
     58          6           0       15.351367   -0.219852   -0.600437
     59          6           0       15.584343   -1.654469   -0.944315
     60          6           0       16.336860    0.459307    0.345568
     61          6           0       17.744845    0.426230   -0.311856
     62          6           0       18.831543    1.183431    0.539840
     63          6           0       20.256569    1.483693    0.054709
     64          6           0       20.218536    2.407522   -1.260262
     65          6           0       21.241760    1.928012    1.156270
     66          1           0       -4.023778    3.482216    1.652628
     67          1           0       -9.868970    4.170276   -0.918034
     68          1           0      -10.370296   -2.362473   -1.269997
     69          1           0       -2.876466   -0.990627    2.405358
     70          1           0       -2.264000    1.523811    1.074359
     71          1           0       -1.829617    0.902893    3.718072
     72          1           0       -2.743074    2.188880    3.595847
     73          1           0       -3.662061    0.758173    3.740203
     74          1           0       -2.057064   -1.674966   -0.220236
     75          1           0       -2.183128    0.265159   -0.613061
     76          1           0       -0.259078    0.537712    1.014576
     77          1           0       -0.342934   -1.198625    1.605197
     78          1           0       -5.864104    6.778118    0.645880
     79          1           0       -5.686762    6.176439    2.524959
     80          1           0       -4.505569    5.625438    1.086641
     81          1           0       -9.471821    6.026859   -0.661332
     82          1           0       -9.287277    8.081490    0.368133
     83          1           0       -7.775289    7.707530    1.677941
     84          1           0      -11.695146    3.325350   -2.427371
     85          1           0      -13.163052    2.262201   -1.888610
     86          1           0      -12.298887    3.218703   -0.706811
     87          1           0      -12.340537   -1.446689   -1.062814
     88          1           0      -13.347361   -0.001402   -1.665358
     89          1           0      -13.130441   -1.662698   -3.809027
     90          1           0      -12.095492   -0.176586   -3.910556
     91          1           0      -11.385896   -1.902486   -3.415652
     92          1           0       -8.526536   -5.085603   -2.197849
     93          1           0       -7.886133   -5.545500   -0.714122
     94          1           0       -9.498298   -4.792810   -0.372640
     95          1           0       -3.290443   -3.325236    0.024466
     96          1           0       -1.639647   -4.270336    3.425781
     97          1           0       -2.845572   -5.641122    3.473548
     98          1           0       -1.329582   -5.820639    2.428815
     99          1           0        2.579988   -1.724803   -1.431842
    100          1           0        2.564191   -0.330524   -2.090713
    101          1           0        4.235901   -1.094349    0.395977
    102          1           0        4.120387    1.170054   -2.447556
    103          1           0        5.366866    2.247555   -1.650594
    104          1           0        5.686757    1.036069   -2.973951
    105          1           0        6.384840    1.335199    0.189173
    106          1           0        6.296155   -0.333359    1.058415
    107          1           0        7.430492   -1.054311   -1.448801
    108          1           0        7.695116    0.932124   -1.542968
    109          1           0        9.132475    0.723632    0.701711
    110          1           0        8.697380   -1.005368    0.773454
    111          1           0       10.224984    0.115598   -1.679401
    112          1           0        9.018698   -2.410210   -1.717062
    113          1           0       11.040003   -2.252963   -1.792540
    114          1           0        9.849565   -2.598531   -0.223614
    115          1           0       11.495985    0.896267    0.259684
    116          1           0       11.145761   -0.762491    0.988302
    117          1           0       12.859716   -1.673365   -0.806150
    118          1           0       12.717262    0.027947   -1.683566
    119          1           0       13.887981    0.912053    0.401651
    120          1           0       14.168109   -0.660383    1.240377
    121          1           0       15.175846    0.570241   -1.306876
    122          1           0       15.408500   -2.197420   -0.035535
    123          1           0       14.806086   -1.917704   -1.607174
    124          1           0       16.725411   -1.819436   -1.178314
    125          1           0       16.083981    1.553194    0.463719
    126          1           0       16.390392    0.161232    1.156810
    127          1           0       18.288522   -0.680456   -0.365887
    128          1           0       17.687695    0.860897   -1.308913
    129          1           0       18.576295    2.093084    0.865839
    130          1           0       18.754056    0.686883    1.468568
    131          1           0       20.670951    0.464351   -0.324542
    132          1           0       19.989234    3.425149   -0.983159
    133          1           0       21.289251    2.503862   -1.697105
    134          1           0       19.449363    2.187011   -1.879650
    135          1           0       21.109008    1.113542    1.928630
    136          1           0       22.197252    2.080463    0.811658
    137          1           0       20.989680    2.808732    1.472800
 ---------------------------------------------------------------------

 SCF Done:  E(RCAM-B3LYP) =  -2933.38253530     A.U. after   16 cycles

 Excitation energies and oscillator strengths:

 Excited State   1:      Singlet-A      1.9154 eV  647.30 nm  f=0.3030  <S**2>=0.000
     240 -> 243       -0.21813
     241 -> 242        0.67023
 This state for optimization and/or second-order correction.
 Total Energy, E(TD-HF/TD-DFT) =  -2933.31214513
 Copying the excited state density for this state as the 1-particle RhoCI density.

 The electronic state is 1-A.
 Alpha  occ. eigenvalues --  -46.79194 -19.22475 -19.20290 -19.16684 -19.16289
 Alpha  occ. eigenvalues --  -19.16234 -14.37070 -14.36195 -14.35533 -14.35389
 Alpha  occ. eigenvalues --  -10.34390 -10.33918 -10.30891 -10.26703 -10.26591
 Alpha  occ. eigenvalues --  -10.26114 -10.25781 -10.25551 -10.25338 -10.25085
 Alpha  occ. eigenvalues --  -10.25056 -10.24924 -10.24711 -10.24601 -10.24432
 Alpha  occ. eigenvalues --  -10.24398 -10.24356 -10.24235 -10.24103 -10.23841
 Alpha  occ. eigenvalues --  -10.23598 -10.23435 -10.23328 -10.23324 -10.23238
 Alpha  occ. eigenvalues --  -10.23183 -10.23084 -10.23022 -10.22841 -10.22786
 Alpha  occ. eigenvalues --  -10.22702 -10.22691 -10.22446 -10.22430 -10.22081
 Alpha  occ. eigenvalues --  -10.21970 -10.21952 -10.21889 -10.21809 -10.21758
 Alpha  occ. eigenvalues --  -10.21736 -10.21733 -10.21592 -10.21505 -10.21469
 Alpha  occ. eigenvalues --  -10.21191 -10.21011 -10.20889 -10.20789 -10.20756
 Alpha  occ. eigenvalues --  -10.20074 -10.19722 -10.18775 -10.18688 -10.18612
 Alpha  occ. eigenvalues --   -3.08077  -1.82984  -1.82552  -1.82522  -1.15367
 Alpha  occ. eigenvalues --   -1.11874  -1.06658  -1.03953  -1.03187  -1.00551
 Alpha  occ. eigenvalues --   -0.98718  -0.97017  -0.95714  -0.87356  -0.85626
 Alpha  occ. eigenvalues --   -0.85431  -0.84821  -0.84418  -0.84012  -0.83505
 Alpha  occ. eigenvalues --   -0.83383  -0.82581  -0.82550  -0.81744  -0.80628
 Alpha  occ. eigenvalues --   -0.79853  -0.79446  -0.78848  -0.78007  -0.77669
 Alpha  occ. eigenvalues --   -0.76953  -0.76774  -0.75481  -0.75047  -0.73848
 Alpha  occ. eigenvalues --   -0.72703  -0.72284  -0.71969  -0.71413  -0.71104
 Alpha  occ. eigenvalues --   -0.70498  -0.69956  -0.69416  -0.68317  -0.67149
 Alpha  occ. eigenvalues --   -0.66984  -0.65605  -0.64953  -0.64580  -0.63109
 Alpha  occ. eigenvalues --   -0.62072  -0.61908  -0.60661  -0.60340  -0.59739
 Alpha  occ. eigenvalues --   -0.59418  -0.59072  -0.58975  -0.58682  -0.58001
 Alpha  occ. eigenvalues --   -0.57931  -0.56299  -0.55521  -0.55267  -0.54702
 Alpha  occ. eigenvalues --   -0.54180  -0.53986  -0.53459  -0.53074  -0.52824
 Alpha  occ. eigenvalues --   -0.52470  -0.52086  -0.51249  -0.50563  -0.50547
 Alpha  occ. eigenvalues --   -0.50205  -0.50071  -0.49771  -0.49537  -0.49258
 Alpha  occ. eigenvalues --   -0.49103  -0.48871  -0.48513  -0.48277  -0.48031
 Alpha  occ. eigenvalues --   -0.47447  -0.47031  -0.46959  -0.46896  -0.46738
 Alpha  occ. eigenvalues --   -0.46627  -0.46435  -0.46407  -0.45915  -0.45671
 Alpha  occ. eigenvalues --   -0.45434  -0.45104  -0.45050  -0.44840  -0.44646
 Alpha  occ. eigenvalues --   -0.44487  -0.44329  -0.44231  -0.43979  -0.43634
 Alpha  occ. eigenvalues --   -0.43573  -0.43266  -0.42806  -0.42675  -0.42589
 Alpha  occ. eigenvalues --   -0.42123  -0.41877  -0.41675  -0.41587  -0.41385
 Alpha  occ. eigenvalues --   -0.41233  -0.41107  -0.41012  -0.40743  -0.40601
 Alpha  occ. eigenvalues --   -0.40471  -0.40200  -0.40002  -0.39886  -0.39750
 Alpha  occ. eigenvalues --   -0.39609  -0.39511  -0.39375  -0.39254  -0.38907
 Alpha  occ. eigenvalues --   -0.38729  -0.38581  -0.38527  -0.38443  -0.38085
 Alpha  occ. eigenvalues --   -0.37952  -0.37626  -0.37583  -0.37414  -0.37061
 Alpha  occ. eigenvalues --   -0.36869  -0.36560  -0.36430  -0.36065  -0.35473
 Alpha  occ. eigenvalues --   -0.35356  -0.35323  -0.34836  -0.34743  -0.34657
 Alpha  occ. eigenvalues --   -0.34612  -0.34383  -0.33778  -0.33484  -0.33326
 Alpha  occ. eigenvalues --   -0.33154  -0.32793  -0.32711  -0.32357  -0.32189
 Alpha  occ. eigenvalues --   -0.31979  -0.31647  -0.31190  -0.30517  -0.30202
 Alpha  occ. eigenvalues --   -0.30026  -0.29186  -0.28445  -0.27827  -0.27160
 Alpha  occ. eigenvalues --   -0.26597  -0.26321  -0.26072  -0.25477  -0.21363
 Alpha  occ. eigenvalues --   -0.19466
 Alpha virt. eigenvalues --   -0.07265  -0.03541  -0.00011   0.01934   0.03105
 Alpha virt. eigenvalues --    0.04019   0.04123   0.04875   0.05103   0.05671
 Alpha virt. eigenvalues --    0.06179   0.07565   0.08311   0.08693   0.09319

 Mulliken charges:
               1
     1  Mg   0.839233
     2  C    0.088595
     3  C   -0.215808
     4  C   -0.147208
     5  C   -0.169264
     6  N   -0.625169
     7  C    0.279293
     8  C   -0.129738
     9  C   -0.177892
    10  C    0.369793
    11  C   -0.335531
    12  C   -0.159779
    13  C   -0.280215
    14  C    0.615273
    15  O   -0.466077
    16  O   -0.489667
    17  N   -0.657956
    18  C    0.332712
    19  C    0.023594
    20  C    0.039990
    21  C    0.210544
    22  C   -0.351027
    23  C   -0.106996
    24  C   -0.231226
    25  N   -0.664164
    26  C    0.268588
    27  C    0.088726
    28  C    0.016562
    29  C    0.285830
    30  C   -0.404111
    31  C   -0.243798
    32  C   -0.296147
    33  N   -0.759774
    34  C    0.265478
    35  C    0.100129
    36  C    0.004667
    37  C    0.295314
    38  C   -0.427919
    39  C    0.372115
    40  O   -0.457808
    41  C   -0.345273
    42  C    0.587459
    43  O   -0.490611
    44  O   -0.400767
    45  C   -0.081716
    46  C   -0.001320
    47  C   -0.111061
    48  C    0.091475
    49  C   -0.337047
    50  C   -0.211884
    51  C   -0.139774
    52  C   -0.181751
    53  C   -0.060771
    54  C   -0.308148
    55  C   -0.170803
    56  C   -0.186964
    57  C   -0.183778
    58  C   -0.062678
    59  C   -0.302711
    60  C   -0.131273
    61  C   -0.186372
    62  C   -0.177715
    63  C   -0.063300
    64  C   -0.322445
    65  C   -0.306151
    66  H    0.069590
    67  H    0.085269
    68  H    0.094728
    69  H    0.136317
    70  H    0.096156
    71  H    0.110075
    72  H    0.112830
    73  H    0.128812
    74  H    0.127620
    75  H    0.088088
    76  H    0.136308
    77  H    0.142818
    78  H    0.084638
    79  H    0.121961
    80  H    0.131002
    81  H    0.088622
    82  H    0.079926
    83  H    0.095813
    84  H    0.109477
    85  H    0.098818
    86  H    0.131051
    87  H    0.106083
    88  H    0.090554
    89  H    0.103789
    90  H    0.102306
    91  H    0.105090
    92  H    0.103630
    93  H    0.169049
    94  H    0.130694
    95  H    0.150517
    96  H    0.114910
    97  H    0.134050
    98  H    0.130432
    99  H    0.123785
   100  H    0.115781
   101  H    0.084991
   102  H    0.122858
   103  H    0.113049
   104  H    0.100242
   105  H    0.111457
   106  H    0.069967
   107  H    0.105158
   108  H    0.065907
   109  H    0.080090
   110  H    0.088379
   111  H    0.090188
   112  H    0.098917
   113  H    0.108460
   114  H    0.091687
   115  H    0.097713
   116  H    0.090091
   117  H    0.095740
   118  H    0.087847
   119  H    0.082475
   120  H    0.077275
   121  H    0.085890
   122  H    0.105540
   123  H    0.114485
   124  H    0.093360
   125  H    0.080626
   126  H    0.079609
   127  H    0.066962
   128  H    0.092588
   129  H    0.090293
   130  H    0.082350
   131  H    0.061783
   132  H    0.095439
   133  H    0.090484
   134  H    0.114176
   135  H    0.098818
   136  H    0.108130
   137  H    0.112604
 Sum of Mulliken charges =  -0.00000

 Dipole moment (field-independent basis, Debye):
    X=              1.8012    Y=              2.9623    Z=              0.2462  Tot=              3.4757
 Quadrupole moment (field-independent basis, Debye-Ang):
   XX=           -360.0155   YY=           -395.3052   ZZ=           -398.4573
   XY=             -1.4243   XZ=             20.8048   YZ=             -2.9216

 Normal termination of Gaussian 16 at Sat Sep 14 14:01:31 2019.
