 Gaussian 09, Revision D.01,
 Gaussian 09:  ES64L-G09RevD.01 24-Apr-2013

 -------------------------------------
 # td=(NStates=1) CAM-B3LYP/6-31G(d,p)
 -------------------------------------

 --
 TD
 --
 Symbolic Z-matrix:
 Charge =  0 Multiplicity = 1

                         Standard orientation:
 ---------------------------------------------------------------------
 Center     Atomic      Atomic             Coordinates (Angstroms)
 Number     Number       Type             X           Y           Z
 ---------------------------------------------------------------------
      1         12           0       -7.162906    0.609436    0.026742
      2          6           0       -4.815241   -1.995376    0.421390
      3          6           0       -4.912636    2.844630    1.273137
      4          6           0       -9.393383    3.095160   -0.475053
      5          6           0       -9.501701   -1.808446   -0.992876
      6          7           0       -5.151901    0.543937    0.636677
      7          6           0       -4.370392   -0.705576    0.811742
      8          6           0       -2.939468   -0.341650    1.299644
      9          6           0       -3.067020    1.027323    1.794393
     10          6           0       -4.512983    1.556628    1.221450
     11          6           0       -3.057515    1.187734    3.266710
     12          6           0       -1.914323   -0.450593    0.135602
     13          6           0       -0.427405   -0.280416    0.596551
     14          6           0        0.478197   -0.738143   -0.529880
     15          8           0        0.147056   -1.183253   -1.581345
     16          8           0        1.799200   -0.316600   -0.220901
     17          7           0       -7.075782    2.602125    0.322703
     18          6           0       -6.100418    3.379561    0.744008
     19          6           0       -6.489447    4.818281    0.750870
     20          6           0       -7.724251    4.895944    0.336814
     21          6           0       -8.128610    3.530979    0.002597
     22          6           0       -5.570445    5.895269    1.266350
     23          6           0       -8.562643    6.061747    0.225947
     24          6           0       -8.353093    7.324215    0.749499
     25          7           0       -9.050363    0.560368   -0.670765
     26          6           0       -9.738810    1.754972   -0.763132
     27          6           0      -11.143377    1.444565   -1.241920
     28          6           0      -11.218427    0.087092   -1.331879
     29          6           0       -9.902033   -0.466478   -1.051648
     30          6           0      -12.168709    2.492450   -1.640117
     31          6           0      -12.342791   -0.759844   -1.675292
     32          6           0      -12.302564   -1.085738   -3.227396
     33          7           0       -7.217001   -1.473568   -0.180297
     34          6           0       -8.273092   -2.242709   -0.560042
     35          6           0       -7.766683   -3.646340   -0.542825
     36          6           0       -6.481290   -3.585917   -0.120093
     37          6           0       -6.183837   -2.190049   -0.012802
     38          6           0       -8.599191   -4.872303   -0.828811
     39          6           0       -5.286181   -4.382791    0.228025
     40          8           0       -5.096422   -5.533452    0.209723
     41          6           0       -4.139207   -3.326246    0.593310
     42          6           0       -3.517460   -3.646425    1.983297
     43          8           0       -3.821835   -3.202499    3.074895
     44          8           0       -2.612523   -4.574687    1.822480
     45          6           0       -2.186943   -5.251032    3.080088
     46          6           0        2.837081   -0.766814   -1.113571
     47          6           0        4.161689   -0.492422   -0.431646
     48          6           0        5.189986    0.428401   -0.975939
     49          6           0        5.000093    1.224198   -2.183720
     50          6           0        6.420242    0.461367   -0.195782
     51          6           0        7.663471   -0.189108   -0.950109
     52          6           0        8.994680   -0.179718   -0.086545
     53          6           0       10.169004   -0.573683   -0.871188
     54          6           0       10.063110   -2.034912   -1.331814
     55          6           0       11.506732   -0.487256    0.001279
     56          6           0       12.839372   -0.592444   -0.713780
     57          6           0       13.966439   -0.186717    0.187607
     58          6           0       15.397437   -0.090627   -0.520934
     59          6           0       15.728949   -1.535062   -0.882172
     60          6           0       16.427861    0.443599    0.410470
     61          6           0       17.794328    0.660174   -0.203557
     62          6           0       18.821981    1.355331    0.662687
     63          6           0       20.202592    1.333893    0.162736
     64          6           0       20.279570    2.163473   -1.116454
     65          6           0       21.061854    2.029292    1.210649
     66          1           0       -4.091513    3.532726    1.757619
     67          1           0      -10.189528    3.810080   -0.379327
     68          1           0      -10.189050   -2.540320   -1.162063
     69          1           0       -2.832144   -1.055284    1.952545
     70          1           0       -2.279382    1.768865    1.321690
     71          1           0       -2.120917    0.855196    3.663078
     72          1           0       -3.286202    2.202611    3.867726
     73          1           0       -3.684438    0.684313    3.728981
     74          1           0       -1.973557   -1.531789   -0.358866
     75          1           0       -2.157541    0.164276   -0.687936
     76          1           0       -0.346861    0.812988    0.784702
     77          1           0       -0.345298   -0.811028    1.396234
     78          1           0       -6.156588    6.957515    0.982134
     79          1           0       -5.588570    5.868616    2.400748
     80          1           0       -4.456093    5.633697    1.174753
     81          1           0       -9.485571    6.009610   -0.386848
     82          1           0       -8.938482    8.214244    0.754324
     83          1           0       -7.528310    7.442569    1.322695
     84          1           0      -12.150139    3.124876   -2.591536
     85          1           0      -13.190444    1.851044   -1.756037
     86          1           0      -12.687618    3.091826   -0.726573
     87          1           0      -12.404675   -1.832948   -1.286859
     88          1           0      -13.402244   -0.488246   -1.442046
     89          1           0      -13.123747   -1.937522   -3.218261
     90          1           0      -12.475214   -0.175353   -4.010275
     91          1           0      -11.441754   -1.639512   -3.567502
     92          1           0       -8.649403   -4.992850   -1.922193
     93          1           0       -8.050062   -5.778032   -0.263337
     94          1           0       -9.786756   -4.496253   -0.601043
     95          1           0       -3.331958   -3.419760   -0.121692
     96          1           0       -1.520025   -4.499877    3.455926
     97          1           0       -3.003981   -5.552091    3.777988
     98          1           0       -1.662962   -6.172304    2.587713
     99          1           0        2.869187   -1.915048   -1.334917
    100          1           0        2.757975   -0.260522   -1.964548
    101          1           0        4.461785   -1.060207    0.527659
    102          1           0        3.986528    1.065941   -2.550714
    103          1           0        5.256991    2.188202   -1.839522
    104          1           0        5.825520    1.118723   -3.081635
    105          1           0        6.718591    1.565512   -0.003288
    106          1           0        6.255410   -0.116625    0.779807
    107          1           0        7.450956   -1.182375   -1.226375
    108          1           0        7.754675    0.392823   -1.848922
    109          1           0        8.998788    0.786879    0.181387
    110          1           0        8.867183   -0.806791    0.745957
    111          1           0       10.297564   -0.119449   -1.805826
    112          1           0        9.180433   -2.432642   -1.908109
    113          1           0       10.991691   -2.282014   -1.989065
    114          1           0        9.890690   -2.638293   -0.335785
    115          1           0       11.521664    0.566427    0.268182
    116          1           0       11.410209   -1.251207    0.707109
    117          1           0       12.790382   -1.538482   -1.264086
    118          1           0       12.834267    0.254971   -1.550570
    119          1           0       13.757831    0.600375    0.891316
    120          1           0       14.045404   -1.187899    0.912436
    121          1           0       15.243095    0.405210   -1.447274
    122          1           0       15.862049   -2.310687    0.029271
    123          1           0       15.097215   -2.310206   -1.578773
    124          1           0       16.749208   -1.808891   -1.212360
    125          1           0       16.014947    1.339542    0.786411
    126          1           0       16.413995   -0.180603    1.264658
    127          1           0       18.235011   -0.290714   -0.417909
    128          1           0       17.533720    1.058245   -1.239722
    129          1           0       18.330006    2.291628    0.992206
    130          1           0       18.552500    0.996019    1.640247
    131          1           0       20.386392    0.215950   -0.041337
    132          1           0       20.051131    3.264074   -0.722036
    133          1           0       21.266041    2.183546   -1.606672
    134          1           0       19.587907    1.809712   -1.964934
    135          1           0       21.103101    1.450483    2.092333
    136          1           0       22.137699    2.013340    0.861791
    137          1           0       20.661103    3.015179    1.213986
 ---------------------------------------------------------------------

 SCF Done:  E(RCAM-B3LYP) =  -2932.65036497     A.U. after   17 cycles

 Excitation energies and oscillator strengths:

 Excited State   1:      Singlet-A      2.0815 eV  595.64 nm  f=0.2706  <S**2>=0.000
     240 -> 243        0.22446
     241 -> 242        0.66434
 This state for optimization and/or second-order correction.
 Total Energy, E(TD-HF/TD-KS) =  -2932.57387034
 Copying the excited state density for this state as the 1-particle RhoCI density.

 The electronic state is 1-A.
 Alpha  occ. eigenvalues --  -46.84081 -19.26476 -19.25042 -19.22364 -19.21034
 Alpha  occ. eigenvalues --  -19.20320 -14.41153 -14.40064 -14.39724 -14.39046
 Alpha  occ. eigenvalues --  -10.39636 -10.38993 -10.35347 -10.32675 -10.31316
 Alpha  occ. eigenvalues --  -10.31144 -10.30331 -10.30230 -10.30092 -10.29327
 Alpha  occ. eigenvalues --  -10.28478 -10.28471 -10.28462 -10.28410 -10.28401
 Alpha  occ. eigenvalues --  -10.28267 -10.28233 -10.28144 -10.28139 -10.28077
 Alpha  occ. eigenvalues --  -10.27876 -10.27196 -10.27137 -10.27130 -10.27092
 Alpha  occ. eigenvalues --  -10.26972 -10.26970 -10.26858 -10.26817 -10.26799
 Alpha  occ. eigenvalues --  -10.26762 -10.26759 -10.26708 -10.26372 -10.26209
 Alpha  occ. eigenvalues --  -10.26186 -10.26106 -10.26076 -10.26066 -10.25947
 Alpha  occ. eigenvalues --  -10.25837 -10.25780 -10.25717 -10.25444 -10.25290
 Alpha  occ. eigenvalues --  -10.24998 -10.24997 -10.24370 -10.24268 -10.24200
 Alpha  occ. eigenvalues --  -10.24114 -10.24005 -10.24000 -10.23804 -10.23636
 Alpha  occ. eigenvalues --   -3.13172  -1.87879  -1.87442  -1.87324  -1.18956
 Alpha  occ. eigenvalues --   -1.17144  -1.14357  -1.09657  -1.08434  -1.05784
 Alpha  occ. eigenvalues --   -1.04193  -1.01767  -1.01213  -0.91995  -0.91594
 Alpha  occ. eigenvalues --   -0.91099  -0.90869  -0.90385  -0.89960  -0.89081
 Alpha  occ. eigenvalues --   -0.88708  -0.87852  -0.86999  -0.86616  -0.86389
 Alpha  occ. eigenvalues --   -0.85429  -0.84049  -0.83318  -0.82881  -0.82173
 Alpha  occ. eigenvalues --   -0.81587  -0.81368  -0.80519  -0.80029  -0.78441
 Alpha  occ. eigenvalues --   -0.77804  -0.76717  -0.76355  -0.75625  -0.75334
 Alpha  occ. eigenvalues --   -0.74938  -0.74012  -0.73768  -0.72324  -0.71676
 Alpha  occ. eigenvalues --   -0.70981  -0.70256  -0.69207  -0.68695  -0.68540
 Alpha  occ. eigenvalues --   -0.67658  -0.66655  -0.66015  -0.64893  -0.64615
 Alpha  occ. eigenvalues --   -0.64200  -0.64044  -0.63568  -0.63249  -0.63105
 Alpha  occ. eigenvalues --   -0.62130  -0.60596  -0.60530  -0.59590  -0.58999
 Alpha  occ. eigenvalues --   -0.58549  -0.58087  -0.57849  -0.57242  -0.56681
 Alpha  occ. eigenvalues --   -0.56455  -0.55932  -0.55878  -0.55472  -0.55129
 Alpha  occ. eigenvalues --   -0.54801  -0.54521  -0.54352  -0.54065  -0.53572
 Alpha  occ. eigenvalues --   -0.53011  -0.52876  -0.52315  -0.52136  -0.51568
 Alpha  occ. eigenvalues --   -0.51419  -0.51339  -0.50824  -0.50575  -0.50539
 Alpha  occ. eigenvalues --   -0.50244  -0.50221  -0.49889  -0.49637  -0.49518
 Alpha  occ. eigenvalues --   -0.49342  -0.49014  -0.48949  -0.48605  -0.48417
 Alpha  occ. eigenvalues --   -0.48285  -0.47956  -0.47780  -0.47529  -0.47067
 Alpha  occ. eigenvalues --   -0.46980  -0.46715  -0.46309  -0.46056  -0.45930
 Alpha  occ. eigenvalues --   -0.45725  -0.45580  -0.45368  -0.45105  -0.44805
 Alpha  occ. eigenvalues --   -0.44680  -0.44421  -0.44379  -0.44172  -0.44057
 Alpha  occ. eigenvalues --   -0.44005  -0.43382  -0.43321  -0.43139  -0.43047
 Alpha  occ. eigenvalues --   -0.42918  -0.42730  -0.42543  -0.42251  -0.42237
 Alpha  occ. eigenvalues --   -0.42144  -0.41666  -0.41330  -0.41312  -0.41197
 Alpha  occ. eigenvalues --   -0.41148  -0.41013  -0.40801  -0.40361  -0.40093
 Alpha  occ. eigenvalues --   -0.40069  -0.39931  -0.39845  -0.39293  -0.39051
 Alpha  occ. eigenvalues --   -0.38860  -0.38666  -0.38557  -0.38080  -0.38072
 Alpha  occ. eigenvalues --   -0.37689  -0.37544  -0.37398  -0.36532  -0.36449
 Alpha  occ. eigenvalues --   -0.36399  -0.36245  -0.36025  -0.35854  -0.35823
 Alpha  occ. eigenvalues --   -0.35204  -0.34803  -0.34722  -0.34332  -0.33615
 Alpha  occ. eigenvalues --   -0.33435  -0.32680  -0.31581  -0.30837  -0.30170
 Alpha  occ. eigenvalues --   -0.29687  -0.28425  -0.27943  -0.26968  -0.23341
 Alpha  occ. eigenvalues --   -0.20668
 Alpha virt. eigenvalues --   -0.05802  -0.02541   0.02228   0.03541   0.04091
 Alpha virt. eigenvalues --    0.05618   0.06230   0.06579   0.06804   0.07559
 Alpha virt. eigenvalues --    0.08084   0.10616   0.11299   0.11397   0.11713

 Mulliken charges:
               1
     1  Mg   0.819592
     2  C    0.060542
     3  C   -0.237885
     4  C   -0.172843
     5  C   -0.126610
     6  N   -0.642002
     7  C    0.221963
     8  C   -0.098629
     9  C   -0.138027
    10  C    0.365588
    11  C   -0.300722
    12  C   -0.198156
    13  C   -0.247561
    14  C    0.600653
    15  O   -0.429913
    16  O   -0.500496
    17  N   -0.691380
    18  C    0.344418
    19  C    0.029793
    20  C    0.075176
    21  C    0.241242
    22  C   -0.385804
    23  C   -0.082694
    24  C   -0.257196
    25  N   -0.710707
    26  C    0.299346
    27  C    0.014430
    28  C    0.095124
    29  C    0.260524
    30  C   -0.390433
    31  C   -0.281538
    32  C   -0.296614
    33  N   -0.710441
    34  C    0.271659
    35  C   -0.023452
    36  C    0.010827
    37  C    0.312569
    38  C   -0.363749
    39  C    0.376755
    40  O   -0.417503
    41  C   -0.315885
    42  C    0.600218
    43  O   -0.496027
    44  O   -0.439324
    45  C   -0.087533
    46  C    0.034307
    47  C   -0.155855
    48  C    0.133747
    49  C   -0.353232
    50  C   -0.236451
    51  C   -0.194365
    52  C   -0.147715
    53  C   -0.078709
    54  C   -0.310675
    55  C   -0.160401
    56  C   -0.176413
    57  C   -0.166607
    58  C   -0.057752
    59  C   -0.315162
    60  C   -0.180889
    61  C   -0.173149
    62  C   -0.159729
    63  C   -0.078348
    64  C   -0.285172
    65  C   -0.292734
    66  H    0.072957
    67  H    0.106186
    68  H    0.075772
    69  H    0.111531
    70  H    0.089989
    71  H    0.104211
    72  H    0.085135
    73  H    0.138045
    74  H    0.101622
    75  H    0.125531
    76  H    0.142223
    77  H    0.142129
    78  H    0.104088
    79  H    0.125102
    80  H    0.122150
    81  H    0.096569
    82  H    0.118887
    83  H    0.099037
    84  H    0.132607
    85  H    0.089964
    86  H    0.100991
    87  H    0.102641
    88  H    0.114890
    89  H    0.076541
    90  H    0.097097
    91  H    0.119554
    92  H    0.139550
    93  H    0.141121
    94  H    0.087521
    95  H    0.162657
    96  H    0.142088
    97  H    0.151849
    98  H    0.129435
    99  H    0.109454
   100  H    0.114805
   101  H    0.087200
   102  H    0.118455
   103  H    0.129216
   104  H    0.100550
   105  H    0.080490
   106  H    0.095268
   107  H    0.106055
   108  H    0.093190
   109  H    0.098099
   110  H    0.094055
   111  H    0.089874
   112  H    0.098133
   113  H    0.090939
   114  H    0.075675
   115  H    0.091018
   116  H    0.097416
   117  H    0.103873
   118  H    0.058982
   119  H    0.094765
   120  H    0.060821
   121  H    0.099384
   122  H    0.072525
   123  H    0.085603
   124  H    0.099562
   125  H    0.090133
   126  H    0.099701
   127  H    0.094752
   128  H    0.082021
   129  H    0.077283
   130  H    0.091494
   131  H    0.080579
   132  H    0.080979
   133  H    0.100237
   134  H    0.098851
   135  H    0.109189
   136  H    0.088679
   137  H    0.109028
 Sum of Mulliken charges =   0.00000

 Dipole moment (field-independent basis, Debye):
    X=              1.7513    Y=              3.3367    Z=              1.0684  Tot=              3.9169
 Quadrupole moment (field-independent basis, Debye-Ang):
   XX=           -349.0779   YY=           -385.8314   ZZ=           -396.7603
   XY=            -18.4372   XZ=              7.9353   YZ=             -1.5427

 Normal termination of Gaussian 09 at Sun Jul  7 01:13:48 2019.
