 Gaussian 16, Revision A.03,
 Gaussian 16:  ES64L-G16RevA.03 25-Dec-2016

 ----------------------------------------------------------------------
 # td=(NStates=1) iop(3/107=0140000000,3/108=0140000000) CAM-B3LYP/6-31
 G(d,p)
 ----------------------------------------------------------------------

 --
 TD
 --
 Symbolic Z-matrix:
 Charge =  0 Multiplicity = 1

                         Standard orientation:
 ---------------------------------------------------------------------
 Center     Atomic      Atomic             Coordinates (Angstroms)
 Number     Number       Type             X           Y           Z
 ---------------------------------------------------------------------
      1         12           0       -7.102647    0.600177    0.061258
      2          6           0       -4.876947   -1.972685    0.565479
      3          6           0       -4.817048    2.730298    1.066162
      4          6           0       -9.446410    3.087366   -0.497093
      5          6           0       -9.548160   -1.795356   -1.102518
      6          7           0       -5.198477    0.439528    0.779232
      7          6           0       -4.424488   -0.693700    0.842652
      8          6           0       -2.982584   -0.469301    1.400775
      9          6           0       -3.086183    1.077371    1.748206
     10          6           0       -4.417425    1.453270    1.195109
     11          6           0       -2.907139    1.289449    3.247716
     12          6           0       -1.985575   -0.617590    0.229891
     13          6           0       -0.472498   -0.408380    0.660021
     14          6           0        0.445275   -0.489875   -0.563335
     15          8           0        0.252788   -0.996552   -1.691502
     16          8           0        1.736259   -0.325894   -0.242073
     17          7           0       -7.155766    2.699957    0.283728
     18          6           0       -6.103372    3.372862    0.754778
     19          6           0       -6.428595    4.757838    0.806111
     20          6           0       -7.701910    4.838045    0.453455
     21          6           0       -8.273927    3.561738    0.046376
     22          6           0       -5.516124    5.885862    1.341068
     23          6           0       -8.510806    6.078875    0.216844
     24          6           0       -8.302204    7.306895    0.680595
     25          7           0       -9.050427    0.690705   -0.681570
     26          6           0       -9.808346    1.763672   -0.749076
     27          6           0      -11.254806    1.412041   -1.149187
     28          6           0      -11.225917    0.099142   -1.324430
     29          6           0       -9.902791   -0.370746   -1.006935
     30          6           0      -12.321239    2.429563   -1.421049
     31          6           0      -12.460033   -0.703300   -1.724259
     32          6           0      -12.412661   -1.211677   -3.127787
     33          7           0       -7.196844   -1.413965   -0.231337
     34          6           0       -8.267851   -2.290458   -0.640039
     35          6           0       -7.871714   -3.669373   -0.484944
     36          6           0       -6.536358   -3.610516   -0.198097
     37          6           0       -6.193675   -2.258981    0.000429
     38          6           0       -8.611450   -4.833765   -1.004122
     39          6           0       -5.346104   -4.431351    0.216014
     40          8           0       -5.230194   -5.680250    0.236799
     41          6           0       -4.192137   -3.366285    0.639825
     42          6           0       -3.647556   -3.657493    2.023625
     43          8           0       -3.787816   -3.101035    3.032382
     44          8           0       -2.789013   -4.680513    1.882329
     45          6           0       -2.184879   -5.103067    3.082610
     46          6           0        2.766048   -0.429720   -1.257626
     47          6           0        4.035734   -0.306427   -0.473541
     48          6           0        5.171491    0.233800   -1.046822
     49          6           0        5.064719    1.060663   -2.379352
     50          6           0        6.450011    0.426839   -0.273911
     51          6           0        7.646281   -0.087399   -0.950174
     52          6           0        8.948079   -0.069418   -0.183765
     53          6           0       10.196387   -0.503230   -0.861698
     54          6           0       10.137673   -1.933958   -1.273408
     55          6           0       11.533287   -0.311597   -0.008194
     56          6           0       12.791718   -0.438399   -0.708794
     57          6           0       14.044864   -0.168343    0.311389
     58          6           0       15.416862   -0.204282   -0.447272
     59          6           0       15.693740   -1.639357   -1.040254
     60          6           0       16.554617    0.296904    0.455414
     61          6           0       17.804648    0.504064   -0.206649
     62          6           0       18.950178    1.184367    0.730128
     63          6           0       20.331752    1.287709    0.201800
     64          6           0       20.476627    2.153667   -1.072726
     65          6           0       21.217539    1.865333    1.298908
     66          1           0       -3.969320    3.478551    1.509768
     67          1           0      -10.169462    3.922762   -0.672509
     68          1           0      -10.188962   -2.536268   -1.388481
     69          1           0       -2.728384   -1.207237    2.175094
     70          1           0       -2.415881    1.603715    1.122922
     71          1           0       -1.956435    0.977704    3.486953
     72          1           0       -3.090366    2.235427    3.715882
     73          1           0       -3.706398    0.782209    3.857911
     74          1           0       -2.075256   -1.526487   -0.284380
     75          1           0       -1.994261    0.124545   -0.504940
     76          1           0       -0.143410    0.588796    1.132869
     77          1           0       -0.181590   -1.164092    1.501625
     78          1           0       -5.853626    6.772711    0.759356
     79          1           0       -5.672073    6.175642    2.308262
     80          1           0       -4.419773    5.744844    1.112715
     81          1           0       -9.219632    5.978042   -0.736812
     82          1           0       -8.892069    8.163181    0.509835
     83          1           0       -7.766126    7.639182    1.486165
     84          1           0      -12.139727    3.268501   -2.305781
     85          1           0      -13.306827    1.891125   -1.928558
     86          1           0      -12.765468    2.983562   -0.585844
     87          1           0      -12.411988   -1.433475   -0.767892
     88          1           0      -13.455494   -0.261110   -1.515691
     89          1           0      -13.140584   -1.968003   -3.503416
     90          1           0      -12.185296   -0.343352   -3.917962
     91          1           0      -11.464101   -1.726587   -3.159867
     92          1           0       -8.808275   -4.928592   -1.930432
     93          1           0       -8.084257   -5.837719   -0.674554
     94          1           0       -9.607033   -4.848692   -0.348645
     95          1           0       -3.276072   -3.592194    0.081017
     96          1           0       -1.599940   -4.385794    3.463086
     97          1           0       -2.948925   -5.296872    3.854988
     98          1           0       -1.518619   -6.008530    2.899417
     99          1           0        2.795841   -1.489377   -1.683862
    100          1           0        2.517687    0.277251   -2.053246
    101          1           0        4.084917   -0.913060    0.464372
    102          1           0        4.159313    1.005743   -2.789111
    103          1           0        5.084304    2.189589   -2.131182
    104          1           0        6.149035    0.569179   -2.821087
    105          1           0        6.781642    1.615932   -0.287647
    106          1           0        6.231562   -0.153230    0.519263
    107          1           0        7.521338   -1.173359   -1.250486
    108          1           0        7.670061    0.412695   -1.889667
    109          1           0        8.950558    0.993652    0.188094
    110          1           0        8.822289   -0.799201    0.725910
    111          1           0       10.232602   -0.025247   -1.831688
    112          1           0        9.178679   -2.146815   -1.974260
    113          1           0       10.852099   -2.265581   -2.091756
    114          1           0       10.184450   -2.719726   -0.572863
    115          1           0       11.214519    0.652145    0.494434
    116          1           0       11.663788   -1.006615    0.868288
    117          1           0       12.683850   -1.422600   -1.045476
    118          1           0       12.959935   -0.030989   -1.588387
    119          1           0       13.941288    0.678480    0.660118
    120          1           0       14.123166   -0.787529    1.123810
    121          1           0       15.239026    0.510997   -1.392946
    122          1           0       15.712709   -2.486426   -0.311334
    123          1           0       14.915260   -2.000808   -1.747574
    124          1           0       16.652783   -1.729811   -1.638128
    125          1           0       16.425852    1.345048    0.807944
    126          1           0       16.694619   -0.184776    1.528801
    127          1           0       18.390070   -0.392935   -0.521364
    128          1           0       17.660839    0.987721   -1.043686
    129          1           0       18.526228    2.282549    0.871253
    130          1           0       19.010942    0.750384    1.660998
    131          1           0       20.635818    0.472681   -0.031824
    132          1           0       20.095174    3.016253   -0.861080
    133          1           0       21.446109    2.196202   -1.491735
    134          1           0       19.726272    1.919091   -1.980504
    135          1           0       21.206030    1.246361    2.135888
    136          1           0       22.208524    2.003977    1.005803
    137          1           0       20.960928    2.825293    1.464936
 ---------------------------------------------------------------------

 SCF Done:  E(RCAM-B3LYP) =  -2933.43763959     A.U. after   15 cycles

 Excitation energies and oscillator strengths:

 Excited State   1:      Singlet-A      2.0461 eV  605.94 nm  f=0.2835  <S**2>=0.000
     240 -> 243       -0.22869
     241 -> 242        0.65974
 This state for optimization and/or second-order correction.
 Total Energy, E(TD-HF/TD-DFT) =  -2933.36244534
 Copying the excited state density for this state as the 1-particle RhoCI density.

 The electronic state is 1-A.
 Alpha  occ. eigenvalues --  -46.80443 -19.21234 -19.21221 -19.16952 -19.16329
 Alpha  occ. eigenvalues --  -19.15890 -14.37486 -14.36489 -14.35424 -14.34987
 Alpha  occ. eigenvalues --  -10.34588 -10.33760 -10.31361 -10.27898 -10.26391
 Alpha  occ. eigenvalues --  -10.25792 -10.25776 -10.25691 -10.25601 -10.25390
 Alpha  occ. eigenvalues --  -10.25219 -10.25177 -10.25060 -10.24450 -10.24339
 Alpha  occ. eigenvalues --  -10.24125 -10.23987 -10.23948 -10.23707 -10.23514
 Alpha  occ. eigenvalues --  -10.23400 -10.23354 -10.23239 -10.23150 -10.23129
 Alpha  occ. eigenvalues --  -10.22699 -10.22678 -10.22558 -10.22272 -10.22251
 Alpha  occ. eigenvalues --  -10.22152 -10.22123 -10.21990 -10.21834 -10.21753
 Alpha  occ. eigenvalues --  -10.21696 -10.21649 -10.21642 -10.21621 -10.21614
 Alpha  occ. eigenvalues --  -10.21025 -10.20983 -10.20953 -10.20942 -10.20658
 Alpha  occ. eigenvalues --  -10.20628 -10.20624 -10.20468 -10.20359 -10.19087
 Alpha  occ. eigenvalues --  -10.18973 -10.18866 -10.18846 -10.18709 -10.17722
 Alpha  occ. eigenvalues --   -3.08971  -1.83922  -1.83452  -1.83363  -1.15110
 Alpha  occ. eigenvalues --   -1.12566  -1.06277  -1.03793  -1.01575  -0.99687
 Alpha  occ. eigenvalues --   -0.99137  -0.98174  -0.97689  -0.86851  -0.86145
 Alpha  occ. eigenvalues --   -0.85700  -0.85217  -0.84943  -0.84600  -0.83736
 Alpha  occ. eigenvalues --   -0.83610  -0.83236  -0.82801  -0.82206  -0.81616
 Alpha  occ. eigenvalues --   -0.80442  -0.79767  -0.78954  -0.78478  -0.77942
 Alpha  occ. eigenvalues --   -0.76913  -0.76556  -0.75877  -0.75264  -0.73616
 Alpha  occ. eigenvalues --   -0.73405  -0.72549  -0.72070  -0.71623  -0.71398
 Alpha  occ. eigenvalues --   -0.70744  -0.70403  -0.70352  -0.69444  -0.68370
 Alpha  occ. eigenvalues --   -0.67640  -0.66298  -0.65344  -0.65070  -0.64156
 Alpha  occ. eigenvalues --   -0.63376  -0.62909  -0.62036  -0.61409  -0.60938
 Alpha  occ. eigenvalues --   -0.60601  -0.60142  -0.59379  -0.58790  -0.58396
 Alpha  occ. eigenvalues --   -0.58180  -0.56608  -0.56236  -0.55580  -0.55274
 Alpha  occ. eigenvalues --   -0.54728  -0.54384  -0.54126  -0.53087  -0.52986
 Alpha  occ. eigenvalues --   -0.52594  -0.52004  -0.51819  -0.51395  -0.51195
 Alpha  occ. eigenvalues --   -0.50828  -0.50602  -0.50297  -0.50188  -0.49244
 Alpha  occ. eigenvalues --   -0.49054  -0.48709  -0.48174  -0.48048  -0.48012
 Alpha  occ. eigenvalues --   -0.47714  -0.47586  -0.47510  -0.47235  -0.46978
 Alpha  occ. eigenvalues --   -0.46785  -0.46541  -0.46358  -0.46244  -0.45902
 Alpha  occ. eigenvalues --   -0.45665  -0.45423  -0.45335  -0.45040  -0.45012
 Alpha  occ. eigenvalues --   -0.44945  -0.44508  -0.44395  -0.44153  -0.43606
 Alpha  occ. eigenvalues --   -0.43448  -0.43289  -0.42998  -0.42807  -0.42644
 Alpha  occ. eigenvalues --   -0.42359  -0.42178  -0.42004  -0.41888  -0.41602
 Alpha  occ. eigenvalues --   -0.41493  -0.41477  -0.41220  -0.41195  -0.40705
 Alpha  occ. eigenvalues --   -0.40631  -0.40571  -0.40351  -0.40040  -0.39954
 Alpha  occ. eigenvalues --   -0.39785  -0.39520  -0.39367  -0.39149  -0.39058
 Alpha  occ. eigenvalues --   -0.38893  -0.38731  -0.38592  -0.38477  -0.38272
 Alpha  occ. eigenvalues --   -0.37920  -0.37733  -0.37677  -0.37345  -0.37266
 Alpha  occ. eigenvalues --   -0.36785  -0.36690  -0.36365  -0.36008  -0.35768
 Alpha  occ. eigenvalues --   -0.35513  -0.35481  -0.35142  -0.34960  -0.34723
 Alpha  occ. eigenvalues --   -0.34474  -0.34400  -0.34142  -0.33812  -0.33542
 Alpha  occ. eigenvalues --   -0.33079  -0.32968  -0.32965  -0.32845  -0.32745
 Alpha  occ. eigenvalues --   -0.32418  -0.32026  -0.31035  -0.30873  -0.30656
 Alpha  occ. eigenvalues --   -0.29999  -0.29564  -0.29232  -0.28697  -0.27673
 Alpha  occ. eigenvalues --   -0.26875  -0.26773  -0.26018  -0.25773  -0.21702
 Alpha  occ. eigenvalues --   -0.20338
 Alpha virt. eigenvalues --   -0.07433  -0.03730   0.00239   0.02126   0.02760
 Alpha virt. eigenvalues --    0.03391   0.04442   0.04772   0.05261   0.05516
 Alpha virt. eigenvalues --    0.06316   0.08943   0.09288   0.09397   0.09765

 Mulliken charges:
               1
     1  Mg   0.812854
     2  C    0.068044
     3  C   -0.221390
     4  C   -0.172926
     5  C   -0.144128
     6  N   -0.646560
     7  C    0.291787
     8  C   -0.159150
     9  C   -0.131803
    10  C    0.372420
    11  C   -0.313670
    12  C   -0.174421
    13  C   -0.276207
    14  C    0.576801
    15  O   -0.487040
    16  O   -0.465991
    17  N   -0.716602
    18  C    0.332578
    19  C    0.033954
    20  C   -0.006413
    21  C    0.302895
    22  C   -0.375419
    23  C   -0.078108
    24  C   -0.254013
    25  N   -0.661892
    26  C    0.309610
    27  C    0.065904
    28  C    0.028595
    29  C    0.258110
    30  C   -0.390119
    31  C   -0.221882
    32  C   -0.312717
    33  N   -0.709156
    34  C    0.230895
    35  C    0.007251
    36  C    0.033679
    37  C    0.281804
    38  C   -0.369491
    39  C    0.377469
    40  O   -0.473101
    41  C   -0.338361
    42  C    0.617952
    43  O   -0.444747
    44  O   -0.440003
    45  C   -0.087448
    46  C    0.029608
    47  C   -0.138436
    48  C    0.082924
    49  C   -0.324911
    50  C   -0.171538
    51  C   -0.194548
    52  C   -0.151387
    53  C   -0.047924
    54  C   -0.321385
    55  C   -0.168887
    56  C   -0.178083
    57  C   -0.157001
    58  C   -0.066855
    59  C   -0.318514
    60  C   -0.164133
    61  C   -0.163921
    62  C   -0.175013
    63  C   -0.036024
    64  C   -0.317518
    65  C   -0.320035
    66  H    0.056182
    67  H    0.090704
    68  H    0.089902
    69  H    0.128702
    70  H    0.116329
    71  H    0.118481
    72  H    0.110644
    73  H    0.119419
    74  H    0.132365
    75  H    0.124598
    76  H    0.124878
    77  H    0.132971
    78  H    0.119404
    79  H    0.139399
    80  H    0.109397
    81  H    0.085519
    82  H    0.099591
    83  H    0.104018
    84  H    0.100956
    85  H    0.090456
    86  H    0.130961
    87  H    0.088134
    88  H    0.105923
    89  H    0.109749
    90  H    0.101950
    91  H    0.114006
    92  H    0.144232
    93  H    0.131927
    94  H    0.097384
    95  H    0.165335
    96  H    0.124278
    97  H    0.124690
    98  H    0.115733
    99  H    0.130871
   100  H    0.123856
   101  H    0.092590
   102  H    0.110629
   103  H    0.107588
   104  H    0.098457
   105  H    0.083566
   106  H    0.097931
   107  H    0.087115
   108  H    0.090942
   109  H    0.077494
   110  H    0.075295
   111  H    0.088689
   112  H    0.069216
   113  H    0.095291
   114  H    0.113118
   115  H    0.070094
   116  H    0.086532
   117  H    0.102341
   118  H    0.092730
   119  H    0.104386
   120  H    0.094227
   121  H    0.066195
   122  H    0.098355
   123  H    0.098173
   124  H    0.097564
   125  H    0.087676
   126  H    0.071940
   127  H    0.077199
   128  H    0.102044
   129  H    0.056711
   130  H    0.092694
   131  H    0.090109
   132  H    0.115643
   133  H    0.103754
   134  H    0.066058
   135  H    0.101824
   136  H    0.096135
   137  H    0.110488
 Sum of Mulliken charges =  -0.00000

 Dipole moment (field-independent basis, Debye):
    X=              1.1797    Y=              4.4961    Z=              1.1057  Tot=              4.7780
 Quadrupole moment (field-independent basis, Debye-Ang):
   XX=           -338.0424   YY=           -396.6586   ZZ=           -394.4207
   XY=            -22.9287   XZ=             10.1941   YZ=              0.1752

 Normal termination of Gaussian 16 at Sat Sep  7 23:29:35 2019.
