 Gaussian 09, Revision D.01,
 Gaussian 09:  ES64L-G09RevD.01 24-Apr-2013

 -------------------------------------
 # td=(NStates=1) CAM-B3LYP/6-31G(d,p)
 -------------------------------------

 --
 TD
 --
 Symbolic Z-matrix:
 Charge =  0 Multiplicity = 1

                         Standard orientation:
 ---------------------------------------------------------------------
 Center     Atomic      Atomic             Coordinates (Angstroms)
 Number     Number       Type             X           Y           Z
 ---------------------------------------------------------------------
      1         12           0       -7.125728    0.615541    0.061016
      2          6           0       -4.867385   -1.899643    0.592782
      3          6           0       -4.785075    2.916371    1.151860
      4          6           0       -9.421608    3.046496   -0.351440
      5          6           0       -9.529455   -1.833257   -0.935273
      6          7           0       -5.103394    0.503949    0.760442
      7          6           0       -4.396934   -0.692845    0.827005
      8          6           0       -3.024450   -0.398643    1.314293
      9          6           0       -2.997846    1.082288    1.681140
     10          6           0       -4.397394    1.540976    1.215229
     11          6           0       -2.918859    1.307323    3.229060
     12          6           0       -1.947808   -0.527337    0.133598
     13          6           0       -0.517624   -0.275278    0.603649
     14          6           0        0.517243   -0.536813   -0.569861
     15          8           0        0.229013   -0.915358   -1.713552
     16          8           0        1.737442   -0.380046   -0.189490
     17          7           0       -7.183928    2.617392    0.315166
     18          6           0       -6.138128    3.263200    0.800518
     19          6           0       -6.433873    4.720536    0.737060
     20          6           0       -7.780122    4.834989    0.344585
     21          6           0       -8.181388    3.512388    0.088290
     22          6           0       -5.485179    5.927190    1.109400
     23          6           0       -8.536186    6.005629    0.067697
     24          6           0       -8.558449    7.222183    0.688780
     25          7           0       -9.120302    0.663383   -0.540889
     26          6           0       -9.890392    1.691734   -0.692723
     27          6           0      -11.272907    1.369993   -1.143903
     28          6           0      -11.219392    0.087760   -1.255397
     29          6           0       -9.863685   -0.513802   -0.936324
     30          6           0      -12.180331    2.411011   -1.535574
     31          6           0      -12.394899   -0.743968   -1.796062
     32          6           0      -12.267301   -1.111391   -3.246167
     33          7           0       -7.211803   -1.433334   -0.155662
     34          6           0       -8.212971   -2.245639   -0.635069
     35          6           0       -7.805573   -3.661464   -0.573042
     36          6           0       -6.505022   -3.588646   -0.156754
     37          6           0       -6.207891   -2.176197    0.161066
     38          6           0       -8.557121   -4.935525   -0.968323
     39          6           0       -5.271456   -4.375836    0.245193
     40          8           0       -5.102040   -5.569880    0.315231
     41          6           0       -4.086863   -3.283297    0.601897
     42          6           0       -3.565202   -3.604452    1.984408
     43          8           0       -3.750174   -2.954634    2.978115
     44          8           0       -2.756099   -4.595984    1.910682
     45          6           0       -2.242572   -5.117798    3.157695
     46          6           0        2.788386   -0.582417   -1.193665
     47          6           0        4.094456   -0.465515   -0.520215
     48          6           0        5.141276    0.216383   -1.063181
     49          6           0        5.167883    0.927575   -2.362613
     50          6           0        6.416369    0.240750   -0.257905
     51          6           0        7.628250   -0.338757   -0.952196
     52          6           0        8.976400   -0.201513   -0.171547
     53          6           0       10.179928   -0.659550   -0.888685
     54          6           0       10.160363   -2.205250   -1.274835
     55          6           0       11.423494   -0.225734   -0.022614
     56          6           0       12.764428   -0.441698   -0.664339
     57          6           0       13.903230    0.016247    0.187113
     58          6           0       15.254178   -0.054330   -0.495013
     59          6           0       15.546209   -1.519594   -0.944636
     60          6           0       16.474791    0.478187    0.427257
     61          6           0       17.799089    0.471709   -0.168009
     62          6           0       18.870727    1.169044    0.709474
     63          6           0       20.373201    1.305884    0.210207
     64          6           0       20.395209    2.192552   -1.112608
     65          6           0       21.212347    1.937365    1.318124
     66          1           0       -4.343991    3.777440    1.669146
     67          1           0      -10.193779    3.646946   -0.411696
     68          1           0      -10.193228   -2.557536   -1.237782
     69          1           0       -2.758962   -0.902610    2.219981
     70          1           0       -2.172804    1.642447    1.116979
     71          1           0       -2.014068    1.010814    3.779105
     72          1           0       -3.043165    2.401600    3.372979
     73          1           0       -3.574041    0.789686    3.854557
     74          1           0       -2.083628   -1.599995   -0.286031
     75          1           0       -2.247603    0.054655   -0.623940
     76          1           0       -0.271422    0.714637    0.844515
     77          1           0       -0.058285   -0.919013    1.530421
     78          1           0       -5.918861    7.064432    0.867619
     79          1           0       -5.579700    5.867046    2.190663
     80          1           0       -4.490584    5.793734    0.942004
     81          1           0       -9.449015    5.643566   -0.508981
     82          1           0       -9.424070    8.111737    0.522219
     83          1           0       -7.642574    7.564245    1.325188
     84          1           0      -11.837525    2.838836   -2.484883
     85          1           0      -13.264644    1.945924   -1.408719
     86          1           0      -12.206121    3.343262   -0.676605
     87          1           0      -12.540237   -1.791881   -1.216398
     88          1           0      -13.297489   -0.211444   -1.755106
     89          1           0      -12.989215   -1.874596   -3.629255
     90          1           0      -12.419024   -0.173010   -4.004111
     91          1           0      -11.121888   -1.518963   -3.458388
     92          1           0       -8.803674   -4.821113   -2.148083
     93          1           0       -7.892663   -5.853052   -0.639534
     94          1           0       -9.626079   -5.101487   -0.547611
     95          1           0       -3.509857   -3.446195   -0.162737
     96          1           0       -1.756848   -4.300644    3.645940
     97          1           0       -2.931008   -5.571871    4.013122
     98          1           0       -1.530868   -5.920410    2.775859
     99          1           0        2.465103   -1.679788   -1.665479
    100          1           0        2.601886    0.043300   -1.883709
    101          1           0        4.268932   -0.799925    0.630292
    102          1           0        4.228995    0.936701   -2.738654
    103          1           0        5.586186    1.983070   -2.474144
    104          1           0        5.784987    0.356662   -3.153182
    105          1           0        6.521596    1.315323   -0.085442
    106          1           0        6.402984   -0.184953    0.769823
    107          1           0        7.250098   -1.293476   -1.104605
    108          1           0        7.928441    0.164635   -1.879717
    109          1           0        9.120360    0.758198    0.113014
    110          1           0        8.893789   -0.750332    0.705146
    111          1           0       10.198667   -0.133902   -1.923151
    112          1           0        9.466956   -2.377116   -2.258312
    113          1           0       11.184694   -2.530315   -1.509254
    114          1           0       10.052311   -2.746189   -0.322366
    115          1           0       11.398892    0.796143    0.636731
    116          1           0       11.484718   -1.060487    0.869223
    117          1           0       13.037530   -1.447526   -1.068551
    118          1           0       12.855050    0.286443   -1.526571
    119          1           0       13.852198    1.190645    0.370817
    120          1           0       13.970524   -0.475191    0.999837
    121          1           0       15.273508    0.495989   -1.526397
    122          1           0       15.607343   -2.163131   -0.011501
    123          1           0       14.628093   -1.675181   -1.573505
    124          1           0       16.542087   -1.594293   -1.398493
    125          1           0       16.104946    1.352329    0.730630
    126          1           0       16.271658   -0.116522    1.450423
    127          1           0       18.216749   -0.447252   -0.408834
    128          1           0       17.944338    0.990813   -1.100945
    129          1           0       18.449340    2.164665    0.885589
    130          1           0       18.934427    0.522727    1.525213
    131          1           0       20.817494    0.188258   -0.086714
    132          1           0       19.584800    2.967072   -1.022479
    133          1           0       21.510817    2.628700   -1.484287
    134          1           0       19.822791    1.421735   -1.726770
    135          1           0       20.908351    1.635874    2.459524
    136          1           0       22.392620    1.913266    1.046690
    137          1           0       20.845543    3.119417    1.279779
 ---------------------------------------------------------------------

 SCF Done:  E(RCAM-B3LYP) =  -2932.61673550     A.U. after   17 cycles

 Excitation energies and oscillator strengths:

 Excited State   1:      Singlet-A      2.1478 eV  577.26 nm  f=0.2853  <S**2>=0.000
     240 -> 242       -0.12980
     240 -> 243        0.19451
     241 -> 242        0.65289
     241 -> 243        0.10950
 This state for optimization and/or second-order correction.
 Total Energy, E(TD-HF/TD-KS) =  -2932.53780521
 Copying the excited state density for this state as the 1-particle RhoCI density.

 The electronic state is 1-A.
 Alpha  occ. eigenvalues --  -46.84988 -19.26680 -19.26269 -19.20427 -19.19678
 Alpha  occ. eigenvalues --  -19.19213 -14.41508 -14.40045 -14.39614 -14.39468
 Alpha  occ. eigenvalues --  -10.38352 -10.38243 -10.35316 -10.32318 -10.31887
 Alpha  occ. eigenvalues --  -10.31562 -10.30540 -10.29706 -10.29604 -10.29021
 Alpha  occ. eigenvalues --  -10.28989 -10.28794 -10.28616 -10.28414 -10.28331
 Alpha  occ. eigenvalues --  -10.28237 -10.28198 -10.28145 -10.28109 -10.28003
 Alpha  occ. eigenvalues --  -10.27937 -10.27920 -10.27905 -10.27581 -10.27558
 Alpha  occ. eigenvalues --  -10.27517 -10.27334 -10.27328 -10.27304 -10.27130
 Alpha  occ. eigenvalues --  -10.27086 -10.27066 -10.26784 -10.26609 -10.26470
 Alpha  occ. eigenvalues --  -10.26396 -10.26307 -10.26266 -10.26232 -10.26195
 Alpha  occ. eigenvalues --  -10.26171 -10.25847 -10.25601 -10.25579 -10.25476
 Alpha  occ. eigenvalues --  -10.25271 -10.25196 -10.25068 -10.24753 -10.24713
 Alpha  occ. eigenvalues --  -10.24663 -10.24594 -10.24304 -10.24242 -10.23411
 Alpha  occ. eigenvalues --   -3.13942  -1.88664  -1.88146  -1.88140  -1.20318
 Alpha  occ. eigenvalues --   -1.19230  -1.11156  -1.09230  -1.06940  -1.05384
 Alpha  occ. eigenvalues --   -1.04667  -1.03624  -1.03042  -0.92000  -0.91217
 Alpha  occ. eigenvalues --   -0.91184  -0.89818  -0.89636  -0.89472  -0.89140
 Alpha  occ. eigenvalues --   -0.88471  -0.88143  -0.87123  -0.86570  -0.85969
 Alpha  occ. eigenvalues --   -0.84893  -0.84377  -0.83757  -0.83319  -0.82280
 Alpha  occ. eigenvalues --   -0.81949  -0.81407  -0.80358  -0.79999  -0.78042
 Alpha  occ. eigenvalues --   -0.77514  -0.77114  -0.76846  -0.76088  -0.75006
 Alpha  occ. eigenvalues --   -0.74803  -0.74518  -0.74043  -0.73818  -0.72230
 Alpha  occ. eigenvalues --   -0.71309  -0.70478  -0.68928  -0.68215  -0.67648
 Alpha  occ. eigenvalues --   -0.67323  -0.67088  -0.65329  -0.65208  -0.64826
 Alpha  occ. eigenvalues --   -0.64094  -0.63927  -0.63150  -0.63000  -0.62011
 Alpha  occ. eigenvalues --   -0.60570  -0.60245  -0.60097  -0.59359  -0.59149
 Alpha  occ. eigenvalues --   -0.59008  -0.58359  -0.58100  -0.57049  -0.56548
 Alpha  occ. eigenvalues --   -0.55953  -0.55637  -0.55209  -0.55188  -0.54650
 Alpha  occ. eigenvalues --   -0.54394  -0.54295  -0.53757  -0.53594  -0.53408
 Alpha  occ. eigenvalues --   -0.52671  -0.52217  -0.52062  -0.51822  -0.51696
 Alpha  occ. eigenvalues --   -0.51476  -0.51058  -0.50804  -0.50689  -0.50430
 Alpha  occ. eigenvalues --   -0.50187  -0.50055  -0.49613  -0.49572  -0.49323
 Alpha  occ. eigenvalues --   -0.49056  -0.48917  -0.48622  -0.48574  -0.48190
 Alpha  occ. eigenvalues --   -0.47888  -0.47763  -0.47616  -0.47469  -0.47301
 Alpha  occ. eigenvalues --   -0.46945  -0.46575  -0.46302  -0.46190  -0.45857
 Alpha  occ. eigenvalues --   -0.45624  -0.45537  -0.45418  -0.45217  -0.44900
 Alpha  occ. eigenvalues --   -0.44798  -0.44568  -0.44406  -0.44206  -0.43932
 Alpha  occ. eigenvalues --   -0.43870  -0.43747  -0.43433  -0.43267  -0.43102
 Alpha  occ. eigenvalues --   -0.43061  -0.42929  -0.42681  -0.42566  -0.42396
 Alpha  occ. eigenvalues --   -0.42216  -0.42032  -0.41879  -0.41814  -0.41682
 Alpha  occ. eigenvalues --   -0.41240  -0.41218  -0.41039  -0.40505  -0.40181
 Alpha  occ. eigenvalues --   -0.39832  -0.39537  -0.39242  -0.39085  -0.38803
 Alpha  occ. eigenvalues --   -0.38663  -0.38439  -0.38433  -0.37725  -0.37550
 Alpha  occ. eigenvalues --   -0.37457  -0.37299  -0.36810  -0.36590  -0.36140
 Alpha  occ. eigenvalues --   -0.36114  -0.35925  -0.35683  -0.35631  -0.35401
 Alpha  occ. eigenvalues --   -0.35317  -0.35187  -0.34932  -0.33534  -0.33407
 Alpha  occ. eigenvalues --   -0.33061  -0.32364  -0.32134  -0.31113  -0.29962
 Alpha  occ. eigenvalues --   -0.29429  -0.29258  -0.28980  -0.27257  -0.23190
 Alpha  occ. eigenvalues --   -0.20881
 Alpha virt. eigenvalues --   -0.05994  -0.01930   0.02331   0.03959   0.05166
 Alpha virt. eigenvalues --    0.05704   0.06716   0.06981   0.07677   0.07934
 Alpha virt. eigenvalues --    0.08911   0.10626   0.11302   0.11565   0.11722

 Mulliken charges:
               1
     1  Mg   0.827042
     2  C    0.078003
     3  C   -0.187571
     4  C   -0.168190
     5  C   -0.118464
     6  N   -0.647270
     7  C    0.298510
     8  C   -0.163718
     9  C   -0.152167
    10  C    0.338244
    11  C   -0.327414
    12  C   -0.168673
    13  C   -0.258105
    14  C    0.581062
    15  O   -0.511377
    16  O   -0.453955
    17  N   -0.725053
    18  C    0.335942
    19  C   -0.034055
    20  C    0.050558
    21  C    0.323408
    22  C   -0.372480
    23  C   -0.069780
    24  C   -0.248165
    25  N   -0.674412
    26  C    0.289382
    27  C    0.097828
    28  C   -0.006478
    29  C    0.268282
    30  C   -0.375634
    31  C   -0.229218
    32  C   -0.288405
    33  N   -0.703676
    34  C    0.210160
    35  C    0.018671
    36  C   -0.016970
    37  C    0.292002
    38  C   -0.374033
    39  C    0.348656
    40  O   -0.448677
    41  C   -0.296209
    42  C    0.633470
    43  O   -0.488173
    44  O   -0.413594
    45  C   -0.092477
    46  C    0.032811
    47  C   -0.141140
    48  C    0.120189
    49  C   -0.366660
    50  C   -0.229245
    51  C   -0.180379
    52  C   -0.156412
    53  C   -0.059524
    54  C   -0.315188
    55  C   -0.174184
    56  C   -0.179481
    57  C   -0.146876
    58  C   -0.089771
    59  C   -0.300943
    60  C   -0.153386
    61  C   -0.192781
    62  C   -0.184432
    63  C   -0.052256
    64  C   -0.299831
    65  C   -0.271854
    66  H    0.085912
    67  H    0.045467
    68  H    0.097404
    69  H    0.134886
    70  H    0.104310
    71  H    0.103188
    72  H    0.099949
    73  H    0.135234
    74  H    0.106264
    75  H    0.128814
    76  H    0.138740
    77  H    0.118957
    78  H    0.106822
    79  H    0.137440
    80  H    0.131729
    81  H    0.085159
    82  H    0.100533
    83  H    0.093207
    84  H    0.145694
    85  H    0.108766
    86  H    0.090957
    87  H    0.084827
    88  H    0.106239
    89  H    0.107001
    90  H    0.081903
    91  H    0.082969
    92  H    0.109771
    93  H    0.144203
    94  H    0.113740
    95  H    0.162574
    96  H    0.136974
    97  H    0.125450
    98  H    0.125665
    99  H    0.118162
   100  H    0.129598
   101  H    0.098092
   102  H    0.120169
   103  H    0.119364
   104  H    0.119298
   105  H    0.093403
   106  H    0.093459
   107  H    0.109341
   108  H    0.087547
   109  H    0.099919
   110  H    0.092127
   111  H    0.068076
   112  H    0.101902
   113  H    0.105540
   114  H    0.105938
   115  H    0.088247
   116  H    0.058074
   117  H    0.103408
   118  H    0.086092
   119  H    0.070802
   120  H    0.099056
   121  H    0.066246
   122  H    0.085281
   123  H    0.096151
   124  H    0.102942
   125  H    0.099950
   126  H    0.064084
   127  H    0.103774
   128  H    0.093496
   129  H    0.092966
   130  H    0.103867
   131  H    0.058284
   132  H    0.103055
   133  H    0.091880
   134  H    0.102271
   135  H    0.088157
   136  H    0.091024
   137  H    0.072721
 Sum of Mulliken charges =   0.00000

 Dipole moment (field-independent basis, Debye):
    X=              2.0936    Y=              4.6228    Z=              0.7565  Tot=              5.1308
 Quadrupole moment (field-independent basis, Debye-Ang):
   XX=           -353.0734   YY=           -395.4021   ZZ=           -396.3653
   XY=            -19.8882   XZ=             10.3166   YZ=             -2.8495

 Normal termination of Gaussian 09 at Sat Jul  6 08:40:14 2019.
