 Gaussian 16, Revision A.03,
 Gaussian 16:  ES64L-G16RevA.03 25-Dec-2016

 ----------------------------------------------------------------------
 # td=(NStates=1) iop(3/107=0140000000,3/108=0140000000) CAM-B3LYP/6-31
 G(d,p)
 ----------------------------------------------------------------------

 --
 TD
 --
 Symbolic Z-matrix:
 Charge =  0 Multiplicity = 1

                         Standard orientation:
 ---------------------------------------------------------------------
 Center     Atomic      Atomic             Coordinates (Angstroms)
 Number     Number       Type             X           Y           Z
 ---------------------------------------------------------------------
      1         12           0       -7.120244    0.637482   -0.064731
      2          6           0       -4.877236   -1.973044    0.400488
      3          6           0       -4.812801    2.812552    1.060187
      4          6           0       -9.436959    3.148206   -0.364148
      5          6           0       -9.432503   -1.790754   -0.913857
      6          7           0       -5.107523    0.429656    0.717553
      7          6           0       -4.364495   -0.779540    0.745118
      8          6           0       -2.948967   -0.429891    1.146205
      9          6           0       -3.042036    1.038709    1.603937
     10          6           0       -4.405304    1.510857    1.065478
     11          6           0       -2.861578    1.151922    3.135860
     12          6           0       -1.875866   -0.588707    0.024901
     13          6           0       -0.457922   -0.534916    0.527043
     14          6           0        0.556352   -0.675226   -0.616896
     15          8           0        0.235739   -1.071449   -1.759117
     16          8           0        1.786756   -0.499254   -0.344635
     17          7           0       -7.119155    2.626974    0.192894
     18          6           0       -5.999535    3.442876    0.654556
     19          6           0       -6.351271    4.820241    0.674872
     20          6           0       -7.725500    4.909468    0.364604
     21          6           0       -8.150528    3.491736    0.012871
     22          6           0       -5.388032    5.918822    1.060786
     23          6           0       -8.488564    6.097029    0.169498
     24          6           0       -8.336495    7.314814    0.777925
     25          7           0       -9.030029    0.701370   -0.674347
     26          6           0       -9.946443    1.846217   -0.622637
     27          6           0      -11.253791    1.501839   -1.039707
     28          6           0      -11.258560    0.142641   -1.082287
     29          6           0       -9.846897   -0.402265   -0.887117
     30          6           0      -12.290116    2.499301   -1.160663
     31          6           0      -12.461528   -0.731712   -1.513024
     32          6           0      -12.378733   -1.081162   -3.061994
     33          7           0       -7.170631   -1.371791   -0.330175
     34          6           0       -8.215551   -2.194811   -0.633454
     35          6           0       -7.878221   -3.591941   -0.496601
     36          6           0       -6.570697   -3.537889   -0.119846
     37          6           0       -6.304722   -2.234166    0.001547
     38          6           0       -8.661846   -4.852180   -0.717454
     39          6           0       -5.449468   -4.393457    0.381708
     40          8           0       -5.397779   -5.566214    0.477170
     41          6           0       -4.290837   -3.409605    0.537191
     42          6           0       -3.541850   -3.623848    1.847732
     43          8           0       -3.823675   -3.080091    2.913989
     44          8           0       -2.775231   -4.684180    1.716443
     45          6           0       -2.314125   -5.213653    2.872886
     46          6           0        2.823978   -0.740376   -1.239850
     47          6           0        4.207016   -0.509775   -0.511885
     48          6           0        5.135298    0.321823   -0.894107
     49          6           0        5.130907    1.111904   -2.130571
     50          6           0        6.455498    0.360352   -0.165156
     51          6           0        7.622653   -0.046023   -1.033070
     52          6           0        8.851121   -0.181782   -0.210360
     53          6           0       10.172015   -0.544969   -0.893317
     54          6           0       10.159438   -1.996980   -1.515409
     55          6           0       11.448961   -0.365303   -0.059169
     56          6           0       12.774197   -0.637936   -0.797441
     57          6           0       13.974371   -0.262454    0.112193
     58          6           0       15.392977   -0.237516   -0.512432
     59          6           0       15.852846   -1.648526   -0.830705
     60          6           0       16.411614    0.423821    0.426235
     61          6           0       17.813476    0.477063   -0.120998
     62          6           0       18.781018    1.348883    0.819473
     63          6           0       20.208489    1.423241    0.383268
     64          6           0       20.348104    2.223701   -0.942296
     65          6           0       21.108665    2.012035    1.478828
     66          1           0       -4.104959    3.446129    1.695013
     67          1           0      -10.281352    4.005347   -0.354017
     68          1           0      -10.240824   -2.357156   -1.161280
     69          1           0       -2.601916   -1.042005    2.001362
     70          1           0       -2.094187    1.581020    1.176795
     71          1           0       -1.833173    0.781902    3.532685
     72          1           0       -2.890009    2.226981    3.440227
     73          1           0       -3.507651    0.599742    3.883622
     74          1           0       -1.991705   -1.534009   -0.528962
     75          1           0       -1.865735    0.276519   -0.607114
     76          1           0       -0.248546    0.203043    1.285207
     77          1           0       -0.136831   -1.337805    1.165190
     78          1           0       -5.818190    6.976968    0.702667
     79          1           0       -5.315524    6.093418    2.312575
     80          1           0       -4.285102    5.742079    0.904405
     81          1           0       -9.351493    6.085327   -0.573633
     82          1           0       -8.830975    8.055336    0.557354
     83          1           0       -7.647199    7.286745    1.707362
     84          1           0      -11.806970    3.534338   -1.835761
     85          1           0      -13.197427    2.262045   -1.528290
     86          1           0      -12.468736    2.848467   -0.000761
     87          1           0      -12.504201   -1.631054   -0.948122
     88          1           0      -13.428590   -0.236814   -1.164231
     89          1           0      -13.346315   -1.492099   -3.441429
     90          1           0      -12.348549    0.012128   -3.520785
     91          1           0      -11.417380   -1.715558   -3.174479
     92          1           0       -8.988096   -4.792422   -1.830996
     93          1           0       -7.947440   -5.563404   -0.564954
     94          1           0       -9.664518   -4.953815    0.001630
     95          1           0       -3.518053   -3.508605   -0.380108
     96          1           0       -1.904381   -4.432071    3.438777
     97          1           0       -3.063640   -5.668707    3.598533
     98          1           0       -1.772689   -6.121324    2.899983
     99          1           0        2.751518   -1.836129   -1.606970
    100          1           0        2.708712   -0.378296   -2.121967
    101          1           0        4.121547   -1.017152    0.402116
    102          1           0        4.305724    1.165304   -3.049010
    103          1           0        5.478411    2.228610   -1.887142
    104          1           0        6.162513    0.744925   -2.583951
    105          1           0        6.517141    1.305287    0.316869
    106          1           0        6.500779   -0.372905    0.814559
    107          1           0        7.379681   -1.054685   -1.386488
    108          1           0        7.777774    0.650539   -1.676281
    109          1           0        9.167269    0.804864    0.423159
    110          1           0        8.467358   -0.993086    0.493814
    111          1           0       10.307079    0.016478   -1.786946
    112          1           0        9.173244   -1.919620   -2.228058
    113          1           0       11.031051   -2.285356   -2.043435
    114          1           0       10.130357   -2.673994   -0.749623
    115          1           0       11.544247    0.783202    0.370234
    116          1           0       11.336919   -0.976178    0.748003
    117          1           0       12.844673   -1.645707   -1.085540
    118          1           0       12.846500   -0.146247   -1.896978
    119          1           0       14.039776    0.783399    0.534767
    120          1           0       13.978705   -0.868963    0.870801
    121          1           0       15.275804    0.337259   -1.414724
    122          1           0       16.076946   -2.212292    0.081700
    123          1           0       15.043595   -2.322765   -1.518027
    124          1           0       16.802119   -1.547384   -1.405856
    125          1           0       16.136525    1.378210    0.581893
    126          1           0       16.150835    0.086542    1.288928
    127          1           0       18.268422   -0.558597   -0.281391
    128          1           0       17.729283    1.046019   -1.147206
    129          1           0       18.091958    2.242361    1.214217
    130          1           0       18.694835    0.912512    1.760724
    131          1           0       20.657803    0.418207    0.224928
    132          1           0       20.208852    3.362916   -0.714804
    133          1           0       21.275255    2.387938   -1.372211
    134          1           0       19.981364    1.831880   -1.805195
    135          1           0       21.178946    1.451763    2.437727
    136          1           0       22.177373    2.290054    0.966677
    137          1           0       20.669176    2.968776    1.753092
 ---------------------------------------------------------------------

 SCF Done:  E(RCAM-B3LYP) =  -2933.42828150     A.U. after   15 cycles

 Excitation energies and oscillator strengths:

 Excited State   1:      Singlet-A      1.9532 eV  634.79 nm  f=0.2597  <S**2>=0.000
     240 -> 243       -0.19222
     241 -> 242        0.67579
 This state for optimization and/or second-order correction.
 Total Energy, E(TD-HF/TD-DFT) =  -2933.35650430
 Copying the excited state density for this state as the 1-particle RhoCI density.

 The electronic state is 1-A.
 Alpha  occ. eigenvalues --  -46.79220 -19.23535 -19.22584 -19.17325 -19.16852
 Alpha  occ. eigenvalues --  -19.14463 -14.36725 -14.35146 -14.35135 -14.35097
 Alpha  occ. eigenvalues --  -10.34926 -10.33991 -10.31129 -10.26560 -10.25884
 Alpha  occ. eigenvalues --  -10.25825 -10.25604 -10.25521 -10.25057 -10.25049
 Alpha  occ. eigenvalues --  -10.24916 -10.24483 -10.24441 -10.24231 -10.23858
 Alpha  occ. eigenvalues --  -10.23801 -10.23778 -10.23768 -10.23291 -10.23230
 Alpha  occ. eigenvalues --  -10.23181 -10.23100 -10.23032 -10.23029 -10.22968
 Alpha  occ. eigenvalues --  -10.22861 -10.22744 -10.22513 -10.22446 -10.22400
 Alpha  occ. eigenvalues --  -10.22347 -10.22267 -10.22257 -10.22222 -10.22153
 Alpha  occ. eigenvalues --  -10.22147 -10.22026 -10.21785 -10.21650 -10.21463
 Alpha  occ. eigenvalues --  -10.21412 -10.21340 -10.21267 -10.21251 -10.21094
 Alpha  occ. eigenvalues --  -10.21063 -10.21056 -10.20829 -10.20495 -10.20388
 Alpha  occ. eigenvalues --  -10.20347 -10.19882 -10.19507 -10.19345 -10.18163
 Alpha  occ. eigenvalues --   -3.07922  -1.82855  -1.82383  -1.82349  -1.16368
 Alpha  occ. eigenvalues --   -1.15881  -1.09331  -1.04756  -1.02713  -1.01703
 Alpha  occ. eigenvalues --   -0.97614  -0.96241  -0.94865  -0.87581  -0.87462
 Alpha  occ. eigenvalues --   -0.85870  -0.84961  -0.84519  -0.84399  -0.83533
 Alpha  occ. eigenvalues --   -0.83451  -0.83419  -0.82554  -0.81910  -0.81733
 Alpha  occ. eigenvalues --   -0.80440  -0.80009  -0.78945  -0.78510  -0.77703
 Alpha  occ. eigenvalues --   -0.77371  -0.76784  -0.75512  -0.75043  -0.73314
 Alpha  occ. eigenvalues --   -0.72233  -0.72117  -0.71928  -0.71229  -0.70984
 Alpha  occ. eigenvalues --   -0.70506  -0.70413  -0.70194  -0.69693  -0.68203
 Alpha  occ. eigenvalues --   -0.66633  -0.66317  -0.65417  -0.64575  -0.64271
 Alpha  occ. eigenvalues --   -0.63352  -0.63205  -0.61832  -0.61401  -0.61385
 Alpha  occ. eigenvalues --   -0.60640  -0.60033  -0.59821  -0.59446  -0.58757
 Alpha  occ. eigenvalues --   -0.58608  -0.56841  -0.56201  -0.55762  -0.55265
 Alpha  occ. eigenvalues --   -0.54952  -0.54199  -0.53899  -0.53342  -0.52684
 Alpha  occ. eigenvalues --   -0.52563  -0.52376  -0.51905  -0.51810  -0.51004
 Alpha  occ. eigenvalues --   -0.50831  -0.50416  -0.50243  -0.49672  -0.49502
 Alpha  occ. eigenvalues --   -0.49162  -0.49080  -0.48853  -0.48597  -0.48278
 Alpha  occ. eigenvalues --   -0.48041  -0.47936  -0.47348  -0.47217  -0.47100
 Alpha  occ. eigenvalues --   -0.46786  -0.46390  -0.46172  -0.45980  -0.45637
 Alpha  occ. eigenvalues --   -0.45527  -0.45407  -0.45242  -0.44741  -0.44698
 Alpha  occ. eigenvalues --   -0.44538  -0.43937  -0.43888  -0.43795  -0.43420
 Alpha  occ. eigenvalues --   -0.43092  -0.42860  -0.42823  -0.42601  -0.42360
 Alpha  occ. eigenvalues --   -0.42263  -0.41956  -0.41654  -0.41567  -0.41154
 Alpha  occ. eigenvalues --   -0.40887  -0.40599  -0.40598  -0.40295  -0.40091
 Alpha  occ. eigenvalues --   -0.40006  -0.39914  -0.39860  -0.39725  -0.39491
 Alpha  occ. eigenvalues --   -0.39379  -0.39097  -0.38861  -0.38731  -0.38584
 Alpha  occ. eigenvalues --   -0.38414  -0.38381  -0.38126  -0.37721  -0.37705
 Alpha  occ. eigenvalues --   -0.37511  -0.37436  -0.37166  -0.37019  -0.36920
 Alpha  occ. eigenvalues --   -0.36887  -0.36566  -0.36453  -0.36166  -0.35994
 Alpha  occ. eigenvalues --   -0.35661  -0.35452  -0.35356  -0.35037  -0.34794
 Alpha  occ. eigenvalues --   -0.34711  -0.34422  -0.34294  -0.33974  -0.33695
 Alpha  occ. eigenvalues --   -0.33455  -0.32771  -0.32750  -0.32412  -0.32341
 Alpha  occ. eigenvalues --   -0.32213  -0.31972  -0.31704  -0.31160  -0.30678
 Alpha  occ. eigenvalues --   -0.30407  -0.29849  -0.28926  -0.28403  -0.28016
 Alpha  occ. eigenvalues --   -0.27746  -0.27306  -0.25600  -0.24464  -0.21812
 Alpha  occ. eigenvalues --   -0.19321
 Alpha virt. eigenvalues --   -0.06916  -0.03937   0.00369   0.01890   0.03316
 Alpha virt. eigenvalues --    0.04869   0.05110   0.05141   0.05464   0.05935
 Alpha virt. eigenvalues --    0.06671   0.08491   0.08899   0.09161   0.09517

 Mulliken charges:
               1
     1  Mg   0.806619
     2  C    0.039893
     3  C   -0.217883
     4  C   -0.190186
     5  C   -0.158099
     6  N   -0.653794
     7  C    0.302120
     8  C   -0.163609
     9  C   -0.144459
    10  C    0.388190
    11  C   -0.321991
    12  C   -0.157488
    13  C   -0.279985
    14  C    0.577428
    15  O   -0.514759
    16  O   -0.403571
    17  N   -0.714101
    18  C    0.291532
    19  C    0.085135
    20  C    0.001821
    21  C    0.342156
    22  C   -0.378747
    23  C   -0.102671
    24  C   -0.211546
    25  N   -0.692769
    26  C    0.248517
    27  C    0.134088
    28  C   -0.045364
    29  C    0.287267
    30  C   -0.357590
    31  C   -0.256743
    32  C   -0.291578
    33  N   -0.679910
    34  C    0.292082
    35  C    0.006295
    36  C    0.002355
    37  C    0.309351
    38  C   -0.362969
    39  C    0.414414
    40  O   -0.430000
    41  C   -0.306233
    42  C    0.602248
    43  O   -0.480939
    44  O   -0.384861
    45  C   -0.096513
    46  C    0.020213
    47  C   -0.151922
    48  C    0.172279
    49  C   -0.372367
    50  C   -0.233633
    51  C   -0.164275
    52  C   -0.168258
    53  C   -0.064023
    54  C   -0.319914
    55  C   -0.155116
    56  C   -0.183576
    57  C   -0.166040
    58  C   -0.070447
    59  C   -0.296428
    60  C   -0.169334
    61  C   -0.179456
    62  C   -0.166012
    63  C   -0.045746
    64  C   -0.314604
    65  C   -0.313715
    66  H    0.074222
    67  H    0.082755
    68  H    0.073424
    69  H    0.117011
    70  H    0.092354
    71  H    0.091835
    72  H    0.101199
    73  H    0.127399
    74  H    0.120004
    75  H    0.122328
    76  H    0.125604
    77  H    0.132074
    78  H    0.115247
    79  H    0.083714
    80  H    0.122084
    81  H    0.088247
    82  H    0.084687
    83  H    0.098844
    84  H    0.079571
    85  H    0.122179
    86  H    0.108616
    87  H    0.107467
    88  H    0.088486
    89  H    0.108054
    90  H    0.100829
    91  H    0.108652
    92  H    0.117611
    93  H    0.154689
    94  H    0.107163
    95  H    0.152259
    96  H    0.123731
    97  H    0.105362
    98  H    0.125836
    99  H    0.097270
   100  H    0.117299
   101  H    0.088845
   102  H    0.114795
   103  H    0.102502
   104  H    0.115069
   105  H    0.112870
   106  H    0.074968
   107  H    0.115146
   108  H    0.112486
   109  H    0.068269
   110  H    0.077074
   111  H    0.089543
   112  H    0.077099
   113  H    0.109382
   114  H    0.110195
   115  H    0.059812
   116  H    0.102925
   117  H    0.104482
   118  H    0.066592
   119  H    0.073267
   120  H    0.098937
   121  H    0.081936
   122  H    0.099611
   123  H    0.061707
   124  H    0.101472
   125  H    0.096012
   126  H    0.095098
   127  H    0.088804
   128  H    0.087457
   129  H    0.068118
   130  H    0.098658
   131  H    0.093257
   132  H    0.085385
   133  H    0.099908
   134  H    0.111068
   135  H    0.103738
   136  H    0.079551
   137  H    0.105078
 Sum of Mulliken charges =  -0.00000

 Dipole moment (field-independent basis, Debye):
    X=              2.5267    Y=              2.3787    Z=              1.0779  Tot=              3.6338
 Quadrupole moment (field-independent basis, Debye-Ang):
   XX=           -326.3663   YY=           -391.9497   ZZ=           -398.5926
   XY=            -12.4628   XZ=             11.2490   YZ=             -2.1179

 Normal termination of Gaussian 16 at Fri Sep  6 06:15:09 2019.
