 Gaussian 16, Revision A.03,
 Gaussian 16:  ES64L-G16RevA.03 25-Dec-2016

 ----------------------------------------------------------------------
 # td=(NStates=1) iop(3/107=0140000000,3/108=0140000000) CAM-B3LYP/6-31
 G(d,p)
 ----------------------------------------------------------------------

 --
 TD
 --
 Symbolic Z-matrix:
 Charge =  0 Multiplicity = 1

                         Standard orientation:
 ---------------------------------------------------------------------
 Center     Atomic      Atomic             Coordinates (Angstroms)
 Number     Number       Type             X           Y           Z
 ---------------------------------------------------------------------
      1         12           0       -7.033722    0.587219    0.001845
      2          6           0       -4.845137   -1.991917    0.556181
      3          6           0       -4.811433    2.823929    1.229083
      4          6           0       -9.282092    3.089687   -0.389083
      5          6           0       -9.522615   -1.786678   -0.726941
      6          7           0       -5.027483    0.349336    0.606602
      7          6           0       -4.275575   -0.705070    0.807206
      8          6           0       -2.943076   -0.454790    1.238610
      9          6           0       -2.987556    1.011637    1.619408
     10          6           0       -4.331615    1.535323    1.162188
     11          6           0       -2.692707    1.266014    3.107292
     12          6           0       -1.950937   -0.725116    0.067489
     13          6           0       -0.440268   -0.284188    0.474876
     14          6           0        0.434302   -0.562347   -0.714562
     15          8           0        0.194023   -1.103631   -1.784978
     16          8           0        1.797767   -0.365632   -0.338082
     17          7           0       -6.981281    2.649139    0.349642
     18          6           0       -6.049827    3.368634    0.875367
     19          6           0       -6.348484    4.796662    0.950105
     20          6           0       -7.658307    4.846542    0.464285
     21          6           0       -8.036775    3.538772    0.044553
     22          6           0       -5.446924    5.885296    1.435868
     23          6           0       -8.529241    5.966839    0.199663
     24          6           0       -8.387989    7.221197    0.842284
     25          7           0       -9.034618    0.672263   -0.571477
     26          6           0       -9.746213    1.788241   -0.749219
     27          6           0      -11.138141    1.511771   -1.187649
     28          6           0      -11.228371    0.108311   -1.279745
     29          6           0       -9.894790   -0.401174   -0.812455
     30          6           0      -12.308113    2.452583   -1.464204
     31          6           0      -12.339013   -0.660772   -1.743865
     32          6           0      -12.151680   -0.938997   -3.295418
     33          7           0       -7.118436   -1.355143   -0.233303
     34          6           0       -8.237729   -2.199019   -0.531502
     35          6           0       -7.853803   -3.541958   -0.480383
     36          6           0       -6.425892   -3.610438   -0.060684
     37          6           0       -6.146988   -2.238374    0.088911
     38          6           0       -8.607516   -4.764126   -0.808678
     39          6           0       -5.261842   -4.359517    0.259156
     40          8           0       -5.228165   -5.594212    0.185785
     41          6           0       -4.168368   -3.371733    0.676174
     42          6           0       -3.547539   -3.771676    1.932760
     43          8           0       -3.836524   -3.264325    3.013129
     44          8           0       -2.692351   -4.743798    1.779721
     45          6           0       -2.188367   -5.238452    3.085102
     46          6           0        2.873529   -0.548798   -1.393924
     47          6           0        4.071288   -0.395956   -0.880817
     48          6           0        5.141470    0.424424   -1.067538
     49          6           0        5.101532    1.406952   -2.252269
     50          6           0        6.346906    0.413493   -0.224278
     51          6           0        7.520172   -0.270804   -0.950727
     52          6           0        8.760881   -0.321136   -0.066708
     53          6           0       10.084697   -0.692602   -0.847823
     54          6           0        9.907505   -2.230842   -1.183287
     55          6           0       11.309062   -0.375128   -0.028328
     56          6           0       12.722870   -0.607931   -0.761638
     57          6           0       13.961372   -0.148365    0.167428
     58          6           0       15.374836   -0.280903   -0.418965
     59          6           0       15.659968   -1.674712   -0.812337
     60          6           0       16.414333    0.330424    0.442752
     61          6           0       17.753003    0.488969   -0.185036
     62          6           0       18.697339    1.282014    0.793743
     63          6           0       20.209178    1.491543    0.248869
     64          6           0       20.113375    2.231224   -1.029205
     65          6           0       20.967996    2.187212    1.275543
     66          1           0       -4.025474    3.660046    1.635280
     67          1           0      -10.071786    3.762462   -0.610488
     68          1           0      -10.308413   -2.329374   -1.051422
     69          1           0       -2.756009   -1.149209    2.149360
     70          1           0       -2.316663    1.576328    0.909706
     71          1           0       -1.724228    0.977238    3.372187
     72          1           0       -2.681824    2.299896    3.446228
     73          1           0       -3.338840    0.648305    3.718327
     74          1           0       -1.957721   -1.817667   -0.236883
     75          1           0       -2.215154    0.127621   -0.898425
     76          1           0       -0.329927    0.859330    0.646081
     77          1           0        0.122805   -0.575118    1.527743
     78          1           0       -5.588525    6.811057    0.717680
     79          1           0       -5.865451    6.298808    2.416227
     80          1           0       -4.383288    5.588976    1.239945
     81          1           0       -9.385237    5.850847   -0.643504
     82          1           0       -8.957190    7.952819    0.344711
     83          1           0       -7.660435    7.420847    1.525259
     84          1           0      -12.120204    3.045181   -2.288234
     85          1           0      -13.114015    1.755366   -1.614002
     86          1           0      -12.740180    3.230163   -0.610329
     87          1           0      -12.573348   -1.666668   -1.132551
     88          1           0      -13.219154   -0.272830   -1.476130
     89          1           0      -13.179057   -1.270090   -3.691798
     90          1           0      -11.933470    0.086641   -3.951266
     91          1           0      -11.335211   -1.572604   -3.566561
     92          1           0       -8.890424   -4.683259   -1.759428
     93          1           0       -8.182481   -5.786846   -0.658005
     94          1           0       -9.473559   -4.869218   -0.119228
     95          1           0       -3.418009   -3.564319   -0.285971
     96          1           0       -1.616765   -4.374377    3.506421
     97          1           0       -2.978562   -5.323648    3.862390
     98          1           0       -1.514597   -6.041278    2.765487
     99          1           0        2.521179   -1.579702   -1.612095
    100          1           0        2.646213    0.118267   -2.268678
    101          1           0        4.122506   -0.970179    0.123571
    102          1           0        4.197618    1.421673   -2.554671
    103          1           0        5.279560    2.460232   -2.008188
    104          1           0        5.667163    0.982217   -3.238091
    105          1           0        6.574774    1.503310    0.075561
    106          1           0        6.283713   -0.195062    0.685541
    107          1           0        7.179447   -1.291579   -1.143993
    108          1           0        7.774098    0.354359   -1.916149
    109          1           0        9.065535    0.700384    0.416816
    110          1           0        8.815243   -1.022747    0.790821
    111          1           0        9.848845   -0.210349   -1.811262
    112          1           0        8.918316   -2.324097   -1.762743
    113          1           0       10.606957   -2.735017   -1.854482
    114          1           0        9.788124   -2.910553   -0.350295
    115          1           0       11.381741    0.683777    0.266845
    116          1           0       11.330900   -0.911377    0.837367
    117          1           0       12.723478   -1.607020   -0.984822
    118          1           0       12.877244   -0.021240   -1.845090
    119          1           0       13.759916    0.940054    0.111286
    120          1           0       13.912153   -0.508838    1.090264
    121          1           0       15.160476    0.269259   -1.320942
    122          1           0       15.711637   -2.280842    0.062383
    123          1           0       14.937844   -1.967359   -1.613906
    124          1           0       16.605239   -1.854068   -1.204003
    125          1           0       15.990190    1.442173    0.921076
    126          1           0       16.127138   -0.155493    1.272552
    127          1           0       18.151608   -0.600618   -0.334428
    128          1           0       17.697286    1.053870   -1.092079
    129          1           0       18.397195    2.345593    0.921896
    130          1           0       18.675231    0.859973    1.777147
    131          1           0       20.760955    0.434247    0.159728
    132          1           0       19.700761    3.126966   -1.124571
    133          1           0       21.039605    2.304477   -1.469608
    134          1           0       19.570132    1.581030   -1.914914
    135          1           0       20.978887    1.660090    2.326839
    136          1           0       21.986728    2.349253    0.914056
    137          1           0       20.781991    3.331465    1.369699
 ---------------------------------------------------------------------

 SCF Done:  E(RCAM-B3LYP) =  -2933.49196786     A.U. after   16 cycles

 Excitation energies and oscillator strengths:

 Excited State   1:      Singlet-A      2.0208 eV  613.53 nm  f=0.2730  <S**2>=0.000
     240 -> 243       -0.23601
     241 -> 242        0.65547
 This state for optimization and/or second-order correction.
 Total Energy, E(TD-HF/TD-DFT) =  -2933.41770410
 Copying the excited state density for this state as the 1-particle RhoCI density.

 The electronic state is 1-A.
 Alpha  occ. eigenvalues --  -46.79650 -19.22652 -19.19180 -19.16981 -19.15668
 Alpha  occ. eigenvalues --  -19.14515 -14.37048 -14.35303 -14.35279 -14.34430
 Alpha  occ. eigenvalues --  -10.34577 -10.33747 -10.29317 -10.27427 -10.26578
 Alpha  occ. eigenvalues --  -10.26398 -10.26060 -10.25935 -10.25625 -10.24891
 Alpha  occ. eigenvalues --  -10.24880 -10.24640 -10.24588 -10.24517 -10.24492
 Alpha  occ. eigenvalues --  -10.24274 -10.24185 -10.23851 -10.23772 -10.23646
 Alpha  occ. eigenvalues --  -10.23593 -10.23269 -10.23176 -10.22750 -10.22734
 Alpha  occ. eigenvalues --  -10.22640 -10.22638 -10.22571 -10.22538 -10.22349
 Alpha  occ. eigenvalues --  -10.22291 -10.22266 -10.22258 -10.22112 -10.22088
 Alpha  occ. eigenvalues --  -10.22011 -10.21769 -10.21681 -10.21520 -10.21364
 Alpha  occ. eigenvalues --  -10.21278 -10.21257 -10.20916 -10.20866 -10.20786
 Alpha  occ. eigenvalues --  -10.20588 -10.20442 -10.20299 -10.20278 -10.20267
 Alpha  occ. eigenvalues --  -10.20233 -10.19582 -10.19543 -10.19443 -10.18574
 Alpha  occ. eigenvalues --   -3.08267  -1.83209  -1.82717  -1.82695  -1.14022
 Alpha  occ. eigenvalues --   -1.09574  -1.03873  -1.03321  -1.01651  -0.99729
 Alpha  occ. eigenvalues --   -0.98658  -0.97623  -0.96703  -0.87153  -0.86816
 Alpha  occ. eigenvalues --   -0.86050  -0.84722  -0.84520  -0.84287  -0.84213
 Alpha  occ. eigenvalues --   -0.83874  -0.83100  -0.82481  -0.81899  -0.81289
 Alpha  occ. eigenvalues --   -0.80043  -0.79039  -0.78566  -0.78192  -0.77393
 Alpha  occ. eigenvalues --   -0.77071  -0.76805  -0.75698  -0.75149  -0.73918
 Alpha  occ. eigenvalues --   -0.73347  -0.72169  -0.71930  -0.71598  -0.71492
 Alpha  occ. eigenvalues --   -0.71004  -0.70712  -0.70005  -0.68281  -0.67947
 Alpha  occ. eigenvalues --   -0.67352  -0.66455  -0.65837  -0.64482  -0.64019
 Alpha  occ. eigenvalues --   -0.63160  -0.62359  -0.61443  -0.60434  -0.59863
 Alpha  occ. eigenvalues --   -0.59599  -0.59244  -0.58708  -0.58314  -0.58107
 Alpha  occ. eigenvalues --   -0.56914  -0.56714  -0.56093  -0.55681  -0.55037
 Alpha  occ. eigenvalues --   -0.54452  -0.53966  -0.53610  -0.53057  -0.52534
 Alpha  occ. eigenvalues --   -0.51899  -0.51619  -0.51457  -0.51350  -0.50793
 Alpha  occ. eigenvalues --   -0.50681  -0.50164  -0.49912  -0.49691  -0.49239
 Alpha  occ. eigenvalues --   -0.48448  -0.48088  -0.48042  -0.47727  -0.47603
 Alpha  occ. eigenvalues --   -0.47458  -0.47237  -0.47103  -0.46994  -0.46859
 Alpha  occ. eigenvalues --   -0.46566  -0.46478  -0.45920  -0.45860  -0.45773
 Alpha  occ. eigenvalues --   -0.45462  -0.45336  -0.45293  -0.44992  -0.44767
 Alpha  occ. eigenvalues --   -0.44589  -0.44236  -0.44078  -0.43824  -0.43674
 Alpha  occ. eigenvalues --   -0.43558  -0.43407  -0.42854  -0.42812  -0.42490
 Alpha  occ. eigenvalues --   -0.42337  -0.42112  -0.41876  -0.41639  -0.41621
 Alpha  occ. eigenvalues --   -0.41370  -0.41148  -0.40946  -0.40931  -0.40665
 Alpha  occ. eigenvalues --   -0.40454  -0.40344  -0.40307  -0.40154  -0.39779
 Alpha  occ. eigenvalues --   -0.39325  -0.39190  -0.39120  -0.39097  -0.38896
 Alpha  occ. eigenvalues --   -0.38616  -0.38352  -0.38099  -0.37988  -0.37744
 Alpha  occ. eigenvalues --   -0.37547  -0.37398  -0.37238  -0.37177  -0.36968
 Alpha  occ. eigenvalues --   -0.36699  -0.36521  -0.36377  -0.36104  -0.35886
 Alpha  occ. eigenvalues --   -0.35814  -0.35673  -0.35627  -0.35238  -0.34934
 Alpha  occ. eigenvalues --   -0.34857  -0.34414  -0.34329  -0.33828  -0.33298
 Alpha  occ. eigenvalues --   -0.33225  -0.32936  -0.32874  -0.32712  -0.32398
 Alpha  occ. eigenvalues --   -0.31649  -0.31615  -0.31235  -0.30632  -0.30039
 Alpha  occ. eigenvalues --   -0.29870  -0.29778  -0.29523  -0.27752  -0.26305
 Alpha  occ. eigenvalues --   -0.26101  -0.25899  -0.25291  -0.24624  -0.21440
 Alpha  occ. eigenvalues --   -0.19812
 Alpha virt. eigenvalues --   -0.07055  -0.03844   0.00203   0.01862   0.02015
 Alpha virt. eigenvalues --    0.02788   0.03830   0.04742   0.05104   0.05751
 Alpha virt. eigenvalues --    0.06703   0.08305   0.08974   0.09676   0.09813

 Mulliken charges:
               1
     1  Mg   0.808921
     2  C    0.048842
     3  C   -0.214502
     4  C   -0.139258
     5  C   -0.134175
     6  N   -0.641575
     7  C    0.370990
     8  C   -0.161047
     9  C   -0.148878
    10  C    0.305421
    11  C   -0.320182
    12  C   -0.161519
    13  C   -0.272294
    14  C    0.619592
    15  O   -0.466543
    16  O   -0.537820
    17  N   -0.691157
    18  C    0.360915
    19  C    0.036791
    20  C    0.042429
    21  C    0.267079
    22  C   -0.388939
    23  C   -0.113795
    24  C   -0.227764
    25  N   -0.672351
    26  C    0.276537
    27  C    0.018543
    28  C    0.051130
    29  C    0.239261
    30  C   -0.368236
    31  C   -0.264097
    32  C   -0.301226
    33  N   -0.755620
    34  C    0.323655
    35  C   -0.025019
    36  C    0.088460
    37  C    0.295020
    38  C   -0.382289
    39  C    0.319541
    40  O   -0.485577
    41  C   -0.327873
    42  C    0.649953
    43  O   -0.512403
    44  O   -0.430357
    45  C   -0.100776
    46  C    0.014127
    47  C   -0.083256
    48  C    0.114383
    49  C   -0.356473
    50  C   -0.224364
    51  C   -0.174023
    52  C   -0.170298
    53  C   -0.055470
    54  C   -0.331213
    55  C   -0.172320
    56  C   -0.193385
    57  C   -0.186568
    58  C   -0.065979
    59  C   -0.304692
    60  C   -0.137192
    61  C   -0.164772
    62  C   -0.168976
    63  C   -0.038877
    64  C   -0.308958
    65  C   -0.298266
    66  H    0.064219
    67  H    0.073699
    68  H    0.078441
    69  H    0.132661
    70  H    0.105041
    71  H    0.112219
    72  H    0.109993
    73  H    0.130305
    74  H    0.134285
    75  H    0.094811
    76  H    0.136242
    77  H    0.137947
    78  H    0.114646
    79  H    0.134499
    80  H    0.120761
    81  H    0.089604
    82  H    0.101079
    83  H    0.092919
    84  H    0.135377
    85  H    0.115508
    86  H    0.094022
    87  H    0.084487
    88  H    0.119901
    89  H    0.099165
    90  H    0.087093
    91  H    0.130415
    92  H    0.135236
    93  H    0.146576
    94  H    0.116435
    95  H    0.145239
    96  H    0.125828
    97  H    0.156635
    98  H    0.134204
    99  H    0.130203
   100  H    0.104645
   101  H    0.072390
   102  H    0.122442
   103  H    0.115049
   104  H    0.100797
   105  H    0.093695
   106  H    0.103912
   107  H    0.115809
   108  H    0.090333
   109  H    0.072448
   110  H    0.090625
   111  H    0.086216
   112  H    0.087610
   113  H    0.101475
   114  H    0.101166
   115  H    0.089400
   116  H    0.104550
   117  H    0.109060
   118  H    0.057909
   119  H    0.095053
   120  H    0.088272
   121  H    0.072039
   122  H    0.092349
   123  H    0.101178
   124  H    0.102020
   125  H    0.030606
   126  H    0.098675
   127  H    0.085392
   128  H    0.108929
   129  H    0.087408
   130  H    0.087416
   131  H    0.068932
   132  H    0.119834
   133  H    0.107220
   134  H    0.071899
   135  H    0.093010
   136  H    0.096773
   137  H    0.082533
 Sum of Mulliken charges =  -0.00000

 Dipole moment (field-independent basis, Debye):
    X=              1.5266    Y=              4.8458    Z=              0.3359  Tot=              5.0917
 Quadrupole moment (field-independent basis, Debye-Ang):
   XX=           -332.8546   YY=           -395.5930   ZZ=           -394.7963
   XY=            -17.7780   XZ=             15.7579   YZ=             -6.1364

 Normal termination of Gaussian 16 at Thu Sep 12 05:56:27 2019.
