 Gaussian 16, Revision A.03,
 Gaussian 16:  ES64L-G16RevA.03 25-Dec-2016

 ----------------------------------------------------------------------
 # td=(NStates=1) iop(3/107=0140000000,3/108=0140000000) CAM-B3LYP/6-31
 G(d,p)
 ----------------------------------------------------------------------

 --
 TD
 --
 Symbolic Z-matrix:
 Charge =  0 Multiplicity = 1

                         Standard orientation:
 ---------------------------------------------------------------------
 Center     Atomic      Atomic             Coordinates (Angstroms)
 Number     Number       Type             X           Y           Z
 ---------------------------------------------------------------------
      1         12           0       -7.137706    0.591583    0.068230
      2          6           0       -4.759410   -1.989580    0.521081
      3          6           0       -4.758133    2.792014    1.134592
      4          6           0       -9.370604    3.112044   -0.371488
      5          6           0       -9.538053   -1.779141   -0.795619
      6          7           0       -5.081114    0.477151    0.674254
      7          6           0       -4.267950   -0.725205    0.832157
      8          6           0       -2.972731   -0.355299    1.155053
      9          6           0       -3.114177    1.021822    1.670147
     10          6           0       -4.401765    1.479847    1.107379
     11          6           0       -2.898626    1.086534    3.159414
     12          6           0       -1.902298   -0.506372    0.022363
     13          6           0       -0.479953   -0.434945    0.504557
     14          6           0        0.502454   -0.578117   -0.700434
     15          8           0        0.104522   -1.023871   -1.784897
     16          8           0        1.752819   -0.280528   -0.318729
     17          7           0       -6.988388    2.615082    0.219472
     18          6           0       -6.038279    3.386340    0.823889
     19          6           0       -6.383005    4.756584    0.909845
     20          6           0       -7.706805    4.845469    0.404109
     21          6           0       -8.095841    3.463362    0.086451
     22          6           0       -5.506383    5.878551    1.458122
     23          6           0       -8.510935    6.019604    0.147022
     24          6           0       -8.394223    7.221540    0.707730
     25          7           0       -9.156933    0.661312   -0.533292
     26          6           0       -9.828469    1.770953   -0.681208
     27          6           0      -11.211317    1.416174   -1.182692
     28          6           0      -11.207925    0.083285   -1.240921
     29          6           0      -10.041800   -0.447759   -0.812407
     30          6           0      -12.248961    2.449518   -1.375966
     31          6           0      -12.317432   -0.856276   -1.757047
     32          6           0      -12.120822   -1.104264   -3.311037
     33          7           0       -7.166892   -1.432550    0.041097
     34          6           0       -8.214940   -2.225301   -0.327141
     35          6           0       -7.802694   -3.559885   -0.381063
     36          6           0       -6.423534   -3.536213   -0.071561
     37          6           0       -6.087228   -2.193390    0.210093
     38          6           0       -8.660682   -4.772273   -0.761145
     39          6           0       -5.277638   -4.345634    0.119163
     40          8           0       -5.306393   -5.626764    0.180116
     41          6           0       -4.140784   -3.385755    0.538367
     42          6           0       -3.490477   -3.754073    1.886645
     43          8           0       -3.613608   -3.120032    2.950733
     44          8           0       -2.729592   -4.863630    1.758951
     45          6           0       -2.145391   -5.259547    2.963418
     46          6           0        2.762605   -0.560126   -1.321599
     47          6           0        4.096945   -0.374516   -0.665288
     48          6           0        5.131730    0.360029   -1.133826
     49          6           0        4.967859    1.197342   -2.443699
     50          6           0        6.354450    0.445293   -0.408739
     51          6           0        7.608405   -0.083192   -1.181668
     52          6           0        8.857117    0.090826   -0.344938
     53          6           0       10.116461   -0.411800   -1.008344
     54          6           0        9.976403   -1.954622   -1.356038
     55          6           0       11.324557   -0.138656   -0.150201
     56          6           0       12.702036   -0.407998   -0.675506
     57          6           0       13.918392   -0.006244    0.217878
     58          6           0       15.359894   -0.239805   -0.382808
     59          6           0       15.581985   -1.789049   -0.817689
     60          6           0       16.338200    0.386564    0.401956
     61          6           0       17.796215    0.466153   -0.096744
     62          6           0       18.802867    1.220144    0.777665
     63          6           0       20.290629    1.243368    0.366835
     64          6           0       20.433319    2.046852   -0.905330
     65          6           0       21.164830    1.847121    1.460900
     66          1           0       -4.105382    3.438921    1.616215
     67          1           0      -10.122424    3.871225   -0.562012
     68          1           0      -10.216646   -2.550959   -0.571275
     69          1           0       -2.519122   -0.998753    2.086481
     70          1           0       -2.341784    1.693713    1.075166
     71          1           0       -1.938109    0.676035    3.543560
     72          1           0       -3.190206    2.022867    3.762147
     73          1           0       -3.516693    0.286877    3.616979
     74          1           0       -2.056173   -1.579884   -0.421201
     75          1           0       -2.083395    0.330943   -0.648532
     76          1           0       -0.353033    0.732364    0.839314
     77          1           0       -0.259014   -1.102386    1.359937
     78          1           0       -5.588280    6.987295    0.898082
     79          1           0       -5.745336    6.387571    2.532283
     80          1           0       -4.550208    5.708672    1.369589
     81          1           0       -9.208080    6.010465   -0.675704
     82          1           0       -9.101717    8.101214    0.449864
     83          1           0       -7.599819    7.411114    1.543025
     84          1           0      -11.853610    3.096020   -2.202304
     85          1           0      -13.184511    2.045680   -1.576490
     86          1           0      -12.411526    3.132610   -0.573154
     87          1           0      -12.462771   -1.641013   -1.089220
     88          1           0      -13.175617   -0.177330   -1.333656
     89          1           0      -13.072598   -1.676999   -3.551926
     90          1           0      -11.908251   -0.094486   -3.661265
     91          1           0      -11.291455   -1.867074   -3.482850
     92          1           0       -8.876018   -4.738397   -1.929063
     93          1           0       -8.001061   -5.796888   -0.578745
     94          1           0       -9.552519   -4.925765   -0.202585
     95          1           0       -3.251953   -3.387220   -0.273306
     96          1           0       -1.485641   -4.568611    3.618155
     97          1           0       -2.957102   -5.515836    3.692615
     98          1           0       -1.468415   -6.037090    2.742515
     99          1           0        2.546945   -1.556425   -1.615517
    100          1           0        2.488574    0.147165   -2.184831
    101          1           0        4.462946   -0.948996    0.263754
    102          1           0        3.959444    1.274345   -2.887999
    103          1           0        5.178790    2.424022   -2.341794
    104          1           0        5.658517    1.029602   -3.143800
    105          1           0        6.448152    1.433315   -0.202699
    106          1           0        6.290653   -0.022179    0.505427
    107          1           0        7.297190   -1.141916   -1.208261
    108          1           0        7.704401    0.461154   -2.050468
    109          1           0        9.078849    1.047962    0.121395
    110          1           0        8.755197   -0.443012    0.586071
    111          1           0       10.226139    0.053934   -1.976412
    112          1           0        9.080342   -2.148101   -1.600652
    113          1           0       10.790433   -2.201637   -1.961647
    114          1           0       10.025401   -2.393140   -0.480253
    115          1           0       11.313944    0.987484    0.096908
    116          1           0       11.262232   -0.668117    0.962995
    117          1           0       12.674315   -1.381016   -0.914559
    118          1           0       12.804715    0.135412   -1.504845
    119          1           0       13.842874    1.004514    0.470929
    120          1           0       14.002826   -0.510933    1.076116
    121          1           0       15.200002    0.223685   -1.476326
    122          1           0       15.353518   -2.637656    0.021105
    123          1           0       14.870543   -2.227558   -1.466866
    124          1           0       16.587102   -2.113888   -1.093272
    125          1           0       16.187595    1.495035    0.533974
    126          1           0       16.368031   -0.149199    1.245807
    127          1           0       18.161665   -0.683424   -0.202917
    128          1           0       17.701983    0.706072   -1.227550
    129          1           0       18.608623    2.164713    1.080490
    130          1           0       18.512150    0.725193    1.693982
    131          1           0       20.545427    0.120641    0.211021
    132          1           0       20.132319    2.984255   -0.862376
    133          1           0       21.471766    2.110101   -1.038273
    134          1           0       19.926888    1.503707   -1.684984
    135          1           0       21.123393    1.035355    2.419494
    136          1           0       22.164958    2.209709    1.146249
    137          1           0       20.774901    2.773835    1.810987
 ---------------------------------------------------------------------

 SCF Done:  E(RCAM-B3LYP) =  -2933.50122012     A.U. after   16 cycles

 Excitation energies and oscillator strengths:

 Excited State   1:      Singlet-A      2.0093 eV  617.05 nm  f=0.2453  <S**2>=0.000
     240 -> 242       -0.12855
     240 -> 243        0.22648
     241 -> 242        0.65092
 This state for optimization and/or second-order correction.
 Total Energy, E(TD-HF/TD-DFT) =  -2933.42737926
 Copying the excited state density for this state as the 1-particle RhoCI density.

 The electronic state is 1-A.
 Alpha  occ. eigenvalues --  -46.79965 -19.23047 -19.22556 -19.16997 -19.16844
 Alpha  occ. eigenvalues --  -19.14312 -14.37027 -14.35525 -14.35021 -14.34474
 Alpha  occ. eigenvalues --  -10.35206 -10.34844 -10.29224 -10.28108 -10.26507
 Alpha  occ. eigenvalues --  -10.25987 -10.25952 -10.25591 -10.25585 -10.25155
 Alpha  occ. eigenvalues --  -10.25111 -10.24168 -10.24113 -10.24096 -10.23807
 Alpha  occ. eigenvalues --  -10.23730 -10.23683 -10.23497 -10.23486 -10.23411
 Alpha  occ. eigenvalues --  -10.23202 -10.23165 -10.22925 -10.22896 -10.22800
 Alpha  occ. eigenvalues --  -10.22704 -10.22664 -10.22591 -10.22486 -10.22453
 Alpha  occ. eigenvalues --  -10.22447 -10.22441 -10.22266 -10.22203 -10.22109
 Alpha  occ. eigenvalues --  -10.22050 -10.21945 -10.21894 -10.21742 -10.21469
 Alpha  occ. eigenvalues --  -10.21410 -10.21262 -10.21245 -10.21203 -10.20582
 Alpha  occ. eigenvalues --  -10.20474 -10.20355 -10.19926 -10.19769 -10.19712
 Alpha  occ. eigenvalues --  -10.19500 -10.19485 -10.18802 -10.18024 -10.17037
 Alpha  occ. eigenvalues --   -3.08475  -1.83435  -1.82933  -1.82878  -1.13744
 Alpha  occ. eigenvalues --   -1.13018  -1.03944  -1.03612  -1.01283  -1.00316
 Alpha  occ. eigenvalues --   -0.98851  -0.98489  -0.97719  -0.87903  -0.87518
 Alpha  occ. eigenvalues --   -0.86232  -0.85627  -0.85231  -0.84316  -0.84211
 Alpha  occ. eigenvalues --   -0.83918  -0.82858  -0.81899  -0.81589  -0.81299
 Alpha  occ. eigenvalues --   -0.80473  -0.79586  -0.78880  -0.78403  -0.77965
 Alpha  occ. eigenvalues --   -0.76841  -0.76477  -0.76044  -0.75662  -0.73684
 Alpha  occ. eigenvalues --   -0.73175  -0.72849  -0.72783  -0.71947  -0.71453
 Alpha  occ. eigenvalues --   -0.71433  -0.71078  -0.70173  -0.69775  -0.67998
 Alpha  occ. eigenvalues --   -0.67173  -0.66986  -0.65796  -0.64958  -0.64173
 Alpha  occ. eigenvalues --   -0.63298  -0.62753  -0.61692  -0.61058  -0.60473
 Alpha  occ. eigenvalues --   -0.60190  -0.59398  -0.59215  -0.58970  -0.58108
 Alpha  occ. eigenvalues --   -0.57990  -0.56589  -0.56315  -0.56071  -0.55565
 Alpha  occ. eigenvalues --   -0.54707  -0.54639  -0.53935  -0.53266  -0.52929
 Alpha  occ. eigenvalues --   -0.52677  -0.52179  -0.51874  -0.51783  -0.51204
 Alpha  occ. eigenvalues --   -0.50829  -0.50544  -0.50426  -0.50248  -0.49979
 Alpha  occ. eigenvalues --   -0.49564  -0.48956  -0.48883  -0.48759  -0.48042
 Alpha  occ. eigenvalues --   -0.47959  -0.47596  -0.47319  -0.47012  -0.46839
 Alpha  occ. eigenvalues --   -0.46625  -0.46377  -0.46155  -0.46068  -0.45771
 Alpha  occ. eigenvalues --   -0.45469  -0.45416  -0.45114  -0.44948  -0.44551
 Alpha  occ. eigenvalues --   -0.44459  -0.44230  -0.44193  -0.44005  -0.43967
 Alpha  occ. eigenvalues --   -0.43582  -0.43299  -0.43139  -0.42977  -0.42603
 Alpha  occ. eigenvalues --   -0.42562  -0.42089  -0.41700  -0.41609  -0.41435
 Alpha  occ. eigenvalues --   -0.41398  -0.41141  -0.41079  -0.40981  -0.40593
 Alpha  occ. eigenvalues --   -0.40480  -0.40294  -0.40089  -0.40040  -0.39923
 Alpha  occ. eigenvalues --   -0.39769  -0.39420  -0.39100  -0.39030  -0.38942
 Alpha  occ. eigenvalues --   -0.38804  -0.38600  -0.38436  -0.38382  -0.38152
 Alpha  occ. eigenvalues --   -0.38094  -0.37845  -0.37767  -0.37482  -0.37400
 Alpha  occ. eigenvalues --   -0.37211  -0.37075  -0.36536  -0.36473  -0.36466
 Alpha  occ. eigenvalues --   -0.35978  -0.35819  -0.35299  -0.34996  -0.34609
 Alpha  occ. eigenvalues --   -0.34394  -0.34197  -0.34094  -0.33707  -0.33584
 Alpha  occ. eigenvalues --   -0.33128  -0.33071  -0.32741  -0.32678  -0.32468
 Alpha  occ. eigenvalues --   -0.32456  -0.32149  -0.32065  -0.30746  -0.30494
 Alpha  occ. eigenvalues --   -0.30216  -0.29979  -0.29605  -0.28257  -0.27243
 Alpha  occ. eigenvalues --   -0.26329  -0.25798  -0.25523  -0.25381  -0.21579
 Alpha  occ. eigenvalues --   -0.20229
 Alpha virt. eigenvalues --   -0.07415  -0.04296  -0.00672   0.02277   0.03078
 Alpha virt. eigenvalues --    0.03403   0.03691   0.04740   0.05073   0.05495
 Alpha virt. eigenvalues --    0.06281   0.08722   0.09388   0.10151   0.10247

 Mulliken charges:
               1
     1  Mg   0.803266
     2  C    0.097840
     3  C   -0.196218
     4  C   -0.171532
     5  C   -0.155548
     6  N   -0.647945
     7  C    0.313565
     8  C   -0.192289
     9  C   -0.134991
    10  C    0.419951
    11  C   -0.332048
    12  C   -0.140143
    13  C   -0.262769
    14  C    0.610024
    15  O   -0.479439
    16  O   -0.455506
    17  N   -0.702617
    18  C    0.301083
    19  C    0.058441
    20  C    0.011188
    21  C    0.314497
    22  C   -0.373061
    23  C   -0.066859
    24  C   -0.242614
    25  N   -0.687387
    26  C    0.322199
    27  C    0.023743
    28  C   -0.003097
    29  C    0.263537
    30  C   -0.384464
    31  C   -0.231100
    32  C   -0.300250
    33  N   -0.746788
    34  C    0.251045
    35  C    0.023328
    36  C    0.053304
    37  C    0.301192
    38  C   -0.388561
    39  C    0.328600
    40  O   -0.502482
    41  C   -0.335729
    42  C    0.635979
    43  O   -0.482430
    44  O   -0.408561
    45  C   -0.090027
    46  C    0.005859
    47  C   -0.144108
    48  C    0.158194
    49  C   -0.370905
    50  C   -0.247101
    51  C   -0.178603
    52  C   -0.175846
    53  C   -0.065950
    54  C   -0.304531
    55  C   -0.171024
    56  C   -0.172125
    57  C   -0.174813
    58  C   -0.050624
    59  C   -0.335895
    60  C   -0.152695
    61  C   -0.194411
    62  C   -0.152032
    63  C   -0.059220
    64  C   -0.301502
    65  C   -0.304095
    66  H    0.063052
    67  H    0.081148
    68  H    0.103917
    69  H    0.104317
    70  H    0.080842
    71  H    0.115906
    72  H    0.102850
    73  H    0.131337
    74  H    0.103870
    75  H    0.112954
    76  H    0.103708
    77  H    0.132701
    78  H    0.096076
    79  H    0.111217
    80  H    0.128515
    81  H    0.097483
    82  H    0.101450
    83  H    0.091456
    84  H    0.118162
    85  H    0.118817
    86  H    0.130692
    87  H    0.109824
    88  H    0.080188
    89  H    0.110462
    90  H    0.125618
    91  H    0.119845
    92  H    0.111900
    93  H    0.130367
    94  H    0.127658
    95  H    0.151264
    96  H    0.107768
    97  H    0.128626
    98  H    0.123140
    99  H    0.138137
   100  H    0.123258
   101  H    0.080869
   102  H    0.115415
   103  H    0.072351
   104  H    0.136856
   105  H    0.116863
   106  H    0.100217
   107  H    0.110290
   108  H    0.106746
   109  H    0.088601
   110  H    0.087580
   111  H    0.081706
   112  H    0.098578
   113  H    0.105673
   114  H    0.107971
   115  H    0.067646
   116  H    0.053226
   117  H    0.101079
   118  H    0.100344
   119  H    0.091770
   120  H    0.098984
   121  H    0.058418
   122  H    0.057377
   123  H    0.117990
   124  H    0.112294
   125  H    0.094022
   126  H    0.104348
   127  H    0.061439
   128  H    0.075511
   129  H    0.091195
   130  H    0.086101
   131  H    0.075377
   132  H    0.109873
   133  H    0.099791
   134  H    0.108469
   135  H    0.074654
   136  H    0.098827
   137  H    0.106121
 Sum of Mulliken charges =  -0.00000

 Dipole moment (field-independent basis, Debye):
    X=              2.0844    Y=              6.3954    Z=              0.5148  Tot=              6.7462
 Quadrupole moment (field-independent basis, Debye-Ang):
   XX=           -340.7368   YY=           -396.1889   ZZ=           -397.4889
   XY=            -27.0130   XZ=              8.1470   YZ=             -2.3219

 Normal termination of Gaussian 16 at Fri Sep 13 08:52:43 2019.
