 Gaussian 09, Revision D.01,
 Gaussian 09:  ES64L-G09RevD.01 24-Apr-2013

 -------------------------------------
 # td=(NStates=1) CAM-B3LYP/6-31G(d,p)
 -------------------------------------

 --
 TD
 --
 Symbolic Z-matrix:
 Charge =  0 Multiplicity = 1

                         Standard orientation:
 ---------------------------------------------------------------------
 Center     Atomic      Atomic             Coordinates (Angstroms)
 Number     Number       Type             X           Y           Z
 ---------------------------------------------------------------------
      1         12           0       -7.109121    0.582558   -0.032407
      2          6           0       -4.719335   -1.948949    0.404297
      3          6           0       -4.839602    2.811058    1.128708
      4          6           0       -9.369578    3.080659   -0.405817
      5          6           0       -9.550613   -1.768857   -0.898984
      6          7           0       -5.033539    0.408066    0.584536
      7          6           0       -4.243269   -0.705516    0.718426
      8          6           0       -2.918825   -0.372251    1.162304
      9          6           0       -2.999120    1.049822    1.526825
     10          6           0       -4.417766    1.513038    1.130537
     11          6           0       -2.842015    1.206156    3.127701
     12          6           0       -1.847528   -0.685728    0.111190
     13          6           0       -0.452032   -0.498147    0.564203
     14          6           0        0.581674   -0.626291   -0.630082
     15          8           0        0.296302   -1.007681   -1.681906
     16          8           0        1.791311   -0.305864   -0.154405
     17          7           0       -6.944228    2.545422    0.353510
     18          6           0       -6.028336    3.385616    0.753271
     19          6           0       -6.479993    4.693534    0.891974
     20          6           0       -7.814722    4.772195    0.459332
     21          6           0       -8.121456    3.341440    0.133813
     22          6           0       -5.485753    5.726487    1.233477
     23          6           0       -8.677639    5.949276    0.304045
     24          6           0       -8.481809    7.184648    0.956698
     25          7           0       -9.129790    0.636762   -0.532394
     26          6           0       -9.884904    1.769354   -0.600433
     27          6           0      -11.226943    1.489214   -1.046395
     28          6           0      -11.253667    0.120212   -1.298584
     29          6           0       -9.971338   -0.418779   -0.959475
     30          6           0      -12.226993    2.471826   -1.464658
     31          6           0      -12.447051   -0.782282   -1.852929
     32          6           0      -12.256167   -0.888336   -3.386756
     33          7           0       -7.166656   -1.439985   -0.227612
     34          6           0       -8.239285   -2.145737   -0.613260
     35          6           0       -7.861977   -3.616921   -0.609465
     36          6           0       -6.539597   -3.619620   -0.079324
     37          6           0       -6.176179   -2.182922    0.079601
     38          6           0       -8.706296   -4.843956   -0.851354
     39          6           0       -5.405992   -4.434735    0.226635
     40          8           0       -5.237004   -5.630345    0.200405
     41          6           0       -4.160165   -3.458000    0.565388
     42          6           0       -3.582217   -3.666419    1.928758
     43          8           0       -3.728692   -2.870552    2.936787
     44          8           0       -2.854852   -4.696853    1.945066
     45          6           0       -2.326968   -5.252062    3.225314
     46          6           0        2.696766   -0.436447   -1.279073
     47          6           0        4.171310   -0.313936   -0.612121
     48          6           0        5.116260    0.562834   -0.893475
     49          6           0        5.032422    1.335361   -2.125322
     50          6           0        6.365611    0.449430   -0.181399
     51          6           0        7.579259   -0.066303   -0.970648
     52          6           0        8.875580   -0.013810   -0.116405
     53          6           0       10.192491   -0.449233   -0.918981
     54          6           0       10.159473   -1.975013   -1.296221
     55          6           0       11.533748   -0.274320    0.022531
     56          6           0       12.821024   -0.617514   -0.686264
     57          6           0       13.944776   -0.175046    0.183268
     58          6           0       15.350888   -0.259472   -0.481038
     59          6           0       15.629733   -1.609954   -0.844571
     60          6           0       16.501590    0.291911    0.447828
     61          6           0       17.832095    0.565358   -0.258696
     62          6           0       18.757092    1.120134    0.751914
     63          6           0       20.265917    1.267868    0.217961
     64          6           0       20.293092    2.043804   -1.135182
     65          6           0       21.116118    1.956228    1.255630
     66          1           0       -4.212526    3.608173    1.607253
     67          1           0      -10.172537    3.786924   -0.226255
     68          1           0      -10.285100   -2.594865   -1.010406
     69          1           0       -2.837197   -1.121348    2.175893
     70          1           0       -2.356923    1.721245    0.984863
     71          1           0       -1.912083    0.988013    3.472673
     72          1           0       -2.988282    2.112691    3.340454
     73          1           0       -3.433041    0.388523    3.618433
     74          1           0       -2.032557   -1.695089   -0.215842
     75          1           0       -2.006972   -0.219686   -0.793738
     76          1           0       -0.363078    0.485455    0.951637
     77          1           0       -0.084640   -1.180492    1.418578
     78          1           0       -5.886246    6.689522    0.965116
     79          1           0       -5.111937    5.932835    2.504721
     80          1           0       -4.521916    5.674339    0.811127
     81          1           0       -9.425028    5.695580   -0.502151
     82          1           0       -9.112350    8.031725    0.781362
     83          1           0       -7.697183    7.318198    1.841904
     84          1           0      -11.889676    3.194988   -2.291541
     85          1           0      -13.081302    2.007637   -1.837164
     86          1           0      -12.295832    3.258978   -0.624418
     87          1           0      -12.302335   -1.951324   -1.410100
     88          1           0      -13.425420   -0.473430   -1.613510
     89          1           0      -13.014189   -1.617371   -3.941192
     90          1           0      -12.182491    0.350746   -3.750295
     91          1           0      -11.140508   -1.392866   -3.537510
     92          1           0       -8.934087   -4.699871   -1.943739
     93          1           0       -7.928379   -5.720040   -0.885894
     94          1           0       -9.487167   -4.704049   -0.238285
     95          1           0       -3.334055   -3.465039   -0.019958
     96          1           0       -2.075680   -4.468814    3.914776
     97          1           0       -3.053207   -5.750067    3.985283
     98          1           0       -1.648983   -5.925758    2.811582
     99          1           0        2.548766   -1.482749   -1.789490
    100          1           0        2.495860    0.304199   -2.073284
    101          1           0        4.022816   -0.761298    0.434635
    102          1           0        3.820462    1.209317   -2.416974
    103          1           0        5.130751    2.457046   -1.832495
    104          1           0        5.815289    1.068869   -3.102956
    105          1           0        6.675742    1.500101    0.043929
    106          1           0        6.311279   -0.224289    0.810166
    107          1           0        7.451247   -1.024082   -1.207149
    108          1           0        7.758461    0.581897   -1.729611
    109          1           0        8.893419    1.076652    0.172921
    110          1           0        8.759234   -0.709876    0.627263
    111          1           0       10.313656    0.177992   -1.781378
    112          1           0        9.437191   -2.208856   -2.140696
    113          1           0       11.087807   -2.369951   -1.590986
    114          1           0        9.940848   -2.501030   -0.732273
    115          1           0       11.548541    0.612229    0.417189
    116          1           0       11.392307   -0.938165    0.667787
    117          1           0       12.976474   -1.450797   -1.020408
    118          1           0       12.964140    0.053615   -1.597523
    119          1           0       13.803717    0.818939    0.587812
    120          1           0       13.978423   -1.027897    0.938142
    121          1           0       15.379324    0.468150   -1.362633
    122          1           0       15.599114   -2.305554   -0.024906
    123          1           0       15.025757   -2.058508   -1.610582
    124          1           0       16.747320   -1.607461   -1.160736
    125          1           0       16.142616    1.262240    0.850193
    126          1           0       16.417861   -0.313198    1.336259
    127          1           0       18.370604   -0.405392   -0.732201
    128          1           0       17.812887    1.314813   -1.119920
    129          1           0       18.387212    1.977368    1.272408
    130          1           0       18.660879    0.510939    1.665289
    131          1           0       20.696699    0.330028   -0.019124
    132          1           0       19.969865    3.095508   -0.910562
    133          1           0       21.180539    2.350643   -1.495619
    134          1           0       19.698081    1.575194   -2.101935
    135          1           0       21.295657    1.363553    2.290846
    136          1           0       22.252206    1.841662    0.791752
    137          1           0       20.991551    2.915032    1.389917
 ---------------------------------------------------------------------

 SCF Done:  E(RCAM-B3LYP) =  -2932.45747269     A.U. after   17 cycles

 Excitation energies and oscillator strengths:

 Excited State   1:      Singlet-A      2.0608 eV  601.64 nm  f=0.2245  <S**2>=0.000
     240 -> 243       -0.23768
     241 -> 242        0.64829
 This state for optimization and/or second-order correction.
 Total Energy, E(TD-HF/TD-KS) =  -2932.38174021
 Copying the excited state density for this state as the 1-particle RhoCI density.

 The electronic state is 1-A.
 Alpha  occ. eigenvalues --  -46.84370 -19.28068 -19.27095 -19.21878 -19.20211
 Alpha  occ. eigenvalues --  -19.19195 -14.40282 -14.39686 -14.39386 -14.39283
 Alpha  occ. eigenvalues --  -10.39023 -10.38857 -10.35255 -10.32797 -10.32710
 Alpha  occ. eigenvalues --  -10.30334 -10.30105 -10.29617 -10.29396 -10.29374
 Alpha  occ. eigenvalues --  -10.29348 -10.29212 -10.28985 -10.28890 -10.28717
 Alpha  occ. eigenvalues --  -10.28556 -10.28515 -10.28444 -10.28295 -10.28284
 Alpha  occ. eigenvalues --  -10.28190 -10.27753 -10.27027 -10.26973 -10.26650
 Alpha  occ. eigenvalues --  -10.26650 -10.26610 -10.26590 -10.26499 -10.26405
 Alpha  occ. eigenvalues --  -10.26402 -10.26397 -10.26391 -10.26347 -10.26270
 Alpha  occ. eigenvalues --  -10.26210 -10.26107 -10.26041 -10.25564 -10.25513
 Alpha  occ. eigenvalues --  -10.25247 -10.25086 -10.24884 -10.24816 -10.24808
 Alpha  occ. eigenvalues --  -10.24779 -10.24459 -10.24216 -10.24200 -10.23421
 Alpha  occ. eigenvalues --  -10.23302 -10.23034 -10.22599 -10.22098 -10.21709
 Alpha  occ. eigenvalues --   -3.13362  -1.88076  -1.87612  -1.87524  -1.20649
 Alpha  occ. eigenvalues --   -1.20203  -1.12329  -1.11337  -1.05581  -1.05050
 Alpha  occ. eigenvalues --   -1.04344  -1.02814  -1.01711  -0.92041  -0.91250
 Alpha  occ. eigenvalues --   -0.90789  -0.89802  -0.89366  -0.89311  -0.88478
 Alpha  occ. eigenvalues --   -0.88108  -0.87610  -0.87309  -0.86824  -0.85956
 Alpha  occ. eigenvalues --   -0.85362  -0.84542  -0.83720  -0.83471  -0.82351
 Alpha  occ. eigenvalues --   -0.82103  -0.82012  -0.80854  -0.79911  -0.78090
 Alpha  occ. eigenvalues --   -0.77569  -0.77208  -0.76848  -0.76096  -0.75568
 Alpha  occ. eigenvalues --   -0.75202  -0.74948  -0.74742  -0.73204  -0.72086
 Alpha  occ. eigenvalues --   -0.71492  -0.70369  -0.69295  -0.68972  -0.68278
 Alpha  occ. eigenvalues --   -0.67245  -0.66684  -0.65890  -0.65271  -0.65060
 Alpha  occ. eigenvalues --   -0.64648  -0.64494  -0.64490  -0.63623  -0.62382
 Alpha  occ. eigenvalues --   -0.61943  -0.60544  -0.60081  -0.59562  -0.58633
 Alpha  occ. eigenvalues --   -0.58216  -0.57784  -0.57515  -0.57201  -0.56817
 Alpha  occ. eigenvalues --   -0.56632  -0.55950  -0.55778  -0.55552  -0.54867
 Alpha  occ. eigenvalues --   -0.54688  -0.54117  -0.53561  -0.53446  -0.53361
 Alpha  occ. eigenvalues --   -0.52980  -0.52765  -0.52450  -0.52279  -0.51931
 Alpha  occ. eigenvalues --   -0.51431  -0.51339  -0.51077  -0.50686  -0.50569
 Alpha  occ. eigenvalues --   -0.50357  -0.50321  -0.49575  -0.49415  -0.49348
 Alpha  occ. eigenvalues --   -0.49141  -0.49100  -0.48741  -0.48625  -0.48479
 Alpha  occ. eigenvalues --   -0.48399  -0.48275  -0.47693  -0.47680  -0.47475
 Alpha  occ. eigenvalues --   -0.47297  -0.46926  -0.46492  -0.46345  -0.46299
 Alpha  occ. eigenvalues --   -0.45653  -0.45529  -0.45307  -0.45098  -0.44995
 Alpha  occ. eigenvalues --   -0.44790  -0.44383  -0.44271  -0.44191  -0.43860
 Alpha  occ. eigenvalues --   -0.43702  -0.43546  -0.43462  -0.43285  -0.43043
 Alpha  occ. eigenvalues --   -0.42758  -0.42414  -0.42357  -0.42210  -0.42114
 Alpha  occ. eigenvalues --   -0.42080  -0.41370  -0.41323  -0.41319  -0.41203
 Alpha  occ. eigenvalues --   -0.41112  -0.40659  -0.40631  -0.40315  -0.40210
 Alpha  occ. eigenvalues --   -0.40078  -0.39741  -0.39657  -0.39571  -0.39410
 Alpha  occ. eigenvalues --   -0.39101  -0.38782  -0.38132  -0.38067  -0.37836
 Alpha  occ. eigenvalues --   -0.37551  -0.37326  -0.37180  -0.37017  -0.36825
 Alpha  occ. eigenvalues --   -0.36648  -0.36329  -0.35914  -0.35464  -0.35161
 Alpha  occ. eigenvalues --   -0.34604  -0.34513  -0.34255  -0.34124  -0.32855
 Alpha  occ. eigenvalues --   -0.32390  -0.32193  -0.31720  -0.30197  -0.29970
 Alpha  occ. eigenvalues --   -0.29569  -0.29540  -0.27766  -0.27268  -0.22783
 Alpha  occ. eigenvalues --   -0.21181
 Alpha virt. eigenvalues --   -0.06273  -0.03253   0.01798   0.02898   0.05648
 Alpha virt. eigenvalues --    0.05725   0.05752   0.06829   0.07498   0.08128
 Alpha virt. eigenvalues --    0.09113   0.10249   0.11158   0.11438   0.11945

 Mulliken charges:
               1
     1  Mg   0.823503
     2  C   -0.004297
     3  C   -0.230943
     4  C   -0.175516
     5  C   -0.148616
     6  N   -0.650819
     7  C    0.349547
     8  C   -0.175264
     9  C   -0.163300
    10  C    0.365714
    11  C   -0.305100
    12  C   -0.171740
    13  C   -0.271855
    14  C    0.604671
    15  O   -0.431612
    16  O   -0.461607
    17  N   -0.716242
    18  C    0.358133
    19  C    0.040017
    20  C    0.013692
    21  C    0.291598
    22  C   -0.380243
    23  C   -0.073729
    24  C   -0.258167
    25  N   -0.683375
    26  C    0.278266
    27  C    0.017604
    28  C    0.010561
    29  C    0.254308
    30  C   -0.369381
    31  C   -0.214249
    32  C   -0.266232
    33  N   -0.702998
    34  C    0.281480
    35  C   -0.025594
    36  C   -0.005109
    37  C    0.296076
    38  C   -0.358463
    39  C    0.358934
    40  O   -0.459371
    41  C   -0.284756
    42  C    0.598162
    43  O   -0.539776
    44  O   -0.402321
    45  C   -0.094154
    46  C   -0.024596
    47  C   -0.143992
    48  C    0.165533
    49  C   -0.337714
    50  C   -0.218523
    51  C   -0.168943
    52  C   -0.180033
    53  C   -0.088288
    54  C   -0.283007
    55  C   -0.152327
    56  C   -0.150435
    57  C   -0.178792
    58  C   -0.060718
    59  C   -0.302420
    60  C   -0.190390
    61  C   -0.160965
    62  C   -0.170723
    63  C   -0.047020
    64  C   -0.316306
    65  C   -0.300112
    66  H    0.069545
    67  H    0.096509
    68  H    0.103504
    69  H    0.138128
    70  H    0.108627
    71  H    0.110058
    72  H    0.108355
    73  H    0.126430
    74  H    0.103412
    75  H    0.123182
    76  H    0.130879
    77  H    0.122790
    78  H    0.116470
    79  H    0.059037
    80  H    0.134865
    81  H    0.106419
    82  H    0.117389
    83  H    0.116594
    84  H    0.114205
    85  H    0.119182
    86  H    0.105492
    87  H    0.067548
    88  H    0.117156
    89  H    0.096528
    90  H    0.079231
    91  H    0.091686
    92  H    0.126295
    93  H    0.153320
    94  H    0.144553
    95  H    0.161494
    96  H    0.157895
    97  H    0.130372
    98  H    0.144729
    99  H    0.130251
   100  H    0.127004
   101  H    0.095657
   102  H    0.076262
   103  H    0.106842
   104  H    0.102699
   105  H    0.078931
   106  H    0.080284
   107  H    0.107261
   108  H    0.100225
   109  H    0.080810
   110  H    0.096538
   111  H    0.083273
   112  H    0.081664
   113  H    0.096295
   114  H    0.092158
   115  H    0.090120
   116  H    0.100846
   117  H    0.090002
   118  H    0.067797
   119  H    0.085242
   120  H    0.069566
   121  H    0.069123
   122  H    0.099486
   123  H    0.103475
   124  H    0.083828
   125  H    0.084869
   126  H    0.095978
   127  H    0.075185
   128  H    0.100927
   129  H    0.090963
   130  H    0.085558
   131  H    0.101104
   132  H    0.089449
   133  H    0.111732
   134  H    0.086236
   135  H    0.089192
   136  H    0.063019
   137  H    0.120607
 Sum of Mulliken charges =   0.00000

 Dipole moment (field-independent basis, Debye):
    X=              1.9484    Y=              3.0627    Z=              0.6367  Tot=              3.6853
 Quadrupole moment (field-independent basis, Debye-Ang):
   XX=           -348.2190   YY=           -380.4987   ZZ=           -396.8295
   XY=            -15.2012   XZ=             13.1907   YZ=             -6.6064

 Normal termination of Gaussian 09 at Fri Jul  5 18:51:53 2019.
