 Gaussian 16, Revision A.03,
 Gaussian 16:  ES64L-G16RevA.03 25-Dec-2016

 ----------------------------------------------------------------------
 # td=(NStates=1) iop(3/107=0140000000,3/108=0140000000) CAM-B3LYP/6-31
 G(d,p)
 ----------------------------------------------------------------------

 --
 TD
 --
 Symbolic Z-matrix:
 Charge =  0 Multiplicity = 1

                         Standard orientation:
 ---------------------------------------------------------------------
 Center     Atomic      Atomic             Coordinates (Angstroms)
 Number     Number       Type             X           Y           Z
 ---------------------------------------------------------------------
      1         12           0       -7.129543    0.673918    0.094284
      2          6           0       -4.835881   -1.917792    0.573308
      3          6           0       -4.845930    2.823788    1.261411
      4          6           0       -9.417867    3.047949   -0.366475
      5          6           0       -9.537578   -1.684605   -0.959754
      6          7           0       -5.121835    0.465358    0.663611
      7          6           0       -4.354654   -0.740012    0.892463
      8          6           0       -2.853106   -0.470728    1.282442
      9          6           0       -3.018256    1.056405    1.765980
     10          6           0       -4.429928    1.551717    1.118748
     11          6           0       -3.074025    1.181930    3.274498
     12          6           0       -1.961507   -0.632302    0.111831
     13          6           0       -0.435541   -0.519947    0.529695
     14          6           0        0.521282   -0.515056   -0.586966
     15          8           0        0.200297   -0.814088   -1.728041
     16          8           0        1.763846   -0.381374   -0.078274
     17          7           0       -7.089398    2.608168    0.404483
     18          6           0       -6.077322    3.315129    0.873925
     19          6           0       -6.349018    4.708103    0.771369
     20          6           0       -7.720734    4.811125    0.212503
     21          6           0       -8.170304    3.455851    0.123182
     22          6           0       -5.469427    5.768282    1.306621
     23          6           0       -8.482577    5.941255    0.054389
     24          6           0       -8.297746    7.196335    0.694838
     25          7           0       -9.104314    0.612671   -0.455856
     26          6           0       -9.930147    1.844546   -0.560254
     27          6           0      -11.274086    1.528537   -1.071185
     28          6           0      -11.293688    0.174205   -1.272516
     29          6           0       -9.933309   -0.377549   -0.849892
     30          6           0      -12.282430    2.548234   -1.420328
     31          6           0      -12.429868   -0.656287   -1.898803
     32          6           0      -12.152949   -1.033179   -3.362715
     33          7           0       -7.192967   -1.421571   -0.127096
     34          6           0       -8.254987   -2.215588   -0.576997
     35          6           0       -7.946509   -3.581179   -0.488809
     36          6           0       -6.539562   -3.650662   -0.114584
     37          6           0       -6.210907   -2.240873    0.151691
     38          6           0       -8.739233   -4.811756   -0.776798
     39          6           0       -5.470850   -4.382996    0.157504
     40          8           0       -5.180357   -5.614373    0.112444
     41          6           0       -4.208697   -3.303209    0.602241
     42          6           0       -3.585164   -3.661632    1.836688
     43          8           0       -3.609231   -3.192961    2.899762
     44          8           0       -2.824194   -4.771995    1.721000
     45          6           0       -2.256679   -5.392296    2.842234
     46          6           0        2.770371   -0.615049   -1.083367
     47          6           0        4.130925   -0.322251   -0.582597
     48          6           0        5.063022    0.472832   -0.949976
     49          6           0        4.915169    1.272033   -2.225240
     50          6           0        6.408700    0.553036   -0.355387
     51          6           0        7.658423   -0.154614   -0.986032
     52          6           0        8.916871   -0.179926   -0.164787
     53          6           0       10.226542   -0.588697   -0.890061
     54          6           0       10.208817   -2.107041   -1.322221
     55          6           0       11.454139   -0.295477   -0.076722
     56          6           0       12.782826   -0.432185   -0.817100
     57          6           0       13.951904   -0.051078    0.112361
     58          6           0       15.391406   -0.281019   -0.531333
     59          6           0       15.710740   -1.731481   -0.908175
     60          6           0       16.505786    0.285631    0.444118
     61          6           0       17.865185    0.507800   -0.138159
     62          6           0       18.827538    1.470007    0.744694
     63          6           0       20.331925    1.350825    0.307134
     64          6           0       20.504791    2.102293   -0.996283
     65          6           0       21.196920    1.895006    1.424683
     66          1           0       -4.008567    3.631832    1.637730
     67          1           0      -10.074357    4.071775   -0.489322
     68          1           0      -10.092024   -2.477691   -1.347082
     69          1           0       -2.379819   -1.041538    2.191934
     70          1           0       -2.194512    1.756841    1.525840
     71          1           0       -2.080302    0.906593    3.612060
     72          1           0       -3.428028    2.023905    3.731841
     73          1           0       -4.130605    0.411033    3.501437
     74          1           0       -1.933365   -1.714765   -0.124846
     75          1           0       -2.339739    0.028336   -0.860766
     76          1           0       -0.275804    0.349660    1.081109
     77          1           0       -0.138409   -1.392710    1.140133
     78          1           0       -5.690923    6.807363    1.025132
     79          1           0       -5.812240    5.674656    2.392545
     80          1           0       -4.590948    5.561056    1.348555
     81          1           0       -9.391177    5.843390   -0.609883
     82          1           0       -8.944344    8.096038    0.319572
     83          1           0       -7.407024    7.426934    1.257369
     84          1           0      -12.018631    2.837039   -2.474396
     85          1           0      -13.115241    2.059877   -1.592428
     86          1           0      -12.249379    3.517746   -0.744245
     87          1           0      -12.486886   -1.610298   -1.192423
     88          1           0      -13.391538   -0.089441   -1.425493
     89          1           0      -13.065151   -1.630265   -3.878734
     90          1           0      -12.010069    0.021475   -3.920671
     91          1           0      -11.377571   -1.890188   -3.451873
     92          1           0       -9.372417   -4.723438   -1.680666
     93          1           0       -8.081681   -5.586872   -0.822824
     94          1           0       -9.522981   -4.969034    0.017013
     95          1           0       -3.499768   -3.491165   -0.277492
     96          1           0       -1.499024   -4.604404    3.227007
     97          1           0       -2.973451   -5.536341    3.674468
     98          1           0       -1.690237   -6.337147    2.522377
     99          1           0        2.653379   -1.579415   -1.491728
    100          1           0        2.554327    0.005211   -1.945496
    101          1           0        4.385544   -0.948153    0.311010
    102          1           0        3.941284    1.149386   -2.813433
    103          1           0        5.051469    2.358049   -1.840450
    104          1           0        5.804051    1.263640   -3.010874
    105          1           0        6.766553    1.646320   -0.105314
    106          1           0        6.273281   -0.000354    0.699149
    107          1           0        7.571489   -1.327088   -1.199329
    108          1           0        7.745812    0.514948   -1.809583
    109          1           0        8.908798    0.834792    0.199670
    110          1           0        8.820929   -0.919610    0.621350
    111          1           0       10.291823    0.023017   -1.835913
    112          1           0        9.397935   -2.527804   -1.948032
    113          1           0       11.175479   -2.351675   -1.755308
    114          1           0        9.921792   -2.920307   -0.544112
    115          1           0       11.433319    0.835885    0.061106
    116          1           0       11.539465   -0.958639    0.766340
    117          1           0       12.831437   -1.503432   -1.143665
    118          1           0       12.654765    0.284199   -1.675677
    119          1           0       14.068944    0.924920    0.433024
    120          1           0       13.873201   -0.802763    0.757314
    121          1           0       15.421413    0.336740   -1.432528
    122          1           0       15.724619   -2.385195   -0.053900
    123          1           0       14.971949   -2.166648   -1.510674
    124          1           0       16.530578   -1.749921   -1.452232
    125          1           0       16.236305    1.294319    0.617743
    126          1           0       16.356521   -0.217545    1.509576
    127          1           0       18.547257   -0.466171   -0.309812
    128          1           0       17.633593    0.917304   -1.144419
    129          1           0       18.579919    2.432646    0.535448
    130          1           0       18.624749    1.012623    1.720284
    131          1           0       20.477463    0.383755    0.157894
    132          1           0       20.317312    3.125464   -0.880333
    133          1           0       21.525025    2.115139   -1.323499
    134          1           0       19.940250    1.778889   -2.068665
    135          1           0       20.862469    1.181183    2.225871
    136          1           0       22.279099    1.929025    1.033613
    137          1           0       20.866971    2.907631    1.567869
 ---------------------------------------------------------------------

 SCF Done:  E(RCAM-B3LYP) =  -2933.46817646     A.U. after   16 cycles

 Excitation energies and oscillator strengths:

 Excited State   1:      Singlet-A      1.8924 eV  655.17 nm  f=0.3084  <S**2>=0.000
     240 -> 243        0.13851
     241 -> 242        0.68958
 This state for optimization and/or second-order correction.
 Total Energy, E(TD-HF/TD-DFT) =  -2933.39863229
 Copying the excited state density for this state as the 1-particle RhoCI density.

 The electronic state is 1-A.
 Alpha  occ. eigenvalues --  -46.79989 -19.22489 -19.17989 -19.16476 -19.14236
 Alpha  occ. eigenvalues --  -19.14167 -14.37956 -14.36586 -14.35570 -14.35464
 Alpha  occ. eigenvalues --  -10.33976 -10.31582 -10.29072 -10.26601 -10.26595
 Alpha  occ. eigenvalues --  -10.26103 -10.25903 -10.25902 -10.25900 -10.25854
 Alpha  occ. eigenvalues --  -10.25353 -10.25273 -10.25228 -10.25115 -10.25003
 Alpha  occ. eigenvalues --  -10.24573 -10.24023 -10.23942 -10.23756 -10.23677
 Alpha  occ. eigenvalues --  -10.23504 -10.23499 -10.23471 -10.23374 -10.23349
 Alpha  occ. eigenvalues --  -10.23191 -10.23074 -10.23031 -10.22915 -10.22737
 Alpha  occ. eigenvalues --  -10.22736 -10.22730 -10.22673 -10.22475 -10.22285
 Alpha  occ. eigenvalues --  -10.22226 -10.21918 -10.21868 -10.21668 -10.21609
 Alpha  occ. eigenvalues --  -10.21256 -10.21211 -10.21028 -10.21002 -10.20976
 Alpha  occ. eigenvalues --  -10.20935 -10.20745 -10.20736 -10.20479 -10.20389
 Alpha  occ. eigenvalues --  -10.20339 -10.20129 -10.20061 -10.19166 -10.17692
 Alpha  occ. eigenvalues --   -3.08689  -1.83622  -1.83158  -1.83112  -1.13230
 Alpha  occ. eigenvalues --   -1.12869  -1.04300  -1.02936  -1.01734  -0.99610
 Alpha  occ. eigenvalues --   -0.99127  -0.96838  -0.96177  -0.86990  -0.86842
 Alpha  occ. eigenvalues --   -0.85507  -0.85162  -0.84775  -0.84652  -0.84402
 Alpha  occ. eigenvalues --   -0.84297  -0.83319  -0.83295  -0.82730  -0.81255
 Alpha  occ. eigenvalues --   -0.80488  -0.80020  -0.79113  -0.78759  -0.78149
 Alpha  occ. eigenvalues --   -0.77135  -0.76647  -0.76168  -0.75308  -0.73913
 Alpha  occ. eigenvalues --   -0.73534  -0.73215  -0.71876  -0.71348  -0.70916
 Alpha  occ. eigenvalues --   -0.70875  -0.70231  -0.69946  -0.69729  -0.68848
 Alpha  occ. eigenvalues --   -0.66676  -0.65722  -0.65094  -0.64657  -0.64502
 Alpha  occ. eigenvalues --   -0.63958  -0.61704  -0.61533  -0.60305  -0.59996
 Alpha  occ. eigenvalues --   -0.59366  -0.59314  -0.58505  -0.58457  -0.57757
 Alpha  occ. eigenvalues --   -0.57114  -0.56329  -0.55736  -0.55708  -0.54981
 Alpha  occ. eigenvalues --   -0.54909  -0.54136  -0.53671  -0.53238  -0.52573
 Alpha  occ. eigenvalues --   -0.52525  -0.52345  -0.51847  -0.51381  -0.50969
 Alpha  occ. eigenvalues --   -0.50869  -0.50559  -0.50010  -0.49853  -0.49601
 Alpha  occ. eigenvalues --   -0.48852  -0.48593  -0.48369  -0.48200  -0.48050
 Alpha  occ. eigenvalues --   -0.47693  -0.47350  -0.47187  -0.47059  -0.46977
 Alpha  occ. eigenvalues --   -0.46812  -0.46392  -0.46144  -0.46039  -0.45984
 Alpha  occ. eigenvalues --   -0.45847  -0.45672  -0.45585  -0.45451  -0.44983
 Alpha  occ. eigenvalues --   -0.44666  -0.44640  -0.44549  -0.44178  -0.43962
 Alpha  occ. eigenvalues --   -0.43561  -0.43325  -0.43205  -0.42998  -0.42849
 Alpha  occ. eigenvalues --   -0.42569  -0.42177  -0.42079  -0.41792  -0.41738
 Alpha  occ. eigenvalues --   -0.41592  -0.41386  -0.41332  -0.40863  -0.40824
 Alpha  occ. eigenvalues --   -0.40541  -0.40282  -0.40222  -0.40022  -0.39954
 Alpha  occ. eigenvalues --   -0.39914  -0.39693  -0.39177  -0.39094  -0.38926
 Alpha  occ. eigenvalues --   -0.38692  -0.38486  -0.38230  -0.37894  -0.37590
 Alpha  occ. eigenvalues --   -0.37553  -0.37353  -0.36927  -0.36819  -0.36657
 Alpha  occ. eigenvalues --   -0.36520  -0.36454  -0.36037  -0.35832  -0.35722
 Alpha  occ. eigenvalues --   -0.35375  -0.35330  -0.35188  -0.34952  -0.34741
 Alpha  occ. eigenvalues --   -0.34635  -0.34213  -0.34154  -0.33819  -0.33541
 Alpha  occ. eigenvalues --   -0.33209  -0.32992  -0.32710  -0.32516  -0.32290
 Alpha  occ. eigenvalues --   -0.32184  -0.31765  -0.30682  -0.30471  -0.30193
 Alpha  occ. eigenvalues --   -0.30062  -0.29493  -0.29352  -0.28048  -0.27846
 Alpha  occ. eigenvalues --   -0.27098  -0.26365  -0.25272  -0.24097  -0.22456
 Alpha  occ. eigenvalues --   -0.20745
 Alpha virt. eigenvalues --   -0.09019  -0.03567  -0.00508   0.01092   0.04177
 Alpha virt. eigenvalues --    0.04262   0.04404   0.04759   0.05137   0.05683
 Alpha virt. eigenvalues --    0.06497   0.07818   0.09003   0.09392   0.09801

 Mulliken charges:
               1
     1  Mg   0.808544
     2  C    0.126784
     3  C   -0.204507
     4  C   -0.200072
     5  C   -0.154735
     6  N   -0.645224
     7  C    0.254692
     8  C   -0.125696
     9  C   -0.148247
    10  C    0.362486
    11  C   -0.277585
    12  C   -0.148518
    13  C   -0.280744
    14  C    0.613624
    15  O   -0.477704
    16  O   -0.463212
    17  N   -0.750567
    18  C    0.384676
    19  C   -0.017742
    20  C    0.045486
    21  C    0.299554
    22  C   -0.344020
    23  C   -0.119022
    24  C   -0.248138
    25  N   -0.676287
    26  C    0.283409
    27  C    0.066276
    28  C   -0.000905
    29  C    0.349414
    30  C   -0.355093
    31  C   -0.244716
    32  C   -0.287520
    33  N   -0.690531
    34  C    0.251012
    35  C    0.033002
    36  C    0.149675
    37  C    0.243762
    38  C   -0.376765
    39  C    0.232680
    40  O   -0.502457
    41  C   -0.360593
    42  C    0.619191
    43  O   -0.461497
    44  O   -0.449738
    45  C   -0.065919
    46  C    0.012750
    47  C   -0.150754
    48  C    0.210034
    49  C   -0.375957
    50  C   -0.258527
    51  C   -0.149090
    52  C   -0.160162
    53  C   -0.043228
    54  C   -0.340806
    55  C   -0.152590
    56  C   -0.202879
    57  C   -0.143178
    58  C   -0.087625
    59  C   -0.310697
    60  C   -0.168578
    61  C   -0.183596
    62  C   -0.171508
    63  C   -0.061272
    64  C   -0.315460
    65  C   -0.291870
    66  H    0.080478
    67  H    0.073974
    68  H    0.074440
    69  H    0.123406
    70  H    0.086293
    71  H    0.110557
    72  H    0.122034
    73  H    0.072027
    74  H    0.117479
    75  H    0.104971
    76  H    0.128141
    77  H    0.144575
    78  H    0.123961
    79  H    0.129147
    80  H    0.110804
    81  H    0.085318
    82  H    0.094978
    83  H    0.095662
    84  H    0.128065
    85  H    0.119425
    86  H    0.118071
    87  H    0.095899
    88  H    0.100380
    89  H    0.094172
    90  H    0.108459
    91  H    0.122130
    92  H    0.115903
    93  H    0.157522
    94  H    0.128318
    95  H    0.159243
    96  H    0.090816
    97  H    0.123004
    98  H    0.115980
    99  H    0.134922
   100  H    0.114025
   101  H    0.073707
   102  H    0.111838
   103  H    0.102724
   104  H    0.108430
   105  H    0.087217
   106  H    0.075305
   107  H    0.079169
   108  H    0.097138
   109  H    0.080839
   110  H    0.094277
   111  H    0.076098
   112  H    0.104267
   113  H    0.109136
   114  H    0.084022
   115  H    0.083628
   116  H    0.091518
   117  H    0.092285
   118  H    0.078784
   119  H    0.093904
   120  H    0.099540
   121  H    0.075040
   122  H    0.097075
   123  H    0.098365
   124  H    0.114234
   125  H    0.094625
   126  H    0.066908
   127  H    0.064918
   128  H    0.091039
   129  H    0.099094
   130  H    0.092188
   131  H    0.095992
   132  H    0.105771
   133  H    0.099542
   134  H    0.072580
   135  H    0.103820
   136  H    0.092401
   137  H    0.106481
 Sum of Mulliken charges =  -0.00000

 Dipole moment (field-independent basis, Debye):
    X=             -0.6965    Y=              6.2410    Z=             -1.0925  Tot=              6.3740
 Quadrupole moment (field-independent basis, Debye-Ang):
   XX=           -307.8036   YY=           -398.4571   ZZ=           -402.0450
   XY=            -19.9986   XZ=             18.5267   YZ=              2.1507

 Normal termination of Gaussian 16 at Tue Sep 17 04:19:42 2019.
