 Gaussian 09, Revision D.01,
 Gaussian 09:  ES64L-G09RevD.01 24-Apr-2013

 -------------------------------------
 # td=(NStates=1) CAM-B3LYP/6-31G(d,p)
 -------------------------------------

 --
 TD
 --
 Symbolic Z-matrix:
 Charge =  0 Multiplicity = 1

                         Standard orientation:
 ---------------------------------------------------------------------
 Center     Atomic      Atomic             Coordinates (Angstroms)
 Number     Number       Type             X           Y           Z
 ---------------------------------------------------------------------
      1         12           0       -7.191796    0.699524    0.088087
      2          6           0       -4.863909   -1.906421    0.541642
      3          6           0       -4.863167    2.906814    1.034135
      4          6           0       -9.373008    3.151393   -0.417557
      5          6           0       -9.593081   -1.758157   -0.918659
      6          7           0       -5.130228    0.436897    0.750424
      7          6           0       -4.299798   -0.691551    0.802109
      8          6           0       -2.854910   -0.344123    1.250476
      9          6           0       -3.070043    1.157660    1.600176
     10          6           0       -4.415637    1.480382    1.117355
     11          6           0       -2.936046    1.371494    3.200800
     12          6           0       -1.886428   -0.676927    0.144972
     13          6           0       -0.487833   -0.505045    0.568215
     14          6           0        0.631592   -0.775186   -0.476926
     15          8           0        0.283828   -1.115621   -1.546344
     16          8           0        1.779772   -0.476443    0.019866
     17          7           0       -7.050155    2.677038    0.159100
     18          6           0       -6.056048    3.432350    0.656806
     19          6           0       -6.389070    4.745122    0.814967
     20          6           0       -7.779442    4.845790    0.322434
     21          6           0       -8.128916    3.514174   -0.029510
     22          6           0       -5.533062    5.852127    1.301163
     23          6           0       -8.531209    5.966347    0.180659
     24          6           0       -8.419662    7.292817    0.637042
     25          7           0       -9.073436    0.644834   -0.530112
     26          6           0       -9.893574    1.751219   -0.745348
     27          6           0      -11.119264    1.489243   -1.232445
     28          6           0      -11.225972    0.150246   -1.270049
     29          6           0       -9.928810   -0.362453   -0.957778
     30          6           0      -12.252235    2.536148   -1.422299
     31          6           0      -12.292096   -0.779151   -1.840432
     32          6           0      -12.237943   -1.245998   -3.320060
     33          7           0       -7.328548   -1.312448   -0.181938
     34          6           0       -8.274754   -2.194418   -0.577168
     35          6           0       -7.963834   -3.570679   -0.512852
     36          6           0       -6.564378   -3.529012   -0.209774
     37          6           0       -6.227953   -2.147673    0.051856
     38          6           0       -8.701318   -4.876695   -0.791023
     39          6           0       -5.319320   -4.321337    0.213956
     40          8           0       -5.261605   -5.564086    0.257031
     41          6           0       -4.168352   -3.341702    0.503746
     42          6           0       -3.544986   -3.682715    1.853201
     43          8           0       -3.745499   -3.205616    2.988278
     44          8           0       -2.749365   -4.726581    1.755762
     45          6           0       -2.224509   -5.250461    2.990576
     46          6           0        2.825351   -0.657428   -1.017046
     47          6           0        4.129089   -0.450168   -0.372316
     48          6           0        5.071143    0.286089   -0.778350
     49          6           0        5.028547    1.253356   -2.044389
     50          6           0        6.458949    0.411336   -0.002271
     51          6           0        7.583686   -0.230681   -0.772271
     52          6           0        8.885425   -0.163686    0.020281
     53          6           0       10.185813   -0.684977   -0.746043
     54          6           0       10.130774   -2.150841   -1.138768
     55          6           0       11.450632   -0.285516    0.101099
     56          6           0       12.775370   -0.509719   -0.714526
     57          6           0       14.023678   -0.161278    0.146863
     58          6           0       15.318503   -0.185216   -0.621102
     59          6           0       15.707306   -1.558337   -1.163061
     60          6           0       16.482634    0.421229    0.336225
     61          6           0       17.893639    0.587105   -0.312810
     62          6           0       18.896731    1.360388    0.651118
     63          6           0       20.239157    1.349911    0.137410
     64          6           0       20.493807    2.079644   -1.165541
     65          6           0       21.224913    1.995591    1.189929
     66          1           0       -3.947887    3.542158    1.492609
     67          1           0      -10.030327    4.033571   -0.494395
     68          1           0      -10.344641   -2.441643   -1.138231
     69          1           0       -2.452272   -0.975275    1.898817
     70          1           0       -2.390515    1.743028    1.031836
     71          1           0       -2.036798    0.775058    3.483471
     72          1           0       -2.820819    2.299614    3.587675
     73          1           0       -3.889617    0.883720    3.548570
     74          1           0       -2.216533   -1.695962   -0.333715
     75          1           0       -1.976231    0.027841   -0.624795
     76          1           0       -0.352981    0.528943    0.925423
     77          1           0       -0.290572   -1.098882    1.487409
     78          1           0       -5.587598    6.806544    0.920483
     79          1           0       -5.619681    5.804954    2.464586
     80          1           0       -4.394682    5.793552    0.948943
     81          1           0       -9.618765    5.851381   -0.526955
     82          1           0       -9.195184    7.995368    0.642326
     83          1           0       -7.822866    7.504797    1.428475
     84          1           0      -12.330596    3.190131   -2.322405
     85          1           0      -13.256801    1.870220   -1.489929
     86          1           0      -12.588370    3.335198   -0.623912
     87          1           0      -12.626352   -1.685738   -1.154281
     88          1           0      -13.342731   -0.341593   -1.674553
     89          1           0      -13.027290   -1.832241   -3.617696
     90          1           0      -12.414580   -0.400885   -4.135763
     91          1           0      -11.325462   -1.773825   -3.829241
     92          1           0       -9.106637   -4.875767   -1.976081
     93          1           0       -7.998394   -5.704866   -0.805582
     94          1           0       -9.512778   -5.152596   -0.077407
     95          1           0       -3.449130   -3.606536   -0.422780
     96          1           0       -1.909330   -4.338585    3.632226
     97          1           0       -3.171081   -5.905981    3.405615
     98          1           0       -1.360325   -5.828016    2.397785
     99          1           0        2.589459   -1.476307   -1.562611
    100          1           0        2.428713   -0.111946   -1.734331
    101          1           0        4.342117   -1.063397    0.480026
    102          1           0        3.969784    1.425334   -2.349078
    103          1           0        5.634139    2.161021   -2.130891
    104          1           0        5.640396    0.640531   -2.936545
    105          1           0        6.682469    1.536129    0.101173
    106          1           0        6.244869   -0.122260    1.019875
    107          1           0        7.389576   -1.290527   -1.110158
    108          1           0        7.774201    0.192172   -1.687548
    109          1           0        9.191246    0.818614    0.185226
    110          1           0        8.721456   -0.630363    0.997331
    111          1           0       10.296832   -0.036841   -1.628659
    112          1           0        9.245832   -2.194525   -1.916604
    113          1           0       11.024931   -2.720353   -1.615111
    114          1           0        9.774414   -2.855260   -0.272886
    115          1           0       11.460179    0.759172    0.303057
    116          1           0       11.644661   -0.893862    0.935770
    117          1           0       12.804741   -1.512142   -0.888277
    118          1           0       12.578398    0.000703   -1.653801
    119          1           0       13.961755    0.817241    0.500652
    120          1           0       14.078808   -0.972382    1.069198
    121          1           0       15.622344    0.552457   -1.504916
    122          1           0       15.602614   -2.254239   -0.270727
    123          1           0       14.861921   -2.073339   -1.904509
    124          1           0       16.559682   -1.390088   -1.728073
    125          1           0       16.137058    1.485713    0.592783
    126          1           0       16.377561   -0.079311    1.331158
    127          1           0       18.292416   -0.395787   -0.479917
    128          1           0       17.780191    1.117012   -1.252685
    129          1           0       18.447801    2.366891    0.896224
    130          1           0       18.958623    0.871559    1.616508
    131          1           0       20.531487    0.286679   -0.298423
    132          1           0       20.081123    3.095037   -1.062246
    133          1           0       21.572941    2.267011   -1.403760
    134          1           0       19.862827    1.764801   -1.883187
    135          1           0       21.276969    1.361552    2.214269
    136          1           0       22.143539    2.238700    0.533297
    137          1           0       20.643797    2.832620    1.420744
 ---------------------------------------------------------------------

 SCF Done:  E(RCAM-B3LYP) =  -2932.61904602     A.U. after   18 cycles

 Excitation energies and oscillator strengths:

 Excited State   1:      Singlet-A      2.1165 eV  585.80 nm  f=0.1200  <S**2>=0.000
     240 -> 243       -0.30423
     241 -> 242        0.62583
 This state for optimization and/or second-order correction.
 Total Energy, E(TD-HF/TD-KS) =  -2932.54126662
 Copying the excited state density for this state as the 1-particle RhoCI density.

 The electronic state is 1-A.
 Alpha  occ. eigenvalues --  -46.83755 -19.27484 -19.25627 -19.20985 -19.19997
 Alpha  occ. eigenvalues --  -19.19930 -14.41860 -14.39409 -14.39173 -14.38276
 Alpha  occ. eigenvalues --  -10.39017 -10.38717 -10.35587 -10.33280 -10.31478
 Alpha  occ. eigenvalues --  -10.30690 -10.30614 -10.30537 -10.29400 -10.29288
 Alpha  occ. eigenvalues --  -10.29212 -10.28883 -10.28709 -10.28661 -10.28514
 Alpha  occ. eigenvalues --  -10.28292 -10.28199 -10.28158 -10.28145 -10.28110
 Alpha  occ. eigenvalues --  -10.27929 -10.27868 -10.27868 -10.27763 -10.27463
 Alpha  occ. eigenvalues --  -10.27445 -10.27312 -10.27114 -10.26933 -10.26902
 Alpha  occ. eigenvalues --  -10.26857 -10.26649 -10.26545 -10.26497 -10.26381
 Alpha  occ. eigenvalues --  -10.26327 -10.26272 -10.26193 -10.26173 -10.25912
 Alpha  occ. eigenvalues --  -10.25862 -10.25847 -10.25787 -10.25676 -10.25611
 Alpha  occ. eigenvalues --  -10.25608 -10.25517 -10.25428 -10.25366 -10.25359
 Alpha  occ. eigenvalues --  -10.25147 -10.24998 -10.24084 -10.23903 -10.23433
 Alpha  occ. eigenvalues --   -3.12939  -1.87623  -1.87212  -1.87109  -1.21098
 Alpha  occ. eigenvalues --   -1.18621  -1.12013  -1.09115  -1.06760  -1.04900
 Alpha  occ. eigenvalues --   -1.04036  -1.03448  -1.02305  -0.92018  -0.91543
 Alpha  occ. eigenvalues --   -0.90955  -0.90691  -0.90019  -0.89535  -0.88643
 Alpha  occ. eigenvalues --   -0.88530  -0.87787  -0.86684  -0.86347  -0.86227
 Alpha  occ. eigenvalues --   -0.85279  -0.84048  -0.83004  -0.82763  -0.82177
 Alpha  occ. eigenvalues --   -0.81759  -0.80474  -0.80065  -0.79721  -0.77863
 Alpha  occ. eigenvalues --   -0.77577  -0.76670  -0.76329  -0.76262  -0.75660
 Alpha  occ. eigenvalues --   -0.75124  -0.74766  -0.74710  -0.74051  -0.72869
 Alpha  occ. eigenvalues --   -0.72055  -0.71339  -0.69912  -0.69465  -0.69164
 Alpha  occ. eigenvalues --   -0.67354  -0.66694  -0.66330  -0.65316  -0.65127
 Alpha  occ. eigenvalues --   -0.64117  -0.63352  -0.62596  -0.62513  -0.61470
 Alpha  occ. eigenvalues --   -0.61105  -0.60816  -0.60640  -0.59697  -0.59492
 Alpha  occ. eigenvalues --   -0.58418  -0.57777  -0.57690  -0.57108  -0.56630
 Alpha  occ. eigenvalues --   -0.56159  -0.55726  -0.55506  -0.55215  -0.55186
 Alpha  occ. eigenvalues --   -0.54596  -0.54274  -0.53913  -0.53601  -0.53176
 Alpha  occ. eigenvalues --   -0.52688  -0.52569  -0.52483  -0.52419  -0.52127
 Alpha  occ. eigenvalues --   -0.51859  -0.51223  -0.50887  -0.50662  -0.50484
 Alpha  occ. eigenvalues --   -0.50093  -0.50052  -0.49810  -0.49603  -0.48768
 Alpha  occ. eigenvalues --   -0.48622  -0.48151  -0.48006  -0.47936  -0.47712
 Alpha  occ. eigenvalues --   -0.47603  -0.47537  -0.47266  -0.46939  -0.46676
 Alpha  occ. eigenvalues --   -0.46637  -0.46427  -0.46299  -0.46116  -0.45747
 Alpha  occ. eigenvalues --   -0.45538  -0.45289  -0.45166  -0.45138  -0.44711
 Alpha  occ. eigenvalues --   -0.44603  -0.44459  -0.44425  -0.44066  -0.43760
 Alpha  occ. eigenvalues --   -0.43663  -0.43463  -0.43421  -0.43161  -0.43011
 Alpha  occ. eigenvalues --   -0.42933  -0.42886  -0.42776  -0.42599  -0.42442
 Alpha  occ. eigenvalues --   -0.42270  -0.41868  -0.41723  -0.41603  -0.41289
 Alpha  occ. eigenvalues --   -0.41143  -0.40776  -0.40421  -0.40336  -0.40205
 Alpha  occ. eigenvalues --   -0.40102  -0.40046  -0.39840  -0.39616  -0.39119
 Alpha  occ. eigenvalues --   -0.38879  -0.38843  -0.38667  -0.38344  -0.38187
 Alpha  occ. eigenvalues --   -0.37704  -0.37668  -0.37452  -0.37246  -0.37124
 Alpha  occ. eigenvalues --   -0.36505  -0.36246  -0.36074  -0.35736  -0.35595
 Alpha  occ. eigenvalues --   -0.35259  -0.35025  -0.34843  -0.34264  -0.33795
 Alpha  occ. eigenvalues --   -0.32944  -0.32488  -0.32194  -0.31615  -0.30379
 Alpha  occ. eigenvalues --   -0.29743  -0.29401  -0.28524  -0.26088  -0.22407
 Alpha  occ. eigenvalues --   -0.21689
 Alpha virt. eigenvalues --   -0.06352  -0.04012   0.01205   0.03292   0.05451
 Alpha virt. eigenvalues --    0.06216   0.06996   0.07283   0.07358   0.08319
 Alpha virt. eigenvalues --    0.08947   0.10751   0.11108   0.11528   0.11597

 Mulliken charges:
               1
     1  Mg   0.826918
     2  C    0.027258
     3  C   -0.249748
     4  C   -0.191458
     5  C   -0.130195
     6  N   -0.623089
     7  C    0.269037
     8  C   -0.097836
     9  C   -0.177846
    10  C    0.362205
    11  C   -0.300207
    12  C   -0.167945
    13  C   -0.297252
    14  C    0.615361
    15  O   -0.466996
    16  O   -0.452320
    17  N   -0.771126
    18  C    0.390554
    19  C    0.040576
    20  C    0.067600
    21  C    0.364651
    22  C   -0.372722
    23  C   -0.145683
    24  C   -0.258687
    25  N   -0.681613
    26  C    0.274072
    27  C    0.067264
    28  C    0.036989
    29  C    0.251545
    30  C   -0.378356
    31  C   -0.255141
    32  C   -0.303631
    33  N   -0.685751
    34  C    0.257408
    35  C    0.050395
    36  C   -0.044609
    37  C    0.260449
    38  C   -0.373046
    39  C    0.381688
    40  O   -0.477432
    41  C   -0.306636
    42  C    0.625842
    43  O   -0.511845
    44  O   -0.431038
    45  C   -0.079765
    46  C   -0.006056
    47  C   -0.135855
    48  C    0.137278
    49  C   -0.361331
    50  C   -0.221392
    51  C   -0.174069
    52  C   -0.169302
    53  C   -0.067376
    54  C   -0.305790
    55  C   -0.183390
    56  C   -0.189293
    57  C   -0.168248
    58  C   -0.060795
    59  C   -0.279466
    60  C   -0.189194
    61  C   -0.198900
    62  C   -0.165518
    63  C   -0.054595
    64  C   -0.314831
    65  C   -0.300629
    66  H    0.072501
    67  H    0.080367
    68  H    0.103139
    69  H    0.116237
    70  H    0.115079
    71  H    0.109920
    72  H    0.121858
    73  H    0.127775
    74  H    0.106783
    75  H    0.111318
    76  H    0.122188
    77  H    0.111262
    78  H    0.138247
    79  H    0.121523
    80  H    0.096496
    81  H    0.067249
    82  H    0.109551
    83  H    0.104045
    84  H    0.122935
    85  H    0.091543
    86  H    0.111468
    87  H    0.098512
    88  H    0.100529
    89  H    0.120758
    90  H    0.089215
    91  H    0.102776
    92  H    0.091861
    93  H    0.159101
    94  H    0.127692
    95  H    0.171556
    96  H    0.144069
    97  H    0.134297
    98  H    0.121707
    99  H    0.144318
   100  H    0.125994
   101  H    0.098721
   102  H    0.117470
   103  H    0.126294
   104  H    0.089858
   105  H    0.101598
   106  H    0.089404
   107  H    0.094754
   108  H    0.102431
   109  H    0.097065
   110  H    0.092064
   111  H    0.083725
   112  H    0.085858
   113  H    0.102705
   114  H    0.093146
   115  H    0.090364
   116  H    0.092970
   117  H    0.105548
   118  H    0.089443
   119  H    0.100597
   120  H    0.071551
   121  H    0.066750
   122  H    0.092900
   123  H    0.069586
   124  H    0.110834
   125  H    0.075798
   126  H    0.082997
   127  H    0.108701
   128  H    0.098344
   129  H    0.085872
   130  H    0.100569
   131  H    0.070150
   132  H    0.082852
   133  H    0.101875
   134  H    0.107891
   135  H    0.085935
   136  H    0.094359
   137  H    0.116070
 Sum of Mulliken charges =   0.00000

 Dipole moment (field-independent basis, Debye):
    X=              3.1096    Y=              4.3628    Z=             -0.0787  Tot=              5.3581
 Quadrupole moment (field-independent basis, Debye-Ang):
   XX=           -356.5801   YY=           -397.5635   ZZ=           -398.2840
   XY=            -11.7385   XZ=              4.7597   YZ=              4.2345

 Normal termination of Gaussian 09 at Fri Jul  5 03:20:22 2019.
