 Gaussian 16, Revision A.03,
 Gaussian 16:  ES64L-G16RevA.03 25-Dec-2016

 ----------------------------------------------------------------------
 # td=(NStates=1) iop(3/107=0140000000,3/108=0140000000) CAM-B3LYP/6-31
 G(d,p)
 ----------------------------------------------------------------------

 --
 TD
 --
 Symbolic Z-matrix:
 Charge =  0 Multiplicity = 1

                         Standard orientation:
 ---------------------------------------------------------------------
 Center     Atomic      Atomic             Coordinates (Angstroms)
 Number     Number       Type             X           Y           Z
 ---------------------------------------------------------------------
      1         12           0       -7.093089    0.639929    0.104931
      2          6           0       -4.883889   -1.937379    0.457348
      3          6           0       -4.822292    2.747597    1.195909
      4          6           0       -9.437619    3.188339   -0.422959
      5          6           0       -9.542834   -1.602999   -0.856086
      6          7           0       -5.015755    0.383437    0.683650
      7          6           0       -4.334051   -0.677471    0.852961
      8          6           0       -2.848031   -0.444402    1.210905
      9          6           0       -2.996655    1.003123    1.766122
     10          6           0       -4.267884    1.453157    1.216779
     11          6           0       -2.933637    1.120750    3.301283
     12          6           0       -1.972883   -0.570741    0.044852
     13          6           0       -0.487132   -0.480354    0.564256
     14          6           0        0.518602   -0.718543   -0.579970
     15          8           0        0.190598   -0.996392   -1.702995
     16          8           0        1.715789   -0.399165   -0.128192
     17          7           0       -7.071612    2.616431    0.270081
     18          6           0       -6.000020    3.332511    0.774935
     19          6           0       -6.349645    4.760293    0.792194
     20          6           0       -7.726209    4.852789    0.331473
     21          6           0       -8.099210    3.562426    0.049674
     22          6           0       -5.385170    5.773181    1.391545
     23          6           0       -8.452637    6.031188    0.129969
     24          6           0       -8.307693    7.321880    0.570026
     25          7           0       -9.122213    0.737610   -0.361095
     26          6           0       -9.844116    1.842409   -0.610519
     27          6           0      -11.159224    1.533018   -1.132798
     28          6           0      -11.286567    0.189113   -1.272067
     29          6           0       -9.921622   -0.330515   -0.864848
     30          6           0      -12.269998    2.596773   -1.439567
     31          6           0      -12.476092   -0.568355   -1.707957
     32          6           0      -12.417224   -1.052209   -3.105486
     33          7           0       -7.291982   -1.303899   -0.096228
     34          6           0       -8.279854   -2.206378   -0.477061
     35          6           0       -7.889502   -3.603966   -0.426679
     36          6           0       -6.560839   -3.517499   -0.059111
     37          6           0       -6.278247   -2.177070    0.122854
     38          6           0       -8.662822   -4.842713   -0.877821
     39          6           0       -5.502086   -4.355997    0.103200
     40          8           0       -5.303664   -5.594878    0.069320
     41          6           0       -4.216344   -3.292508    0.452993
     42          6           0       -3.536230   -3.702069    1.794729
     43          8           0       -3.739008   -3.236384    2.869233
     44          8           0       -2.704344   -4.731133    1.672569
     45          6           0       -2.122208   -5.312611    2.792150
     46          6           0        2.782865   -0.612715   -1.118212
     47          6           0        4.190806   -0.550466   -0.526782
     48          6           0        5.183654    0.252977   -0.940240
     49          6           0        5.068457    1.122395   -2.282070
     50          6           0        6.482863    0.259438   -0.288284
     51          6           0        7.721484   -0.286895   -1.060898
     52          6           0        8.975770   -0.231510   -0.272278
     53          6           0       10.251552   -0.771602   -0.960876
     54          6           0       10.204252   -2.210425   -1.175999
     55          6           0       11.391846   -0.377237   -0.046097
     56          6           0       12.774167   -0.534381   -0.692938
     57          6           0       13.946472   -0.102006    0.264114
     58          6           0       15.326249   -0.060026   -0.418466
     59          6           0       15.728700   -1.546079   -0.965490
     60          6           0       16.387033    0.427352    0.439366
     61          6           0       17.841064    0.558053   -0.127204
     62          6           0       18.675700    1.364271    0.720033
     63          6           0       20.187224    1.476103    0.159337
     64          6           0       20.216944    2.336440   -1.062555
     65          6           0       21.125428    2.006253    1.246980
     66          1           0       -4.256995    3.642401    1.668756
     67          1           0      -10.042709    4.032489   -0.701086
     68          1           0      -10.361095   -2.288499   -1.179325
     69          1           0       -2.700964   -1.254845    2.044575
     70          1           0       -2.246082    1.756088    1.249611
     71          1           0       -1.844851    0.568959    3.727396
     72          1           0       -3.152772    2.116928    3.722714
     73          1           0       -3.558848    0.388798    3.812807
     74          1           0       -2.071513   -1.359552   -0.624025
     75          1           0       -2.004498    0.081324   -0.931154
     76          1           0       -0.277586    0.461169    0.826207
     77          1           0       -0.229667   -1.180972    1.349292
     78          1           0       -5.406067    6.615544    0.697819
     79          1           0       -5.701794    5.914557    2.477985
     80          1           0       -4.341168    5.333614    1.299605
     81          1           0       -9.100617    5.987897   -0.797807
     82          1           0       -9.062681    8.083895    0.255404
     83          1           0       -7.605594    7.489158    1.205413
     84          1           0      -12.034615    3.243635   -2.347847
     85          1           0      -13.064973    1.994096   -1.673829
     86          1           0      -12.515033    3.207657   -0.534179
     87          1           0      -12.550970   -1.608878   -1.090775
     88          1           0      -13.405952   -0.041356   -1.464282
     89          1           0      -13.437510   -1.652558   -3.101540
     90          1           0      -12.402786   -0.194559   -3.844724
     91          1           0      -11.665991   -1.976900   -3.434943
     92          1           0       -8.961959   -4.917328   -1.862491
     93          1           0       -7.844891   -5.684713   -0.766642
     94          1           0       -9.642937   -4.940732   -0.205082
     95          1           0       -3.554658   -3.332269   -0.337119
     96          1           0       -1.636700   -4.490112    3.297826
     97          1           0       -2.761187   -5.959543    3.557390
     98          1           0       -1.402162   -5.975651    2.511719
     99          1           0        2.546969   -1.613383   -1.724966
    100          1           0        2.915242    0.228164   -1.929094
    101          1           0        4.294489   -0.971306    0.564068
    102          1           0        4.054417    1.052432   -2.588273
    103          1           0        5.398226    2.136352   -2.139370
    104          1           0        6.003030    0.757311   -3.018698
    105          1           0        6.602708    1.326056   -0.071250
    106          1           0        6.291904   -0.179486    0.645042
    107          1           0        7.323456   -1.472213   -1.140983
    108          1           0        7.800124    0.292087   -1.932295
    109          1           0        9.217873    0.663780    0.192983
    110          1           0        8.952655   -0.921559    0.698981
    111          1           0       10.319601   -0.244184   -1.954726
    112          1           0        9.241289   -2.399730   -1.707204
    113          1           0       11.104113   -2.521314   -1.849233
    114          1           0       10.030594   -2.558914   -0.108473
    115          1           0       11.049020    0.746574    0.308485
    116          1           0       11.361936   -1.117227    0.813459
    117          1           0       12.732617   -1.570816   -0.987401
    118          1           0       13.082947    0.102160   -1.445879
    119          1           0       13.802190    0.770826    0.604052
    120          1           0       13.949557   -0.831607    1.160370
    121          1           0       15.339064    0.579850   -1.337712
    122          1           0       15.806857   -1.999970    0.194351
    123          1           0       14.852118   -1.961508   -1.589548
    124          1           0       16.736032   -1.519770   -1.308318
    125          1           0       16.204883    1.459951    0.762983
    126          1           0       16.449526   -0.216609    1.358878
    127          1           0       18.367409   -0.500671   -0.231060
    128          1           0       17.722931    1.130815   -1.111070
    129          1           0       18.343306    2.222883    1.098455
    130          1           0       18.863549    0.838655    1.692623
    131          1           0       20.727815    0.459281    0.037119
    132          1           0       19.797404    3.489569   -0.879730
    133          1           0       21.200436    2.611115   -1.300437
    134          1           0       19.793014    1.721910   -1.955624
    135          1           0       21.019628    1.207347    2.005628
    136          1           0       22.011592    2.130135    0.904851
    137          1           0       20.626352    2.954452    1.639829
 ---------------------------------------------------------------------

 SCF Done:  E(RCAM-B3LYP) =  -2933.47433731     A.U. after   16 cycles

 Excitation energies and oscillator strengths:

 Excited State   1:      Singlet-A      1.9360 eV  640.40 nm  f=0.3047  <S**2>=0.000
     240 -> 243       -0.22336
     241 -> 242        0.66813
 This state for optimization and/or second-order correction.
 Total Energy, E(TD-HF/TD-DFT) =  -2933.40318938
 Copying the excited state density for this state as the 1-particle RhoCI density.

 The electronic state is 1-A.
 Alpha  occ. eigenvalues --  -46.79799 -19.23485 -19.20981 -19.16808 -19.15912
 Alpha  occ. eigenvalues --  -19.15539 -14.37815 -14.35675 -14.35090 -14.34785
 Alpha  occ. eigenvalues --  -10.34216 -10.33641 -10.30034 -10.29435 -10.26691
 Alpha  occ. eigenvalues --  -10.25887 -10.25608 -10.25252 -10.24965 -10.24884
 Alpha  occ. eigenvalues --  -10.24613 -10.24595 -10.24584 -10.24493 -10.24076
 Alpha  occ. eigenvalues --  -10.24037 -10.23651 -10.23560 -10.23540 -10.23443
 Alpha  occ. eigenvalues --  -10.23348 -10.23278 -10.23221 -10.23059 -10.22845
 Alpha  occ. eigenvalues --  -10.22764 -10.22732 -10.22658 -10.22614 -10.22593
 Alpha  occ. eigenvalues --  -10.22506 -10.22207 -10.22190 -10.22102 -10.22071
 Alpha  occ. eigenvalues --  -10.22027 -10.21940 -10.21881 -10.21870 -10.21748
 Alpha  occ. eigenvalues --  -10.21617 -10.21602 -10.21287 -10.21220 -10.21144
 Alpha  occ. eigenvalues --  -10.21137 -10.21128 -10.20971 -10.20805 -10.20445
 Alpha  occ. eigenvalues --  -10.20315 -10.20227 -10.19763 -10.19527 -10.18989
 Alpha  occ. eigenvalues --   -3.08506  -1.83428  -1.82964  -1.82947  -1.14332
 Alpha  occ. eigenvalues --   -1.14016  -1.05389  -1.04457  -1.03508  -1.01021
 Alpha  occ. eigenvalues --   -0.99221  -0.97391  -0.96433  -0.87235  -0.86835
 Alpha  occ. eigenvalues --   -0.86035  -0.85548  -0.85372  -0.84505  -0.84269
 Alpha  occ. eigenvalues --   -0.83609  -0.83358  -0.82324  -0.81995  -0.81205
 Alpha  occ. eigenvalues --   -0.80425  -0.79394  -0.78605  -0.78429  -0.77644
 Alpha  occ. eigenvalues --   -0.77093  -0.76464  -0.75833  -0.75224  -0.73566
 Alpha  occ. eigenvalues --   -0.73321  -0.72475  -0.72266  -0.71348  -0.71108
 Alpha  occ. eigenvalues --   -0.70587  -0.70369  -0.69343  -0.69124  -0.68071
 Alpha  occ. eigenvalues --   -0.67173  -0.66340  -0.65006  -0.64645  -0.64396
 Alpha  occ. eigenvalues --   -0.63369  -0.62571  -0.61466  -0.60706  -0.60576
 Alpha  occ. eigenvalues --   -0.59500  -0.59252  -0.58504  -0.58219  -0.57680
 Alpha  occ. eigenvalues --   -0.57117  -0.56459  -0.56202  -0.55028  -0.54852
 Alpha  occ. eigenvalues --   -0.54350  -0.53901  -0.53552  -0.53251  -0.53001
 Alpha  occ. eigenvalues --   -0.52195  -0.51689  -0.51329  -0.51193  -0.50921
 Alpha  occ. eigenvalues --   -0.50791  -0.50311  -0.50169  -0.50061  -0.49966
 Alpha  occ. eigenvalues --   -0.49474  -0.49003  -0.48642  -0.48243  -0.47970
 Alpha  occ. eigenvalues --   -0.47932  -0.47498  -0.47374  -0.47255  -0.47075
 Alpha  occ. eigenvalues --   -0.46576  -0.46547  -0.46333  -0.46114  -0.45992
 Alpha  occ. eigenvalues --   -0.45681  -0.45547  -0.45379  -0.45245  -0.45141
 Alpha  occ. eigenvalues --   -0.45035  -0.44694  -0.44573  -0.44353  -0.43490
 Alpha  occ. eigenvalues --   -0.43303  -0.42893  -0.42813  -0.42756  -0.42584
 Alpha  occ. eigenvalues --   -0.42560  -0.42097  -0.41981  -0.41854  -0.41687
 Alpha  occ. eigenvalues --   -0.41645  -0.41295  -0.41201  -0.40996  -0.40945
 Alpha  occ. eigenvalues --   -0.40825  -0.40362  -0.40088  -0.40052  -0.39892
 Alpha  occ. eigenvalues --   -0.39800  -0.39564  -0.39493  -0.39253  -0.39032
 Alpha  occ. eigenvalues --   -0.38991  -0.38746  -0.38425  -0.38324  -0.38206
 Alpha  occ. eigenvalues --   -0.38041  -0.37549  -0.37363  -0.37244  -0.37064
 Alpha  occ. eigenvalues --   -0.36978  -0.36233  -0.36037  -0.35909  -0.35788
 Alpha  occ. eigenvalues --   -0.35361  -0.35166  -0.34936  -0.34872  -0.34654
 Alpha  occ. eigenvalues --   -0.34521  -0.34342  -0.34250  -0.34079  -0.33605
 Alpha  occ. eigenvalues --   -0.33508  -0.33154  -0.32843  -0.32793  -0.32196
 Alpha  occ. eigenvalues --   -0.32085  -0.31794  -0.31638  -0.30880  -0.30418
 Alpha  occ. eigenvalues --   -0.30237  -0.29709  -0.29335  -0.27859  -0.27811
 Alpha  occ. eigenvalues --   -0.27116  -0.26288  -0.26132  -0.24208  -0.21133
 Alpha  occ. eigenvalues --   -0.19885
 Alpha virt. eigenvalues --   -0.07771  -0.03004  -0.00597   0.01700   0.03355
 Alpha virt. eigenvalues --    0.04228   0.04717   0.05217   0.05404   0.05673
 Alpha virt. eigenvalues --    0.06292   0.08668   0.09144   0.09641   0.09760

 Mulliken charges:
               1
     1  Mg   0.811995
     2  C    0.020500
     3  C   -0.209419
     4  C   -0.171410
     5  C   -0.220149
     6  N   -0.582477
     7  C    0.308668
     8  C   -0.149990
     9  C   -0.143674
    10  C    0.339347
    11  C   -0.303251
    12  C   -0.183591
    13  C   -0.256273
    14  C    0.590116
    15  O   -0.470711
    16  O   -0.445662
    17  N   -0.731673
    18  C    0.336735
    19  C   -0.015910
    20  C    0.061273
    21  C    0.284439
    22  C   -0.374502
    23  C   -0.117645
    24  C   -0.230008
    25  N   -0.681859
    26  C    0.348880
    27  C   -0.017329
    28  C    0.096143
    29  C    0.289861
    30  C   -0.361332
    31  C   -0.259861
    32  C   -0.282645
    33  N   -0.711581
    34  C    0.228859
    35  C    0.062678
    36  C    0.115833
    37  C    0.313713
    38  C   -0.379806
    39  C    0.284998
    40  O   -0.488693
    41  C   -0.324543
    42  C    0.595757
    43  O   -0.467372
    44  O   -0.419898
    45  C   -0.073403
    46  C    0.003530
    47  C   -0.136897
    48  C    0.119930
    49  C   -0.356794
    50  C   -0.227317
    51  C   -0.155113
    52  C   -0.158140
    53  C   -0.063223
    54  C   -0.284064
    55  C   -0.159397
    56  C   -0.178569
    57  C   -0.150148
    58  C   -0.082045
    59  C   -0.298107
    60  C   -0.164087
    61  C   -0.164810
    62  C   -0.158252
    63  C   -0.069063
    64  C   -0.287954
    65  C   -0.292277
    66  H    0.055263
    67  H    0.086210
    68  H    0.069498
    69  H    0.130787
    70  H    0.103797
    71  H    0.070242
    72  H    0.119345
    73  H    0.139839
    74  H    0.134472
    75  H    0.108398
    76  H    0.144150
    77  H    0.130898
    78  H    0.130527
    79  H    0.134359
    80  H    0.113488
    81  H    0.083758
    82  H    0.102332
    83  H    0.086266
    84  H    0.116905
    85  H    0.111214
    86  H    0.122914
    87  H    0.088955
    88  H    0.121389
    89  H    0.089539
    90  H    0.111198
    91  H    0.098575
    92  H    0.142011
    93  H    0.141103
    94  H    0.111333
    95  H    0.148093
    96  H    0.112754
    97  H    0.105903
    98  H    0.126685
    99  H    0.129705
   100  H    0.097965
   101  H    0.077495
   102  H    0.118731
   103  H    0.126689
   104  H    0.099003
   105  H    0.094640
   106  H    0.101184
   107  H    0.085110
   108  H    0.102126
   109  H    0.097399
   110  H    0.061618
   111  H    0.072248
   112  H    0.099818
   113  H    0.100122
   114  H    0.091467
   115  H    0.056909
   116  H    0.084123
   117  H    0.096702
   118  H    0.101641
   119  H    0.101017
   120  H    0.070280
   121  H    0.071636
   122  H    0.063872
   123  H    0.100606
   124  H    0.115794
   125  H    0.082705
   126  H    0.081071
   127  H    0.082067
   128  H    0.086038
   129  H    0.098345
   130  H    0.073003
   131  H    0.074401
   132  H    0.070174
   133  H    0.104766
   134  H    0.097458
   135  H    0.096606
   136  H    0.107623
   137  H    0.083312
 Sum of Mulliken charges =  -0.00000

 Dipole moment (field-independent basis, Debye):
    X=              2.2081    Y=              5.2197    Z=             -0.4267  Tot=              5.6836
 Quadrupole moment (field-independent basis, Debye-Ang):
   XX=           -331.9338   YY=           -402.7475   ZZ=           -398.8854
   XY=            -11.5113   XZ=             13.3701   YZ=             -1.1519

 Normal termination of Gaussian 16 at Wed Sep 11 07:49:26 2019.
