 Gaussian 16, Revision A.03,
 Gaussian 16:  ES64L-G16RevA.03 25-Dec-2016

 -------------------------------------
 # td=(NStates=1) CAM-B3LYP/6-31G(d,p)
 -------------------------------------

 --
 TD
 --
 Symbolic Z-matrix:
 Charge =  0 Multiplicity = 1

                         Standard orientation:
 ---------------------------------------------------------------------
 Center     Atomic      Atomic             Coordinates (Angstroms)
 Number     Number       Type             X           Y           Z
 ---------------------------------------------------------------------
      1         12           0       -7.150327    0.662925    0.126807
      2          6           0       -4.788951   -1.975458    0.590725
      3          6           0       -4.824893    2.845428    1.137175
      4          6           0       -9.496829    3.073864   -0.391261
      5          6           0       -9.482988   -1.785200   -0.898025
      6          7           0       -5.085743    0.401920    0.759757
      7          6           0       -4.251919   -0.718979    0.918329
      8          6           0       -2.956686   -0.346508    1.263298
      9          6           0       -3.012868    1.137586    1.614199
     10          6           0       -4.468032    1.570261    1.114517
     11          6           0       -2.918678    1.286312    3.116503
     12          6           0       -2.034434   -0.619659    0.085975
     13          6           0       -0.521989   -0.527102    0.525738
     14          6           0        0.548239   -0.758209   -0.682552
     15          8           0        0.169224   -1.063427   -1.781719
     16          8           0        1.826422   -0.519093   -0.210969
     17          7           0       -7.122184    2.625825    0.242799
     18          6           0       -6.088987    3.397556    0.744341
     19          6           0       -6.516777    4.797310    0.724966
     20          6           0       -7.854217    4.848231    0.317478
     21          6           0       -8.239698    3.462624   -0.040704
     22          6           0       -5.517672    5.883906    1.073850
     23          6           0       -8.709860    6.035456    0.209193
     24          6           0       -8.567912    7.165056    0.918120
     25          7           0       -9.101027    0.647140   -0.571252
     26          6           0       -9.912645    1.800539   -0.687872
     27          6           0      -11.231786    1.392558   -1.127062
     28          6           0      -11.199683   -0.002008   -1.232735
     29          6           0       -9.876596   -0.455617   -0.792358
     30          6           0      -12.335681    2.444172   -1.221092
     31          6           0      -12.315041   -0.885234   -1.680428
     32          6           0      -12.181363   -1.107588   -3.260159
     33          7           0       -7.170762   -1.368721   -0.310305
     34          6           0       -8.189046   -2.188802   -0.670364
     35          6           0       -7.697254   -3.609235   -0.533034
     36          6           0       -6.453344   -3.573527    0.016731
     37          6           0       -6.131476   -2.174481    0.142553
     38          6           0       -8.462921   -4.880668   -0.885628
     39          6           0       -5.263003   -4.357458    0.339745
     40          8           0       -5.018694   -5.566603    0.123642
     41          6           0       -4.033462   -3.359019    0.607004
     42          6           0       -3.489705   -3.584450    1.974749
     43          8           0       -3.687656   -3.040186    3.050488
     44          8           0       -2.737800   -4.688512    1.845930
     45          6           0       -2.061960   -5.219508    3.081567
     46          6           0        2.804866   -0.674776   -1.159464
     47          6           0        4.068538   -0.443045   -0.645320
     48          6           0        5.135260    0.291711   -1.089895
     49          6           0        5.050188    1.063295   -2.427004
     50          6           0        6.448823    0.340644   -0.295764
     51          6           0        7.647909   -0.150009   -1.116193
     52          6           0        8.956951    0.076170   -0.267901
     53          6           0       10.181216   -0.442065   -0.974268
     54          6           0       10.089445   -1.875500   -1.403106
     55          6           0       11.485544   -0.181811   -0.061529
     56          6           0       12.764850   -0.368871   -0.719186
     57          6           0       13.953706    0.014620    0.155153
     58          6           0       15.339723   -0.198482   -0.405306
     59          6           0       15.534351   -1.771461   -0.645782
     60          6           0       16.400001    0.388103    0.463569
     61          6           0       17.788636    0.546698   -0.108298
     62          6           0       18.747490    1.259045    0.792712
     63          6           0       20.194431    1.362281    0.285954
     64          6           0       20.310627    2.229368   -1.028019
     65          6           0       20.997748    1.988103    1.292914
     66          1           0       -4.136694    3.621816    1.307124
     67          1           0      -10.228453    3.955446   -0.173550
     68          1           0      -10.277472   -2.469238   -1.243774
     69          1           0       -2.433632   -0.637422    2.019786
     70          1           0       -2.190192    1.608393    1.003404
     71          1           0       -2.058120    0.934874    3.780161
     72          1           0       -3.026299    2.156186    3.491955
     73          1           0       -3.683356    0.748195    3.613147
     74          1           0       -2.214474   -1.447025   -0.494611
     75          1           0       -2.140218    0.195644   -0.604445
     76          1           0       -0.477184    0.526948    0.989771
     77          1           0       -0.293189   -1.241528    1.309632
     78          1           0       -5.968176    6.844009    0.684183
     79          1           0       -5.495766    6.027385    2.104155
     80          1           0       -4.553069    5.632236    0.610582
     81          1           0       -9.716408    5.915440   -0.361522
     82          1           0       -8.853965    8.073462    0.670814
     83          1           0       -7.900511    7.003499    1.637284
     84          1           0      -11.837799    3.005581   -2.057594
     85          1           0      -13.136243    2.046561   -1.969609
     86          1           0      -12.652936    3.033578   -0.414641
     87          1           0      -12.152600   -2.007494   -1.265512
     88          1           0      -13.379554   -0.595184   -1.503568
     89          1           0      -12.975822   -1.689554   -3.812395
     90          1           0      -11.915054   -0.107704   -3.716927
     91          1           0      -11.236722   -1.578423   -3.528058
     92          1           0       -8.853805   -5.113819   -1.772007
     93          1           0       -7.915004   -5.716915   -0.555455
     94          1           0       -9.373243   -5.102421   -0.232542
     95          1           0       -3.150678   -3.460793   -0.063222
     96          1           0       -1.625730   -4.490428    3.720109
     97          1           0       -2.683499   -5.583908    3.815668
     98          1           0       -1.402408   -6.134933    3.007813
     99          1           0        2.680543   -1.622397   -1.771823
    100          1           0        2.656028    0.175365   -1.871446
    101          1           0        4.140182   -1.101725    0.437499
    102          1           0        4.041103    1.248450   -2.808461
    103          1           0        5.515268    1.914636   -1.996439
    104          1           0        5.583647    0.461933   -3.283139
    105          1           0        6.438276    1.377721    0.120363
    106          1           0        6.294970   -0.251921    0.712829
    107          1           0        7.482987   -1.209209   -1.255818
    108          1           0        8.020576    0.554353   -1.906571
    109          1           0        9.038990    1.056149   -0.209027
    110          1           0        9.014931   -0.601679    0.645504
    111          1           0       10.159485    0.085951   -1.846811
    112          1           0        9.303343   -1.933482   -2.262658
    113          1           0       10.911809   -2.298150   -1.911044
    114          1           0        9.849831   -2.541933   -0.649555
    115          1           0       11.260766    0.778884    0.433745
    116          1           0       11.527785   -0.852207    0.745640
    117          1           0       12.920848   -1.444488   -0.838508
    118          1           0       12.828990    0.088317   -1.667439
    119          1           0       13.752052    0.893372    0.468174
    120          1           0       13.830809   -0.505747    1.067527
    121          1           0       15.528214    0.127088   -1.470344
    122          1           0       15.631584   -2.466408    0.248159
    123          1           0       14.941951   -2.266720   -1.422940
    124          1           0       16.550139   -1.988237   -1.040431
    125          1           0       15.955462    1.535125    0.567297
    126          1           0       16.565106   -0.076395    1.414877
    127          1           0       18.147612   -0.581745   -0.426072
    128          1           0       17.628072    0.975241   -1.128127
    129          1           0       18.514533    2.065188    1.231448
    130          1           0       18.932756    0.816453    1.881606
    131          1           0       20.572351    0.314301    0.025605
    132          1           0       19.874380    3.253880   -0.837972
    133          1           0       21.247660    2.422645   -1.209454
    134          1           0       19.768635    1.520338   -1.929593
    135          1           0       20.867872    1.433855    2.244414
    136          1           0       22.075010    1.941710    1.166483
    137          1           0       20.472552    2.876355    1.408206
 ---------------------------------------------------------------------

 SCF Done:  E(RCAM-B3LYP) =  -2932.61444257     A.U. after   18 cycles

 Excitation energies and oscillator strengths:

 Excited State   1:      Singlet-A      2.0056 eV  618.19 nm  f=0.2665  <S**2>=0.000
     240 -> 243        0.25096
     241 -> 242        0.65493
 This state for optimization and/or second-order correction.
 Total Energy, E(TD-HF/TD-DFT) =  -2932.54073766
 Copying the excited state density for this state as the 1-particle RhoCI density.

 The electronic state is 1-A.
 Alpha  occ. eigenvalues --  -46.83944 -19.27014 -19.26544 -19.22643 -19.21086
 Alpha  occ. eigenvalues --  -19.20791 -14.41402 -14.39906 -14.39656 -14.39151
 Alpha  occ. eigenvalues --  -10.40639 -10.39051 -10.36485 -10.31032 -10.30903
 Alpha  occ. eigenvalues --  -10.30879 -10.30523 -10.30177 -10.30166 -10.29535
 Alpha  occ. eigenvalues --  -10.29453 -10.29420 -10.29237 -10.28677 -10.28386
 Alpha  occ. eigenvalues --  -10.28321 -10.28028 -10.27860 -10.27790 -10.27741
 Alpha  occ. eigenvalues --  -10.27574 -10.27476 -10.27419 -10.27414 -10.27369
 Alpha  occ. eigenvalues --  -10.27142 -10.26667 -10.26619 -10.26443 -10.26375
 Alpha  occ. eigenvalues --  -10.26344 -10.26302 -10.26216 -10.26176 -10.26069
 Alpha  occ. eigenvalues --  -10.25939 -10.25584 -10.25561 -10.25398 -10.25389
 Alpha  occ. eigenvalues --  -10.25308 -10.24903 -10.24889 -10.24807 -10.24711
 Alpha  occ. eigenvalues --  -10.24652 -10.24326 -10.24229 -10.24209 -10.24143
 Alpha  occ. eigenvalues --  -10.23824 -10.23628 -10.23455 -10.23194 -10.22513
 Alpha  occ. eigenvalues --   -3.12986  -1.87690  -1.87204  -1.87183  -1.19086
 Alpha  occ. eigenvalues --   -1.17381  -1.11723  -1.09597  -1.08060  -1.03943
 Alpha  occ. eigenvalues --   -1.03030  -1.01963  -1.00908  -0.92374  -0.91840
 Alpha  occ. eigenvalues --   -0.91242  -0.91151  -0.90397  -0.89400  -0.89263
 Alpha  occ. eigenvalues --   -0.88782  -0.87911  -0.87086  -0.86690  -0.86548
 Alpha  occ. eigenvalues --   -0.85453  -0.84933  -0.83963  -0.83653  -0.82545
 Alpha  occ. eigenvalues --   -0.82068  -0.81770  -0.80853  -0.80369  -0.78714
 Alpha  occ. eigenvalues --   -0.78188  -0.77443  -0.76517  -0.76242  -0.76070
 Alpha  occ. eigenvalues --   -0.75706  -0.75330  -0.75244  -0.73505  -0.72905
 Alpha  occ. eigenvalues --   -0.71713  -0.70980  -0.69512  -0.68947  -0.68811
 Alpha  occ. eigenvalues --   -0.67754  -0.67242  -0.66002  -0.65687  -0.65457
 Alpha  occ. eigenvalues --   -0.64491  -0.64133  -0.63922  -0.63572  -0.62526
 Alpha  occ. eigenvalues --   -0.62271  -0.61661  -0.60068  -0.59435  -0.59295
 Alpha  occ. eigenvalues --   -0.58657  -0.58057  -0.57677  -0.57325  -0.57235
 Alpha  occ. eigenvalues --   -0.56852  -0.56270  -0.55943  -0.55378  -0.55076
 Alpha  occ. eigenvalues --   -0.54958  -0.54508  -0.54464  -0.53972  -0.53796
 Alpha  occ. eigenvalues --   -0.52860  -0.52478  -0.52453  -0.52314  -0.51865
 Alpha  occ. eigenvalues --   -0.51590  -0.51421  -0.51209  -0.50979  -0.50711
 Alpha  occ. eigenvalues --   -0.50666  -0.50231  -0.50168  -0.49935  -0.49813
 Alpha  occ. eigenvalues --   -0.49586  -0.49306  -0.48924  -0.48794  -0.48603
 Alpha  occ. eigenvalues --   -0.48305  -0.48227  -0.47794  -0.47736  -0.47588
 Alpha  occ. eigenvalues --   -0.47108  -0.46782  -0.46643  -0.46362  -0.46194
 Alpha  occ. eigenvalues --   -0.45935  -0.45768  -0.45523  -0.45123  -0.44817
 Alpha  occ. eigenvalues --   -0.44769  -0.44660  -0.44490  -0.44276  -0.44176
 Alpha  occ. eigenvalues --   -0.43846  -0.43700  -0.43526  -0.43434  -0.43274
 Alpha  occ. eigenvalues --   -0.43081  -0.43019  -0.42495  -0.42338  -0.42292
 Alpha  occ. eigenvalues --   -0.42096  -0.41960  -0.41751  -0.41527  -0.41355
 Alpha  occ. eigenvalues --   -0.41342  -0.41138  -0.40967  -0.40697  -0.40415
 Alpha  occ. eigenvalues --   -0.40102  -0.39936  -0.39736  -0.39471  -0.39376
 Alpha  occ. eigenvalues --   -0.38891  -0.38232  -0.38089  -0.38051  -0.38029
 Alpha  occ. eigenvalues --   -0.37847  -0.37467  -0.37100  -0.36916  -0.36543
 Alpha  occ. eigenvalues --   -0.36234  -0.36129  -0.35919  -0.35668  -0.35338
 Alpha  occ. eigenvalues --   -0.35176  -0.34998  -0.34547  -0.34220  -0.33667
 Alpha  occ. eigenvalues --   -0.33431  -0.32847  -0.32175  -0.31279  -0.30674
 Alpha  occ. eigenvalues --   -0.29943  -0.28823  -0.27622  -0.26996  -0.23433
 Alpha  occ. eigenvalues --   -0.21057
 Alpha virt. eigenvalues --   -0.06519  -0.03400   0.00377   0.03211   0.05603
 Alpha virt. eigenvalues --    0.05654   0.06194   0.06593   0.06839   0.07543
 Alpha virt. eigenvalues --    0.08004   0.10673   0.11650   0.11990   0.12150

 Mulliken charges:
               1
     1  Mg   0.823727
     2  C    0.002194
     3  C   -0.170193
     4  C   -0.165674
     5  C   -0.150099
     6  N   -0.665845
     7  C    0.355891
     8  C   -0.129851
     9  C   -0.169696
    10  C    0.359633
    11  C   -0.324031
    12  C   -0.194129
    13  C   -0.281188
    14  C    0.603758
    15  O   -0.439780
    16  O   -0.460526
    17  N   -0.745518
    18  C    0.309651
    19  C   -0.018850
    20  C    0.011092
    21  C    0.290106
    22  C   -0.368025
    23  C   -0.092435
    24  C   -0.229221
    25  N   -0.694896
    26  C    0.283051
    27  C    0.013576
    28  C    0.006705
    29  C    0.310655
    30  C   -0.370540
    31  C   -0.245871
    32  C   -0.322173
    33  N   -0.708182
    34  C    0.298766
    35  C   -0.022214
    36  C    0.066561
    37  C    0.272840
    38  C   -0.393730
    39  C    0.373318
    40  O   -0.456411
    41  C   -0.300470
    42  C    0.631284
    43  O   -0.485053
    44  O   -0.456415
    45  C   -0.107684
    46  C    0.034805
    47  C   -0.123572
    48  C    0.075834
    49  C   -0.348343
    50  C   -0.230034
    51  C   -0.178238
    52  C   -0.173518
    53  C   -0.067903
    54  C   -0.317317
    55  C   -0.178466
    56  C   -0.183098
    57  C   -0.158095
    58  C   -0.050663
    59  C   -0.343584
    60  C   -0.156478
    61  C   -0.170542
    62  C   -0.141380
    63  C   -0.061489
    64  C   -0.283866
    65  C   -0.306888
    66  H    0.079820
    67  H    0.105482
    68  H    0.106125
    69  H    0.128376
    70  H    0.096297
    71  H    0.096334
    72  H    0.117080
    73  H    0.131314
    74  H    0.123510
    75  H    0.117847
    76  H    0.119433
    77  H    0.132726
    78  H    0.114724
    79  H    0.136677
    80  H    0.120546
    81  H    0.083111
    82  H    0.109484
    83  H    0.099007
    84  H    0.129019
    85  H    0.103427
    86  H    0.137735
    87  H    0.082546
    88  H    0.113059
    89  H    0.100633
    90  H    0.102127
    91  H    0.110340
    92  H    0.138859
    93  H    0.148035
    94  H    0.108996
    95  H    0.175872
    96  H    0.134705
    97  H    0.138733
    98  H    0.126811
    99  H    0.124671
   100  H    0.092043
   101  H    0.050520
   102  H    0.118948
   103  H    0.121136
   104  H    0.119882
   105  H    0.101745
   106  H    0.100212
   107  H    0.122205
   108  H    0.099163
   109  H    0.103037
   110  H    0.081012
   111  H    0.080573
   112  H    0.080758
   113  H    0.109532
   114  H    0.104585
   115  H    0.077937
   116  H    0.093777
   117  H    0.099884
   118  H    0.090190
   119  H    0.091414
   120  H    0.088745
   121  H    0.084487
   122  H    0.092287
   123  H    0.107761
   124  H    0.089223
   125  H    0.059558
   126  H    0.100058
   127  H    0.068098
   128  H    0.096517
   129  H    0.097782
   130  H    0.057927
   131  H    0.073024
   132  H    0.086951
   133  H    0.114235
   134  H    0.071808
   135  H    0.088817
   136  H    0.103761
   137  H    0.105678
 Sum of Mulliken charges =  -0.00000

 Dipole moment (field-independent basis, Debye):
    X=              2.6896    Y=              3.7930    Z=              1.3582  Tot=              4.8441
 Quadrupole moment (field-independent basis, Debye-Ang):
   XX=           -343.2877   YY=           -387.6106   ZZ=           -395.2109
   XY=            -16.1640   XZ=              7.0805   YZ=             -1.5143

 Normal termination of Gaussian 16 at Sat Jun 29 16:19:11 2019.
