 Gaussian 16, Revision A.03,
 Gaussian 16:  ES64L-G16RevA.03 25-Dec-2016

 ----------------------------------------------------------------------
 # td=(NStates=1) iop(3/107=0140000000,3/108=0140000000) CAM-B3LYP/6-31
 G(d,p)
 ----------------------------------------------------------------------

 --
 TD
 --
 Symbolic Z-matrix:
 Charge =  0 Multiplicity = 1

                         Standard orientation:
 ---------------------------------------------------------------------
 Center     Atomic      Atomic             Coordinates (Angstroms)
 Number     Number       Type             X           Y           Z
 ---------------------------------------------------------------------
      1         12           0       -7.145946    0.653837    0.028389
      2          6           0       -4.866424   -1.883826    0.471862
      3          6           0       -4.785231    2.873923    1.267178
      4          6           0       -9.391906    3.092024   -0.424090
      5          6           0       -9.550420   -1.708641   -0.761551
      6          7           0       -5.093703    0.479458    0.661546
      7          6           0       -4.243538   -0.685249    0.692346
      8          6           0       -2.950174   -0.406157    1.121559
      9          6           0       -3.057909    1.005322    1.700350
     10          6           0       -4.373218    1.510175    1.106486
     11          6           0       -2.849315    1.145242    3.139610
     12          6           0       -1.933733   -0.551870   -0.038419
     13          6           0       -0.520775   -0.490591    0.481211
     14          6           0        0.529372   -0.815564   -0.684473
     15          8           0        0.147756   -1.285851   -1.743290
     16          8           0        1.755292   -0.532233   -0.254632
     17          7           0       -7.042357    2.687064    0.315339
     18          6           0       -5.966332    3.404111    0.766205
     19          6           0       -6.322642    4.822297    0.861038
     20          6           0       -7.663819    4.857798    0.314879
     21          6           0       -8.090912    3.513214    0.038131
     22          6           0       -5.455051    5.954495    1.103877
     23          6           0       -8.450190    6.058846    0.093020
     24          6           0       -8.321988    7.314901    0.608403
     25          7           0       -9.206879    0.691067   -0.449235
     26          6           0       -9.937269    1.848549   -0.580625
     27          6           0      -11.294235    1.487350   -0.884821
     28          6           0      -11.381301    0.212269   -1.162400
     29          6           0      -10.027725   -0.345670   -0.810781
     30          6           0      -12.285798    2.579411   -1.111496
     31          6           0      -12.460137   -0.669762   -1.719797
     32          6           0      -12.198283   -1.055624   -3.236203
     33          7           0       -7.226441   -1.339727   -0.192904
     34          6           0       -8.338782   -2.198974   -0.466618
     35          6           0       -8.060667   -3.491673   -0.398983
     36          6           0       -6.648812   -3.586291   -0.086661
     37          6           0       -6.186767   -2.202733    0.101297
     38          6           0       -8.689976   -4.882150   -0.610985
     39          6           0       -5.343370   -4.353736    0.201518
     40          8           0       -5.246504   -5.587422    0.235130
     41          6           0       -4.229650   -3.294496    0.522088
     42          6           0       -3.514563   -3.630118    1.847247
     43          8           0       -3.770170   -3.120784    2.964216
     44          8           0       -2.742776   -4.699399    1.688135
     45          6           0       -2.278364   -5.294710    2.933186
     46          6           0        2.818859   -0.793858   -1.217694
     47          6           0        4.164276   -0.453409   -0.604954
     48          6           0        5.196976    0.281974   -1.069099
     49          6           0        5.132024    0.975230   -2.444970
     50          6           0        6.442865    0.293160   -0.306608
     51          6           0        7.668971   -0.185030   -1.121537
     52          6           0        8.950678   -0.297851   -0.226341
     53          6           0       10.294283   -0.577401   -0.935300
     54          6           0       10.169962   -2.129952   -1.285029
     55          6           0       11.505467   -0.339510   -0.115185
     56          6           0       12.774016   -0.428584   -0.799892
     57          6           0       14.038969   -0.127751    0.126057
     58          6           0       15.402000   -0.248459   -0.453844
     59          6           0       15.649080   -1.766350   -0.836016
     60          6           0       16.451181    0.347118    0.428621
     61          6           0       17.871418    0.589763   -0.095560
     62          6           0       18.798883    1.267721    0.896309
     63          6           0       20.188635    1.518899    0.306529
     64          6           0       20.152302    2.441231   -0.928393
     65          6           0       21.083684    2.127960    1.516803
     66          1           0       -3.841708    3.533082    1.610659
     67          1           0      -10.102585    3.870089   -0.607119
     68          1           0      -10.333903   -2.495743   -0.690011
     69          1           0       -2.810897   -1.151867    2.052223
     70          1           0       -2.268662    1.455918    1.116915
     71          1           0       -1.768487    0.938788    3.336848
     72          1           0       -3.281098    2.189309    3.466547
     73          1           0       -3.396004    0.320588    3.638766
     74          1           0       -2.100882   -1.532664   -0.550954
     75          1           0       -2.218898    0.468939   -0.667682
     76          1           0       -0.187577    0.367563    0.918622
     77          1           0       -0.492588   -1.177887    1.185233
     78          1           0       -5.728815    6.877399    0.731986
     79          1           0       -5.442175    6.127649    2.214627
     80          1           0       -4.450896    5.797757    0.664671
     81          1           0       -9.330910    6.070675   -0.469022
     82          1           0       -8.911283    8.085248    0.079372
     83          1           0       -7.479427    7.673509    1.421815
     84          1           0      -11.842611    3.153893   -2.062044
     85          1           0      -13.145654    1.975118   -1.367155
     86          1           0      -12.533642    3.355056   -0.501759
     87          1           0      -12.475915   -1.674337   -1.173841
     88          1           0      -13.529025   -0.038434   -1.646414
     89          1           0      -13.173671   -1.478595   -3.839465
     90          1           0      -11.728544   -0.225192   -3.633553
     91          1           0      -11.460267   -1.718982   -3.334782
     92          1           0       -9.142240   -5.102431   -1.693807
     93          1           0       -8.038315   -5.716651   -0.493935
     94          1           0       -9.623957   -5.032345    0.126485
     95          1           0       -3.583352   -3.364888   -0.253278
     96          1           0       -1.709412   -4.444119    3.475187
     97          1           0       -3.124852   -5.801753    3.440371
     98          1           0       -1.481672   -6.074439    2.669002
     99          1           0        2.926748   -2.133339   -1.463314
    100          1           0        2.522509   -0.313931   -2.070297
    101          1           0        4.379377   -0.779337    0.397119
    102          1           0        4.241747    1.214272   -2.829543
    103          1           0        5.686728    1.893936   -2.350992
    104          1           0        6.019539    0.373249   -3.152775
    105          1           0        6.751674    1.283029    0.020496
    106          1           0        6.573681   -0.440059    0.584187
    107          1           0        7.486295   -1.155297   -1.672989
    108          1           0        7.814584    0.479612   -1.901051
    109          1           0        9.162953    0.600508    0.474990
    110          1           0        8.725633   -1.170964    0.483089
    111          1           0       10.395112    0.169564   -1.856416
    112          1           0        9.478325   -2.423981   -1.983724
    113          1           0       11.144210   -2.426472   -1.739710
    114          1           0       10.243228   -2.633391   -0.275582
    115          1           0       11.246126    0.794998    0.323082
    116          1           0       11.349197   -1.037124    0.775478
    117          1           0       13.115746   -1.454275   -1.253678
    118          1           0       12.763353    0.208895   -1.723567
    119          1           0       13.891533    0.935429    0.510322
    120          1           0       14.213636   -0.743623    1.043651
    121          1           0       15.561366    0.147856   -1.278977
    122          1           0       15.723571   -2.359311    0.146264
    123          1           0       14.896592   -2.293618   -1.456437
    124          1           0       16.768321   -1.867105   -1.400392
    125          1           0       15.947710    1.316944    0.824921
    126          1           0       16.524620   -0.214595    1.266782
    127          1           0       18.287423   -0.337546   -0.455335
    128          1           0       17.738878    1.378150   -1.025247
    129          1           0       18.386236    2.211851    1.112971
    130          1           0       18.756923    0.702789    1.830524
    131          1           0       20.664256    0.421383    0.084231
    132          1           0       19.571294    3.457712   -0.625889
    133          1           0       21.216628    2.807185   -1.429957
    134          1           0       19.641095    1.979373   -1.741878
    135          1           0       21.024948    1.381406    2.296380
    136          1           0       22.280539    2.306225    1.303318
    137          1           0       20.518074    3.061823    1.880172
 ---------------------------------------------------------------------

 SCF Done:  E(RCAM-B3LYP) =  -2933.48676063     A.U. after   16 cycles

 Excitation energies and oscillator strengths:

 Excited State   1:      Singlet-A      1.9469 eV  636.83 nm  f=0.2633  <S**2>=0.000
     240 -> 243        0.19986
     241 -> 242        0.67297
 This state for optimization and/or second-order correction.
 Total Energy, E(TD-HF/TD-DFT) =  -2933.41521391
 Copying the excited state density for this state as the 1-particle RhoCI density.

 The electronic state is 1-A.
 Alpha  occ. eigenvalues --  -46.79898 -19.23882 -19.22879 -19.17247 -19.16492
 Alpha  occ. eigenvalues --  -19.15961 -14.37481 -14.35096 -14.35037 -14.34399
 Alpha  occ. eigenvalues --  -10.35160 -10.35000 -10.31206 -10.30186 -10.28339
 Alpha  occ. eigenvalues --  -10.26213 -10.25532 -10.25483 -10.25408 -10.25117
 Alpha  occ. eigenvalues --  -10.24406 -10.24198 -10.24097 -10.24025 -10.23910
 Alpha  occ. eigenvalues --  -10.23706 -10.23656 -10.23599 -10.23478 -10.23178
 Alpha  occ. eigenvalues --  -10.22949 -10.22866 -10.22837 -10.22825 -10.22632
 Alpha  occ. eigenvalues --  -10.22626 -10.22575 -10.22564 -10.22554 -10.22512
 Alpha  occ. eigenvalues --  -10.22497 -10.22489 -10.22470 -10.22439 -10.22416
 Alpha  occ. eigenvalues --  -10.22404 -10.22151 -10.22119 -10.22100 -10.22037
 Alpha  occ. eigenvalues --  -10.22027 -10.21874 -10.21763 -10.21669 -10.21617
 Alpha  occ. eigenvalues --  -10.21553 -10.21503 -10.21502 -10.21413 -10.21043
 Alpha  occ. eigenvalues --  -10.20549 -10.20483 -10.20447 -10.20132 -10.19582
 Alpha  occ. eigenvalues --   -3.08366  -1.83322  -1.82845  -1.82751  -1.14055
 Alpha  occ. eigenvalues --   -1.13279  -1.05177  -1.04533  -1.02660  -0.98997
 Alpha  occ. eigenvalues --   -0.98188  -0.97567  -0.96456  -0.87278  -0.86821
 Alpha  occ. eigenvalues --   -0.86352  -0.85929  -0.85073  -0.83943  -0.83361
 Alpha  occ. eigenvalues --   -0.83340  -0.83263  -0.82309  -0.81937  -0.81424
 Alpha  occ. eigenvalues --   -0.80431  -0.79527  -0.78702  -0.78167  -0.77895
 Alpha  occ. eigenvalues --   -0.76799  -0.76351  -0.75934  -0.75175  -0.73330
 Alpha  occ. eigenvalues --   -0.72956  -0.72361  -0.72064  -0.71096  -0.70731
 Alpha  occ. eigenvalues --   -0.70415  -0.70089  -0.69798  -0.69203  -0.68455
 Alpha  occ. eigenvalues --   -0.67167  -0.66194  -0.65519  -0.64929  -0.63311
 Alpha  occ. eigenvalues --   -0.62587  -0.61875  -0.61003  -0.60636  -0.60571
 Alpha  occ. eigenvalues --   -0.60299  -0.59873  -0.59568  -0.58144  -0.57610
 Alpha  occ. eigenvalues --   -0.57416  -0.56757  -0.56273  -0.55681  -0.55457
 Alpha  occ. eigenvalues --   -0.54493  -0.54148  -0.53773  -0.53387  -0.52762
 Alpha  occ. eigenvalues --   -0.52462  -0.51863  -0.51611  -0.51186  -0.51073
 Alpha  occ. eigenvalues --   -0.50777  -0.50696  -0.50438  -0.50127  -0.49508
 Alpha  occ. eigenvalues --   -0.49393  -0.49140  -0.48612  -0.48028  -0.47732
 Alpha  occ. eigenvalues --   -0.47439  -0.47212  -0.47122  -0.46969  -0.46642
 Alpha  occ. eigenvalues --   -0.46559  -0.46286  -0.46155  -0.45739  -0.45563
 Alpha  occ. eigenvalues --   -0.45532  -0.45337  -0.45072  -0.44766  -0.44638
 Alpha  occ. eigenvalues --   -0.44441  -0.44119  -0.43855  -0.43816  -0.43725
 Alpha  occ. eigenvalues --   -0.43280  -0.43154  -0.42833  -0.42696  -0.42564
 Alpha  occ. eigenvalues --   -0.42395  -0.42138  -0.42010  -0.41386  -0.41321
 Alpha  occ. eigenvalues --   -0.41175  -0.40920  -0.40737  -0.40577  -0.40444
 Alpha  occ. eigenvalues --   -0.40411  -0.40021  -0.39947  -0.39862  -0.39802
 Alpha  occ. eigenvalues --   -0.39646  -0.39353  -0.39256  -0.39161  -0.38896
 Alpha  occ. eigenvalues --   -0.38775  -0.38511  -0.38409  -0.38245  -0.38186
 Alpha  occ. eigenvalues --   -0.37933  -0.37420  -0.37406  -0.37235  -0.37131
 Alpha  occ. eigenvalues --   -0.36990  -0.36786  -0.36543  -0.36271  -0.36096
 Alpha  occ. eigenvalues --   -0.35953  -0.35627  -0.35410  -0.35056  -0.34701
 Alpha  occ. eigenvalues --   -0.34566  -0.34443  -0.34141  -0.34032  -0.33946
 Alpha  occ. eigenvalues --   -0.33841  -0.33659  -0.33464  -0.33014  -0.32733
 Alpha  occ. eigenvalues --   -0.32472  -0.32354  -0.32157  -0.31441  -0.30607
 Alpha  occ. eigenvalues --   -0.30248  -0.30177  -0.29678  -0.28184  -0.26834
 Alpha  occ. eigenvalues --   -0.26737  -0.26515  -0.25483  -0.23977  -0.21842
 Alpha  occ. eigenvalues --   -0.19630
 Alpha virt. eigenvalues --   -0.07341  -0.03525  -0.00394   0.02159   0.03091
 Alpha virt. eigenvalues --    0.03225   0.04289   0.04829   0.05132   0.05713
 Alpha virt. eigenvalues --    0.06624   0.08831   0.08853   0.09225   0.09536

 Mulliken charges:
               1
     1  Mg   0.805893
     2  C    0.084039
     3  C   -0.193243
     4  C   -0.181907
     5  C   -0.202529
     6  N   -0.607367
     7  C    0.316526
     8  C   -0.214294
     9  C   -0.125428
    10  C    0.333608
    11  C   -0.302154
    12  C   -0.163065
    13  C   -0.253451
    14  C    0.599149
    15  O   -0.467382
    16  O   -0.446543
    17  N   -0.730289
    18  C    0.308020
    19  C    0.028800
    20  C   -0.000618
    21  C    0.344358
    22  C   -0.384705
    23  C   -0.081331
    24  C   -0.251090
    25  N   -0.675439
    26  C    0.336253
    27  C    0.015797
    28  C    0.065928
    29  C    0.258939
    30  C   -0.364903
    31  C   -0.247062
    32  C   -0.306888
    33  N   -0.734623
    34  C    0.317577
    35  C    0.047805
    36  C   -0.012928
    37  C    0.238542
    38  C   -0.369557
    39  C    0.372557
    40  O   -0.470588
    41  C   -0.297673
    42  C    0.603499
    43  O   -0.497548
    44  O   -0.421134
    45  C   -0.086127
    46  C    0.032938
    47  C   -0.138668
    48  C    0.154367
    49  C   -0.356192
    50  C   -0.237624
    51  C   -0.188372
    52  C   -0.163504
    53  C   -0.057842
    54  C   -0.315386
    55  C   -0.136149
    56  C   -0.172311
    57  C   -0.166781
    58  C   -0.029186
    59  C   -0.320025
    60  C   -0.174737
    61  C   -0.178583
    62  C   -0.158116
    63  C   -0.046165
    64  C   -0.291737
    65  C   -0.298752
    66  H    0.084216
    67  H    0.072987
    68  H    0.089390
    69  H    0.120058
    70  H    0.097062
    71  H    0.107084
    72  H    0.103294
    73  H    0.132429
    74  H    0.128140
    75  H    0.087863
    76  H    0.128237
    77  H    0.139425
    78  H    0.130897
    79  H    0.118697
    80  H    0.114269
    81  H    0.087382
    82  H    0.097334
    83  H    0.082244
    84  H    0.101348
    85  H    0.104468
    86  H    0.134757
    87  H    0.107926
    88  H    0.080215
    89  H    0.088028
    90  H    0.120195
    91  H    0.127104
    92  H    0.101583
    93  H    0.161265
    94  H    0.099332
    95  H    0.162849
    96  H    0.128096
    97  H    0.148633
    98  H    0.120936
    99  H    0.079249
   100  H    0.132784
   101  H    0.088719
   102  H    0.122669
   103  H    0.122431
   104  H    0.090321
   105  H    0.109273
   106  H    0.097277
   107  H    0.095522
   108  H    0.102283
   109  H    0.067639
   110  H    0.081825
   111  H    0.059727
   112  H    0.115965
   113  H    0.090336
   114  H    0.100319
   115  H    0.060693
   116  H    0.083702
   117  H    0.086969
   118  H    0.095962
   119  H    0.076218
   120  H    0.087099
   121  H    0.090257
   122  H    0.089211
   123  H    0.109782
   124  H    0.067166
   125  H    0.072554
   126  H    0.092043
   127  H    0.098617
   128  H    0.065426
   129  H    0.098501
   130  H    0.092266
   131  H    0.062671
   132  H    0.080394
   133  H    0.081320
   134  H    0.119959
   135  H    0.107475
   136  H    0.080351
   137  H    0.092687
 Sum of Mulliken charges =  -0.00000

 Dipole moment (field-independent basis, Debye):
    X=              4.0369    Y=              3.6591    Z=             -0.2586  Tot=              5.4546
 Quadrupole moment (field-independent basis, Debye-Ang):
   XX=           -365.4393   YY=           -397.1498   ZZ=           -400.4730
   XY=            -19.7749   XZ=             11.6752   YZ=             -6.9946

 Normal termination of Gaussian 16 at Wed Sep 11 04:22:45 2019.
