 Gaussian 16, Revision A.03,
 Gaussian 16:  ES64L-G16RevA.03 25-Dec-2016

 ----------------------------------------------------------------------
 # td=(NStates=1) iop(3/107=0140000000,3/108=0140000000) CAM-B3LYP/6-31
 G(d,p)
 ----------------------------------------------------------------------

 --
 TD
 --
 Symbolic Z-matrix:
 Charge =  0 Multiplicity = 1

                         Standard orientation:
 ---------------------------------------------------------------------
 Center     Atomic      Atomic             Coordinates (Angstroms)
 Number     Number       Type             X           Y           Z
 ---------------------------------------------------------------------
      1         12           0       -7.141076    0.655627    0.161292
      2          6           0       -4.862105   -1.965456    0.489006
      3          6           0       -4.874030    2.873487    1.007026
      4          6           0       -9.452961    3.093773   -0.384406
      5          6           0       -9.504915   -1.734494   -0.895237
      6          7           0       -5.120740    0.515077    0.609993
      7          6           0       -4.360652   -0.725495    0.643273
      8          6           0       -2.928575   -0.387471    1.014450
      9          6           0       -3.038639    1.159467    1.522954
     10          6           0       -4.441141    1.486116    0.931444
     11          6           0       -2.940921    1.273635    3.080230
     12          6           0       -1.848306   -0.603367   -0.002395
     13          6           0       -0.490129   -0.511781    0.503458
     14          6           0        0.557167   -0.751029   -0.568178
     15          8           0        0.336056   -1.120034   -1.740788
     16          8           0        1.821231   -0.438901   -0.168212
     17          7           0       -7.130274    2.657383    0.318500
     18          6           0       -6.089717    3.367903    0.784157
     19          6           0       -6.463144    4.735566    0.736242
     20          6           0       -7.699113    4.827891    0.252767
     21          6           0       -8.194223    3.470166   -0.035733
     22          6           0       -5.558662    5.948273    1.072312
     23          6           0       -8.523224    6.050323    0.018943
     24          6           0       -8.570382    7.233376    0.694236
     25          7           0       -9.130393    0.623874   -0.503898
     26          6           0       -9.894994    1.771238   -0.610638
     27          6           0      -11.226995    1.426700   -1.079369
     28          6           0      -11.254966    0.066592   -1.291433
     29          6           0       -9.913493   -0.423221   -0.890552
     30          6           0      -12.416321    2.394288   -1.092892
     31          6           0      -12.419241   -0.830248   -1.614967
     32          6           0      -12.270731   -1.265822   -3.083304
     33          7           0       -7.242442   -1.419042   -0.184290
     34          6           0       -8.243633   -2.218738   -0.611040
     35          6           0       -7.809410   -3.575859   -0.528529
     36          6           0       -6.498384   -3.536606   -0.181966
     37          6           0       -6.200874   -2.143440    0.066160
     38          6           0       -8.682737   -4.696068   -0.791413
     39          6           0       -5.270208   -4.369535    0.087778
     40          8           0       -5.071981   -5.557951    0.102877
     41          6           0       -4.157102   -3.236816    0.465336
     42          6           0       -3.643738   -3.622031    1.870145
     43          8           0       -3.918598   -2.981278    2.958956
     44          8           0       -2.715970   -4.684252    1.782570
     45          6           0       -2.235710   -5.094228    3.116647
     46          6           0        2.846703   -0.760221   -1.077697
     47          6           0        4.145440   -0.512154   -0.335466
     48          6           0        5.177229    0.294615   -0.840923
     49          6           0        5.041864    1.067037   -2.069776
     50          6           0        6.413549    0.315942   -0.038339
     51          6           0        7.665261   -0.098585   -0.851560
     52          6           0        8.964112   -0.080071    0.059367
     53          6           0       10.242816   -0.633370   -0.700521
     54          6           0       10.183370   -2.084270   -1.216599
     55          6           0       11.549994   -0.335717    0.060020
     56          6           0       12.830262   -0.527821   -0.668395
     57          6           0       14.013126   -0.062800    0.153406
     58          6           0       15.465163   -0.265523   -0.499215
     59          6           0       15.761429   -1.689989   -0.802332
     60          6           0       16.445274    0.410285    0.407100
     61          6           0       17.864602    0.665302   -0.229167
     62          6           0       18.790021    1.294300    0.722126
     63          6           0       20.116164    1.421219    0.138838
     64          6           0       20.234102    2.250458   -1.249232
     65          6           0       21.151001    1.973547    1.200686
     66          1           0       -4.240064    3.530502    1.477861
     67          1           0      -10.309342    3.743447   -0.643773
     68          1           0      -10.312012   -2.416440   -0.933408
     69          1           0       -2.643145   -1.137525    1.889487
     70          1           0       -2.478949    1.922075    1.112604
     71          1           0       -1.831315    0.754262    3.288868
     72          1           0       -2.765957    2.558853    3.306560
     73          1           0       -3.702324    0.896352    3.715684
     74          1           0       -1.951098   -1.607603   -0.369019
     75          1           0       -2.076663    0.192408   -0.799259
     76          1           0       -0.116078    0.193303    1.255283
     77          1           0       -0.316279   -1.252981    1.255561
     78          1           0       -5.964966    6.731773    0.658912
     79          1           0       -5.259260    5.960904    2.134265
     80          1           0       -4.336462    5.926062    0.439132
     81          1           0       -9.094328    5.616784   -0.972545
     82          1           0       -9.208382    7.972846    0.489983
     83          1           0       -8.039927    7.520304    1.357864
     84          1           0      -12.064486    3.183350   -1.836799
     85          1           0      -13.228205    2.169191   -1.470523
     86          1           0      -12.534033    3.219196   -0.236639
     87          1           0      -12.552073   -1.812678   -0.922975
     88          1           0      -13.440444   -0.509308   -1.453141
     89          1           0      -12.920501   -2.337170   -3.281774
     90          1           0      -12.561805   -0.750451   -3.961360
     91          1           0      -11.388905   -1.730350   -3.291788
     92          1           0       -8.682251   -4.768364   -1.946969
     93          1           0       -8.245597   -5.718770   -0.404825
     94          1           0       -9.756261   -4.564563   -0.557950
     95          1           0       -3.406457   -3.499559   -0.063449
     96          1           0       -1.789525   -4.065891    3.591595
     97          1           0       -3.011728   -5.352235    3.929700
     98          1           0       -1.398254   -5.749976    2.785337
     99          1           0        2.905920   -1.880692   -1.494648
    100          1           0        2.630946    0.039204   -1.914793
    101          1           0        4.264995   -1.141703    0.703896
    102          1           0        4.137391    1.063668   -2.587123
    103          1           0        5.153333    2.327728   -1.853970
    104          1           0        5.915743    0.559397   -2.730029
    105          1           0        6.650666    1.339962    0.324648
    106          1           0        6.368156   -0.354760    0.791040
    107          1           0        7.590298   -1.042865   -1.442943
    108          1           0        7.894618    0.820852   -1.676832
    109          1           0        9.262628    0.907782    0.263189
    110          1           0        8.853702   -0.753259    1.076256
    111          1           0       10.056304   -0.135869   -1.708760
    112          1           0        9.329997   -2.227709   -1.847942
    113          1           0       11.021725   -2.211524   -1.848869
    114          1           0       10.320779   -2.953271   -0.617773
    115          1           0       11.376762    0.832540    0.193030
    116          1           0       11.577737   -0.979981    0.997321
    117          1           0       12.962200   -1.663608   -0.807793
    118          1           0       12.907678   -0.111659   -1.715237
    119          1           0       13.656721    0.935191    0.482998
    120          1           0       14.035468   -0.434705    1.250865
    121          1           0       15.388044    0.217435   -1.375563
    122          1           0       15.844448   -2.276949   -0.049159
    123          1           0       14.997278   -2.084020   -1.562468
    124          1           0       16.761933   -1.409892   -1.371812
    125          1           0       15.980275    1.517375    0.746976
    126          1           0       16.550159   -0.168007    1.505289
    127          1           0       18.334783   -0.369310   -0.527399
    128          1           0       17.837500    1.137871   -1.024160
    129          1           0       18.645036    2.266912    1.249472
    130          1           0       18.607768    0.541662    1.449446
    131          1           0       20.427467    0.518431   -0.214475
    132          1           0       19.635133    3.170892   -1.200235
    133          1           0       21.338066    2.447382   -1.750960
    134          1           0       19.541119    1.665674   -1.843237
    135          1           0       21.345252    1.278294    1.986942
    136          1           0       22.201275    1.987157    0.631956
    137          1           0       20.896086    2.781757    1.728514
 ---------------------------------------------------------------------

 SCF Done:  E(RCAM-B3LYP) =  -2933.30402118     A.U. after   15 cycles

 Excitation energies and oscillator strengths:

 Excited State   1:      Singlet-A      2.1475 eV  577.34 nm  f=0.2564  <S**2>=0.000
     240 -> 243        0.21029
     241 -> 242        0.67247
 This state for optimization and/or second-order correction.
 Total Energy, E(TD-HF/TD-DFT) =  -2933.22510210
 Copying the excited state density for this state as the 1-particle RhoCI density.

 The electronic state is 1-A.
 Alpha  occ. eigenvalues --  -46.80213 -19.22990 -19.22071 -19.17387 -19.17058
 Alpha  occ. eigenvalues --  -19.16356 -14.38131 -14.35098 -14.35006 -14.34472
 Alpha  occ. eigenvalues --  -10.35628 -10.34767 -10.31423 -10.28701 -10.28501
 Alpha  occ. eigenvalues --  -10.26699 -10.26323 -10.25272 -10.25182 -10.24734
 Alpha  occ. eigenvalues --  -10.24672 -10.24265 -10.24151 -10.23970 -10.23964
 Alpha  occ. eigenvalues --  -10.23747 -10.23703 -10.23577 -10.23532 -10.23528
 Alpha  occ. eigenvalues --  -10.23422 -10.23416 -10.23334 -10.23149 -10.23129
 Alpha  occ. eigenvalues --  -10.23100 -10.22781 -10.22505 -10.22488 -10.22422
 Alpha  occ. eigenvalues --  -10.22377 -10.22263 -10.22192 -10.22158 -10.22158
 Alpha  occ. eigenvalues --  -10.22148 -10.22098 -10.22078 -10.21831 -10.21638
 Alpha  occ. eigenvalues --  -10.21475 -10.21400 -10.21239 -10.20951 -10.20806
 Alpha  occ. eigenvalues --  -10.20735 -10.20668 -10.20520 -10.20272 -10.20150
 Alpha  occ. eigenvalues --  -10.19978 -10.19955 -10.19391 -10.19284 -10.18705
 Alpha  occ. eigenvalues --   -3.08794  -1.83746  -1.83272  -1.83179  -1.12903
 Alpha  occ. eigenvalues --   -1.10028  -1.07130  -1.02827  -1.01571  -1.01283
 Alpha  occ. eigenvalues --   -1.00514  -0.98938  -0.97193  -0.88862  -0.86517
 Alpha  occ. eigenvalues --   -0.86406  -0.85737  -0.84813  -0.84446  -0.83753
 Alpha  occ. eigenvalues --   -0.83343  -0.83193  -0.82958  -0.82440  -0.81282
 Alpha  occ. eigenvalues --   -0.80032  -0.79645  -0.78933  -0.78167  -0.77934
 Alpha  occ. eigenvalues --   -0.77075  -0.76972  -0.76290  -0.75508  -0.73402
 Alpha  occ. eigenvalues --   -0.73144  -0.72718  -0.71751  -0.71582  -0.70985
 Alpha  occ. eigenvalues --   -0.70864  -0.70728  -0.69657  -0.68810  -0.67749
 Alpha  occ. eigenvalues --   -0.67521  -0.66339  -0.65829  -0.65301  -0.64789
 Alpha  occ. eigenvalues --   -0.63827  -0.62266  -0.61491  -0.60889  -0.60707
 Alpha  occ. eigenvalues --   -0.60294  -0.59618  -0.59120  -0.58454  -0.58333
 Alpha  occ. eigenvalues --   -0.57566  -0.57311  -0.56473  -0.55901  -0.55314
 Alpha  occ. eigenvalues --   -0.54937  -0.54687  -0.54105  -0.53589  -0.52722
 Alpha  occ. eigenvalues --   -0.52544  -0.52266  -0.51806  -0.51469  -0.51216
 Alpha  occ. eigenvalues --   -0.50590  -0.50481  -0.50041  -0.49684  -0.49401
 Alpha  occ. eigenvalues --   -0.48941  -0.48708  -0.48596  -0.48446  -0.48376
 Alpha  occ. eigenvalues --   -0.48184  -0.48043  -0.47817  -0.47515  -0.46729
 Alpha  occ. eigenvalues --   -0.46685  -0.46474  -0.46279  -0.45893  -0.45815
 Alpha  occ. eigenvalues --   -0.45640  -0.45464  -0.45399  -0.45169  -0.45001
 Alpha  occ. eigenvalues --   -0.44881  -0.44617  -0.44499  -0.44023  -0.43762
 Alpha  occ. eigenvalues --   -0.43459  -0.43215  -0.43143  -0.42758  -0.42665
 Alpha  occ. eigenvalues --   -0.42533  -0.42112  -0.41864  -0.41729  -0.41589
 Alpha  occ. eigenvalues --   -0.41432  -0.41310  -0.41210  -0.41111  -0.41006
 Alpha  occ. eigenvalues --   -0.40866  -0.40430  -0.40188  -0.40044  -0.39811
 Alpha  occ. eigenvalues --   -0.39594  -0.39549  -0.39442  -0.39244  -0.39125
 Alpha  occ. eigenvalues --   -0.38992  -0.38774  -0.38476  -0.38255  -0.38104
 Alpha  occ. eigenvalues --   -0.37782  -0.37497  -0.37410  -0.37327  -0.37151
 Alpha  occ. eigenvalues --   -0.36889  -0.36637  -0.36298  -0.36216  -0.36039
 Alpha  occ. eigenvalues --   -0.35428  -0.35204  -0.34674  -0.34622  -0.34465
 Alpha  occ. eigenvalues --   -0.34173  -0.34107  -0.33928  -0.33781  -0.33503
 Alpha  occ. eigenvalues --   -0.33131  -0.32765  -0.32329  -0.32249  -0.32131
 Alpha  occ. eigenvalues --   -0.31977  -0.31662  -0.31466  -0.30633  -0.30146
 Alpha  occ. eigenvalues --   -0.30024  -0.29717  -0.29655  -0.28565  -0.27199
 Alpha  occ. eigenvalues --   -0.26938  -0.25770  -0.25631  -0.25387  -0.22525
 Alpha  occ. eigenvalues --   -0.19778
 Alpha virt. eigenvalues --   -0.06390  -0.03686  -0.00409   0.01715   0.02636
 Alpha virt. eigenvalues --    0.03406   0.03634   0.04014   0.04846   0.05676
 Alpha virt. eigenvalues --    0.06206   0.08080   0.08987   0.09279   0.09503

 Mulliken charges:
               1
     1  Mg   0.807253
     2  C    0.160877
     3  C   -0.180315
     4  C   -0.157388
     5  C   -0.159803
     6  N   -0.618166
     7  C    0.275410
     8  C   -0.197439
     9  C   -0.125822
    10  C    0.352116
    11  C   -0.268932
    12  C   -0.133252
    13  C   -0.276543
    14  C    0.614536
    15  O   -0.492646
    16  O   -0.458549
    17  N   -0.766222
    18  C    0.361043
    19  C    0.011500
    20  C   -0.002934
    21  C    0.324888
    22  C   -0.329411
    23  C   -0.070745
    24  C   -0.224048
    25  N   -0.692074
    26  C    0.292842
    27  C    0.009452
    28  C    0.041661
    29  C    0.285714
    30  C   -0.347920
    31  C   -0.248882
    32  C   -0.310704
    33  N   -0.720784
    34  C    0.273437
    35  C    0.024883
    36  C    0.006396
    37  C    0.300593
    38  C   -0.395266
    39  C    0.364104
    40  O   -0.437571
    41  C   -0.326120
    42  C    0.609450
    43  O   -0.496474
    44  O   -0.459141
    45  C   -0.082346
    46  C    0.020548
    47  C   -0.144538
    48  C    0.147474
    49  C   -0.338765
    50  C   -0.205288
    51  C   -0.193444
    52  C   -0.153338
    53  C   -0.064959
    54  C   -0.332192
    55  C   -0.158158
    56  C   -0.167605
    57  C   -0.181113
    58  C   -0.051500
    59  C   -0.279281
    60  C   -0.163790
    61  C   -0.182890
    62  C   -0.141756
    63  C   -0.051245
    64  C   -0.326134
    65  C   -0.319120
    66  H    0.061066
    67  H    0.079092
    68  H    0.084107
    69  H    0.102900
    70  H    0.115562
    71  H    0.087724
    72  H    0.059724
    73  H    0.145311
    74  H    0.125321
    75  H    0.106802
    76  H    0.134307
    77  H    0.140558
    78  H    0.127222
    79  H    0.126357
    80  H    0.045255
    81  H    0.083445
    82  H    0.106355
    83  H    0.092734
    84  H    0.106724
    85  H    0.111590
    86  H    0.113091
    87  H    0.095678
    88  H    0.114074
    89  H    0.040516
    90  H    0.126772
    91  H    0.130398
    92  H    0.123899
    93  H    0.131003
    94  H    0.121203
    95  H    0.149426
    96  H    0.105427
    97  H    0.147147
    98  H    0.132524
    99  H    0.117087
   100  H    0.107335
   101  H    0.078435
   102  H    0.124974
   103  H    0.078895
   104  H    0.109585
   105  H    0.101595
   106  H    0.108456
   107  H    0.103968
   108  H    0.064164
   109  H    0.101847
   110  H    0.062517
   111  H    0.075089
   112  H    0.095167
   113  H    0.107937
   114  H    0.098030
   115  H    0.069912
   116  H    0.098355
   117  H    0.079633
   118  H    0.087880
   119  H    0.081227
   120  H    0.066077
   121  H    0.098761
   122  H    0.115132
   123  H    0.094988
   124  H    0.083869
   125  H    0.068174
   126  H    0.060830
   127  H    0.079741
   128  H    0.100707
   129  H    0.082895
   130  H    0.100252
   131  H    0.093650
   132  H    0.100114
   133  H    0.093498
   134  H    0.101877
   135  H    0.099466
   136  H    0.074118
   137  H    0.110882
 Sum of Mulliken charges =  -0.00000

 Dipole moment (field-independent basis, Debye):
    X=              1.0109    Y=              3.5159    Z=              1.1667  Tot=              3.8399
 Quadrupole moment (field-independent basis, Debye-Ang):
   XX=           -358.0162   YY=           -396.2975   ZZ=           -397.4990
   XY=            -26.1937   XZ=              3.1579   YZ=             -2.3825

 Normal termination of Gaussian 16 at Sat Sep  7 02:52:39 2019.
