 Gaussian 16, Revision A.03,
 Gaussian 16:  ES64L-G16RevA.03 25-Dec-2016

 ----------------------------------------------------------------------
 # td=(NStates=1) iop(3/107=0140000000,3/108=0140000000) CAM-B3LYP/6-31
 G(d,p)
 ----------------------------------------------------------------------

 --
 TD
 --
 Symbolic Z-matrix:
 Charge =  0 Multiplicity = 1

                         Standard orientation:
 ---------------------------------------------------------------------
 Center     Atomic      Atomic             Coordinates (Angstroms)
 Number     Number       Type             X           Y           Z
 ---------------------------------------------------------------------
      1         12           0       -7.093548    0.662803    0.121348
      2          6           0       -4.819048   -1.980857    0.411530
      3          6           0       -4.744961    2.818933    1.318558
      4          6           0       -9.387630    3.132503   -0.410491
      5          6           0       -9.561226   -1.673325   -0.886643
      6          7           0       -5.086631    0.394989    0.739933
      7          6           0       -4.306533   -0.723466    0.782834
      8          6           0       -2.948371   -0.510016    1.204423
      9          6           0       -2.990711    1.013796    1.639759
     10          6           0       -4.361176    1.483184    1.134342
     11          6           0       -2.841863    1.288920    3.157975
     12          6           0       -1.915521   -0.747609    0.153109
     13          6           0       -0.449972   -0.431348    0.514512
     14          6           0        0.418730   -0.731692   -0.633421
     15          8           0        0.192914   -1.230896   -1.691837
     16          8           0        1.765799   -0.440484   -0.284285
     17          7           0       -7.052889    2.631680    0.384420
     18          6           0       -6.026277    3.323159    0.861717
     19          6           0       -6.422561    4.748406    0.921026
     20          6           0       -7.663309    4.892349    0.360015
     21          6           0       -8.064310    3.516878    0.103155
     22          6           0       -5.379155    5.803155    1.099455
     23          6           0       -8.417450    6.075484    0.023744
     24          6           0       -8.283820    7.272835    0.690989
     25          7           0       -9.063924    0.724705   -0.632901
     26          6           0       -9.828934    1.839705   -0.703818
     27          6           0      -11.184153    1.535247   -1.046088
     28          6           0      -11.174018    0.204783   -1.367497
     29          6           0       -9.918560   -0.257519   -0.903115
     30          6           0      -12.270978    2.656831   -1.393171
     31          6           0      -12.369713   -0.771105   -1.780519
     32          6           0      -12.202160   -1.183688   -3.104602
     33          7           0       -7.259014   -1.402341   -0.120489
     34          6           0       -8.295061   -2.228264   -0.476099
     35          6           0       -7.824067   -3.573279   -0.571167
     36          6           0       -6.497841   -3.621594   -0.123443
     37          6           0       -6.238803   -2.272723    0.058928
     38          6           0       -8.769025   -4.763799   -0.773575
     39          6           0       -5.290567   -4.382384    0.225979
     40          8           0       -5.189835   -5.587412    0.195208
     41          6           0       -4.125512   -3.304283    0.462391
     42          6           0       -3.543818   -3.634866    1.891190
     43          8           0       -3.855727   -3.128142    2.913576
     44          8           0       -2.700285   -4.672716    1.733821
     45          6           0       -2.192348   -5.299161    2.952399
     46          6           0        2.737720   -0.618370   -1.253972
     47          6           0        4.127584   -0.441338   -0.603321
     48          6           0        5.157628    0.238879   -1.029136
     49          6           0        5.105972    1.167850   -2.204884
     50          6           0        6.471573    0.279265   -0.115687
     51          6           0        7.708718   -0.198733   -0.857819
     52          6           0        8.920919   -0.052410   -0.055905
     53          6           0       10.104548   -0.575067   -0.842159
     54          6           0       10.137334   -1.997186   -1.198498
     55          6           0       11.363486   -0.206126   -0.003137
     56          6           0       12.742959   -0.454381   -0.635740
     57          6           0       13.872664   -0.189056    0.270508
     58          6           0       15.247978   -0.234023   -0.439086
     59          6           0       15.674834   -1.617083   -0.908599
     60          6           0       16.355457    0.359627    0.402711
     61          6           0       17.774146    0.589342   -0.112476
     62          6           0       18.709097    1.300027    0.709178
     63          6           0       20.076405    1.317138    0.200132
     64          6           0       20.326731    2.071503   -1.172779
     65          6           0       21.000786    1.999676    1.288304
     66          1           0       -3.977829    3.567533    1.689665
     67          1           0      -10.004697    3.920995   -0.605949
     68          1           0      -10.272499   -2.358308   -1.040509
     69          1           0       -2.859150   -1.076579    2.106264
     70          1           0       -2.235449    1.682115    1.230462
     71          1           0       -1.965678    0.800489    3.429739
     72          1           0       -3.152691    2.299437    3.386098
     73          1           0       -3.643344    0.777559    3.637683
     74          1           0       -1.981060   -1.811953   -0.307009
     75          1           0       -1.993161   -0.123609   -0.884276
     76          1           0       -0.192634    0.555631    0.902462
     77          1           0       -0.239599   -1.060765    1.313895
     78          1           0       -5.242158    6.632291    0.465060
     79          1           0       -5.519183    6.272523    2.129510
     80          1           0       -4.492176    5.716813    1.025955
     81          1           0       -9.153896    6.096380   -0.727809
     82          1           0       -8.551092    8.307695    0.161068
     83          1           0       -7.605483    7.386182    1.610367
     84          1           0      -11.981474    3.087927   -2.334306
     85          1           0      -13.143919    2.049046   -1.431085
     86          1           0      -12.243748    3.325405   -0.391839
     87          1           0      -12.209064   -1.764437   -0.993871
     88          1           0      -13.327048   -0.142306   -1.471832
     89          1           0      -12.816780   -1.956627   -3.573885
     90          1           0      -12.184107   -0.361220   -3.902663
     91          1           0      -11.159402   -1.671679   -2.936154
     92          1           0       -9.187123   -4.832453   -1.747018
     93          1           0       -8.436613   -5.750825   -0.387103
     94          1           0       -9.775062   -4.705338   -0.405882
     95          1           0       -3.499410   -3.708945   -0.445628
     96          1           0       -1.556730   -4.435930    3.447569
     97          1           0       -3.084233   -5.546051    3.474514
     98          1           0       -1.418648   -6.135483    2.572667
     99          1           0        2.776868   -1.727936   -1.754708
    100          1           0        2.261116    0.041191   -2.133691
    101          1           0        4.187487   -1.008468    0.431856
    102          1           0        4.315222    1.215688   -2.711532
    103          1           0        5.356739    2.227944   -1.998193
    104          1           0        5.705308    0.746177   -3.019796
    105          1           0        6.548928    1.438028    0.237274
    106          1           0        6.135860   -0.258662    0.632351
    107          1           0        7.136562   -1.028739   -1.522992
    108          1           0        7.674179    0.419043   -1.883238
    109          1           0        8.962710    1.002863    0.221098
    110          1           0        8.620620   -0.535525    0.858736
    111          1           0        9.833479    0.028917   -1.635452
    112          1           0        9.373807   -2.633164   -1.922844
    113          1           0       11.100055   -2.129726   -1.763856
    114          1           0       10.059992   -2.642526   -0.329887
    115          1           0       11.344421    0.919423    0.220027
    116          1           0       11.258216   -0.863786    0.959157
    117          1           0       12.863647   -1.356243   -1.126647
    118          1           0       12.668623    0.094730   -1.517834
    119          1           0       13.991784    0.869368    0.482023
    120          1           0       13.784330   -0.836648    1.200558
    121          1           0       15.069918    0.489947   -1.301443
    122          1           0       15.652761   -2.256430    0.038520
    123          1           0       14.973545   -2.166901   -1.699452
    124          1           0       16.620332   -1.304206   -1.526011
    125          1           0       15.968602    1.410374    0.831601
    126          1           0       16.611914   -0.133743    1.359704
    127          1           0       18.157442   -0.428667   -0.406883
    128          1           0       17.631944    1.181279   -1.100204
    129          1           0       18.368422    2.344627    0.818737
    130          1           0       18.636229    1.037419    1.838347
    131          1           0       20.482113    0.290050    0.101531
    132          1           0       20.140067    3.162397   -1.246243
    133          1           0       21.515693    1.891897   -1.237107
    134          1           0       19.929109    1.570451   -2.099099
    135          1           0       20.927522    1.625304    2.301205
    136          1           0       21.896090    1.840022    0.723451
    137          1           0       20.865437    2.980687    1.307884
 ---------------------------------------------------------------------

 SCF Done:  E(RCAM-B3LYP) =  -2933.42370933     A.U. after   16 cycles

 Excitation energies and oscillator strengths:

 Excited State   1:      Singlet-A      1.9957 eV  621.26 nm  f=0.2570  <S**2>=0.000
     240 -> 243        0.23391
     241 -> 242        0.65868
 This state for optimization and/or second-order correction.
 Total Energy, E(TD-HF/TD-DFT) =  -2933.35036853
 Copying the excited state density for this state as the 1-particle RhoCI density.

 The electronic state is 1-A.
 Alpha  occ. eigenvalues --  -46.80617 -19.21637 -19.20579 -19.18147 -19.17462
 Alpha  occ. eigenvalues --  -19.16267 -14.37651 -14.35917 -14.34942 -14.34892
 Alpha  occ. eigenvalues --  -10.34925 -10.34807 -10.30775 -10.28712 -10.28530
 Alpha  occ. eigenvalues --  -10.26359 -10.25960 -10.25811 -10.25564 -10.24931
 Alpha  occ. eigenvalues --  -10.24748 -10.24632 -10.24505 -10.24344 -10.24172
 Alpha  occ. eigenvalues --  -10.24156 -10.23963 -10.23363 -10.23331 -10.22987
 Alpha  occ. eigenvalues --  -10.22983 -10.22966 -10.22933 -10.22845 -10.22723
 Alpha  occ. eigenvalues --  -10.22644 -10.22644 -10.22552 -10.22549 -10.22110
 Alpha  occ. eigenvalues --  -10.22040 -10.21938 -10.21933 -10.21899 -10.21898
 Alpha  occ. eigenvalues --  -10.21875 -10.21835 -10.21782 -10.21610 -10.21366
 Alpha  occ. eigenvalues --  -10.21077 -10.21064 -10.21053 -10.20864 -10.20795
 Alpha  occ. eigenvalues --  -10.20730 -10.20612 -10.20460 -10.20375 -10.20237
 Alpha  occ. eigenvalues --  -10.20059 -10.19418 -10.19355 -10.18705 -10.18484
 Alpha  occ. eigenvalues --   -3.09119  -1.84071  -1.83568  -1.83541  -1.13544
 Alpha  occ. eigenvalues --   -1.13057  -1.06540  -1.05687  -1.05343  -1.00089
 Alpha  occ. eigenvalues --   -0.99401  -0.99153  -0.98370  -0.86935  -0.86819
 Alpha  occ. eigenvalues --   -0.85948  -0.85801  -0.84685  -0.84435  -0.84092
 Alpha  occ. eigenvalues --   -0.83907  -0.83077  -0.82396  -0.81753  -0.81390
 Alpha  occ. eigenvalues --   -0.80508  -0.79835  -0.78885  -0.78447  -0.78260
 Alpha  occ. eigenvalues --   -0.76846  -0.76270  -0.75845  -0.75298  -0.74360
 Alpha  occ. eigenvalues --   -0.74011  -0.72692  -0.72461  -0.71492  -0.70583
 Alpha  occ. eigenvalues --   -0.70538  -0.69956  -0.69825  -0.69219  -0.68294
 Alpha  occ. eigenvalues --   -0.66662  -0.65788  -0.64654  -0.63986  -0.63266
 Alpha  occ. eigenvalues --   -0.62644  -0.61764  -0.61324  -0.60630  -0.60210
 Alpha  occ. eigenvalues --   -0.60026  -0.59830  -0.58766  -0.57975  -0.57904
 Alpha  occ. eigenvalues --   -0.57343  -0.56828  -0.56607  -0.55838  -0.55366
 Alpha  occ. eigenvalues --   -0.55276  -0.54600  -0.54420  -0.53489  -0.52974
 Alpha  occ. eigenvalues --   -0.52481  -0.51956  -0.51628  -0.51569  -0.50932
 Alpha  occ. eigenvalues --   -0.50530  -0.49830  -0.49591  -0.49473  -0.49442
 Alpha  occ. eigenvalues --   -0.49353  -0.48800  -0.48527  -0.48330  -0.48243
 Alpha  occ. eigenvalues --   -0.48024  -0.47837  -0.47577  -0.47358  -0.46845
 Alpha  occ. eigenvalues --   -0.46681  -0.46473  -0.46296  -0.46237  -0.46143
 Alpha  occ. eigenvalues --   -0.45963  -0.45745  -0.45498  -0.45360  -0.45033
 Alpha  occ. eigenvalues --   -0.44853  -0.44770  -0.44474  -0.44123  -0.44091
 Alpha  occ. eigenvalues --   -0.43758  -0.43747  -0.43403  -0.43093  -0.42786
 Alpha  occ. eigenvalues --   -0.42651  -0.42482  -0.42296  -0.42177  -0.41610
 Alpha  occ. eigenvalues --   -0.41482  -0.41439  -0.41010  -0.40911  -0.40798
 Alpha  occ. eigenvalues --   -0.40550  -0.40415  -0.40040  -0.39904  -0.39682
 Alpha  occ. eigenvalues --   -0.39539  -0.39359  -0.39210  -0.38938  -0.38855
 Alpha  occ. eigenvalues --   -0.38682  -0.38613  -0.38369  -0.38222  -0.37965
 Alpha  occ. eigenvalues --   -0.37685  -0.37633  -0.37379  -0.37244  -0.37197
 Alpha  occ. eigenvalues --   -0.36907  -0.36694  -0.36011  -0.35749  -0.35264
 Alpha  occ. eigenvalues --   -0.35209  -0.35014  -0.34489  -0.34450  -0.34052
 Alpha  occ. eigenvalues --   -0.34002  -0.33871  -0.33695  -0.33670  -0.33283
 Alpha  occ. eigenvalues --   -0.33062  -0.32930  -0.32632  -0.32405  -0.32197
 Alpha  occ. eigenvalues --   -0.31912  -0.31815  -0.31154  -0.30967  -0.30654
 Alpha  occ. eigenvalues --   -0.30622  -0.30154  -0.29229  -0.28348  -0.26987
 Alpha  occ. eigenvalues --   -0.26946  -0.26736  -0.26492  -0.25139  -0.21272
 Alpha  occ. eigenvalues --   -0.20106
 Alpha virt. eigenvalues --   -0.07431  -0.03863   0.00031   0.01609   0.03171
 Alpha virt. eigenvalues --    0.03907   0.04816   0.05082   0.05366   0.05843
 Alpha virt. eigenvalues --    0.06662   0.08509   0.09755   0.10306   0.10362

 Mulliken charges:
               1
     1  Mg   0.819992
     2  C    0.052914
     3  C   -0.196930
     4  C   -0.164244
     5  C   -0.147259
     6  N   -0.647162
     7  C    0.320892
     8  C   -0.156345
     9  C   -0.170926
    10  C    0.351754
    11  C   -0.314486
    12  C   -0.182430
    13  C   -0.259038
    14  C    0.606495
    15  O   -0.441047
    16  O   -0.490105
    17  N   -0.717901
    18  C    0.320139
    19  C   -0.033119
    20  C    0.070223
    21  C    0.260718
    22  C   -0.354828
    23  C   -0.080458
    24  C   -0.244118
    25  N   -0.665450
    26  C    0.335140
    27  C   -0.055030
    28  C    0.026207
    29  C    0.301940
    30  C   -0.348759
    31  C   -0.214450
    32  C   -0.268815
    33  N   -0.690718
    34  C    0.280481
    35  C   -0.041781
    36  C    0.086421
    37  C    0.273996
    38  C   -0.393396
    39  C    0.335417
    40  O   -0.446446
    41  C   -0.333902
    42  C    0.614584
    43  O   -0.456637
    44  O   -0.448754
    45  C   -0.080339
    46  C    0.038426
    47  C   -0.145798
    48  C    0.093514
    49  C   -0.341182
    50  C   -0.188132
    51  C   -0.184988
    52  C   -0.175308
    53  C   -0.046309
    54  C   -0.301919
    55  C   -0.167040
    56  C   -0.182352
    57  C   -0.149899
    58  C   -0.073919
    59  C   -0.290771
    60  C   -0.166680
    61  C   -0.167961
    62  C   -0.141509
    63  C   -0.066129
    64  C   -0.315264
    65  C   -0.311193
    66  H    0.095290
    67  H    0.069816
    68  H    0.061983
    69  H    0.136479
    70  H    0.102295
    71  H    0.113317
    72  H    0.115637
    73  H    0.124202
    74  H    0.122387
    75  H    0.101782
    76  H    0.142738
    77  H    0.153270
    78  H    0.115828
    79  H    0.098129
    80  H    0.105078
    81  H    0.099011
    82  H    0.093670
    83  H    0.099539
    84  H    0.140211
    85  H    0.120812
    86  H    0.110731
    87  H    0.078595
    88  H    0.082469
    89  H    0.106091
    90  H    0.104168
    91  H    0.096946
    92  H    0.121776
    93  H    0.138658
    94  H    0.119111
    95  H    0.160815
    96  H    0.113924
    97  H    0.151994
    98  H    0.128021
    99  H    0.094014
   100  H    0.093617
   101  H    0.083264
   102  H    0.112176
   103  H    0.111960
   104  H    0.105312
   105  H    0.063679
   106  H    0.101881
   107  H    0.092619
   108  H    0.070014
   109  H    0.106233
   110  H    0.094511
   111  H    0.094626
   112  H    0.078748
   113  H    0.103061
   114  H    0.106819
   115  H    0.083796
   116  H    0.074856
   117  H    0.095990
   118  H    0.092101
   119  H    0.089867
   120  H    0.080091
   121  H    0.077388
   122  H    0.102623
   123  H    0.081043
   124  H    0.100643
   125  H    0.056837
   126  H    0.085556
   127  H    0.087292
   128  H    0.074097
   129  H    0.086619
   130  H    0.068954
   131  H    0.089635
   132  H    0.110672
   133  H    0.078152
   134  H    0.107692
   135  H    0.101707
   136  H    0.094198
   137  H    0.114861
 Sum of Mulliken charges =  -0.00000

 Dipole moment (field-independent basis, Debye):
    X=              1.0941    Y=              4.1632    Z=              0.2605  Tot=              4.3125
 Quadrupole moment (field-independent basis, Debye-Ang):
   XX=           -359.4094   YY=           -392.0682   ZZ=           -395.3885
   XY=            -12.1058   XZ=             13.0025   YZ=             -7.8807

 Normal termination of Gaussian 16 at Thu Sep  5 00:07:40 2019.
