 Gaussian 16, Revision A.03,
 Gaussian 16:  ES64L-G16RevA.03 25-Dec-2016

 ----------------------------------------------------------------------
 # td=(NStates=1) iop(3/107=0140000000,3/108=0140000000) CAM-B3LYP/6-31
 G(d,p)
 ----------------------------------------------------------------------

 --
 TD
 --
 Symbolic Z-matrix:
 Charge =  0 Multiplicity = 1

                         Standard orientation:
 ---------------------------------------------------------------------
 Center     Atomic      Atomic             Coordinates (Angstroms)
 Number     Number       Type             X           Y           Z
 ---------------------------------------------------------------------
      1         12           0       -7.175244    0.505726   -0.002193
      2          6           0       -4.832255   -1.930026    0.319929
      3          6           0       -4.796418    2.786448    1.134124
      4          6           0       -9.379458    3.037344   -0.426224
      5          6           0       -9.577174   -1.817927   -0.848254
      6          7           0       -5.125246    0.363222    0.678868
      7          6           0       -4.281108   -0.805599    0.744914
      8          6           0       -2.918444   -0.403703    1.244672
      9          6           0       -2.949295    1.094468    1.639308
     10          6           0       -4.435077    1.517381    1.079781
     11          6           0       -3.093268    1.269145    3.145399
     12          6           0       -1.984251   -0.452910    0.046772
     13          6           0       -0.445139   -0.335790    0.512152
     14          6           0        0.538920   -0.491825   -0.612067
     15          8           0        0.331634   -0.998511   -1.749972
     16          8           0        1.782846   -0.251975   -0.128416
     17          7           0       -7.152199    2.600015    0.259644
     18          6           0       -6.106999    3.378845    0.740337
     19          6           0       -6.430989    4.729468    0.748558
     20          6           0       -7.789833    4.809931    0.396718
     21          6           0       -8.227245    3.434025    0.016087
     22          6           0       -5.606551    5.884357    1.164712
     23          6           0       -8.624145    6.007446    0.166167
     24          6           0       -8.643965    7.204943    0.882976
     25          7           0       -9.115997    0.689911   -0.703282
     26          6           0       -9.884860    1.772970   -0.783690
     27          6           0      -11.279384    1.378276   -1.122334
     28          6           0      -11.307210    0.004088   -1.329819
     29          6           0       -9.961190   -0.424317   -0.950299
     30          6           0      -12.400516    2.325572   -1.381207
     31          6           0      -12.505504   -0.918531   -1.713282
     32          6           0      -12.333366   -1.467045   -3.108245
     33          7           0       -7.205282   -1.428609   -0.188985
     34          6           0       -8.268994   -2.258565   -0.500403
     35          6           0       -7.778030   -3.607466   -0.465756
     36          6           0       -6.494804   -3.595096   -0.129940
     37          6           0       -6.156282   -2.141628    0.041149
     38          6           0       -8.613661   -4.852790   -0.886670
     39          6           0       -5.235851   -4.410786    0.244547
     40          8           0       -5.067409   -5.559355    0.380461
     41          6           0       -4.153920   -3.320572    0.571700
     42          6           0       -3.473862   -3.599696    1.946408
     43          8           0       -3.802063   -3.007731    2.978693
     44          8           0       -2.736290   -4.572270    1.830861
     45          6           0       -2.089088   -4.940581    3.012862
     46          6           0        2.767206   -0.494599   -1.187977
     47          6           0        4.123169   -0.319269   -0.604360
     48          6           0        5.051995    0.512269   -0.967676
     49          6           0        5.119739    1.485272   -2.126197
     50          6           0        6.394866    0.474324   -0.158676
     51          6           0        7.624408   -0.115782   -0.862728
     52          6           0        8.918765   -0.177323   -0.024635
     53          6           0       10.251093   -0.531517   -0.886391
     54          6           0       10.129860   -1.983556   -1.265728
     55          6           0       11.489056   -0.173806   -0.062658
     56          6           0       12.818128   -0.599170   -0.624725
     57          6           0       13.991868   -0.189490    0.182538
     58          6           0       15.348397   -0.339979   -0.455987
     59          6           0       15.841841   -1.813679   -0.703727
     60          6           0       16.455942    0.303331    0.509096
     61          6           0       17.802701    0.489872   -0.186606
     62          6           0       18.887702    1.275898    0.703681
     63          6           0       20.282649    1.327982    0.104375
     64          6           0       20.279081    2.103978   -1.222363
     65          6           0       21.368842    1.892544    1.058935
     66          1           0       -4.192890    3.764013    1.356468
     67          1           0      -10.105309    3.936412   -0.480644
     68          1           0      -10.453912   -2.398069   -1.218396
     69          1           0       -2.557596   -0.994562    2.085900
     70          1           0       -2.101016    1.661236    1.360451
     71          1           0       -2.171024    1.010525    3.484716
     72          1           0       -3.411998    2.220845    3.231787
     73          1           0       -3.768787    0.560522    3.774634
     74          1           0       -2.128374   -1.331559   -0.524831
     75          1           0       -2.141485    0.339178   -0.714338
     76          1           0       -0.169068    0.570887    0.980327
     77          1           0       -0.143902   -1.038722    1.300813
     78          1           0       -5.722368    6.906774    0.667139
     79          1           0       -5.560986    6.155645    2.284921
     80          1           0       -4.561316    5.406658    1.073111
     81          1           0       -9.380103    6.095111   -0.507944
     82          1           0       -9.378284    7.877863    0.240161
     83          1           0       -8.001982    7.348231    1.771050
     84          1           0      -12.141371    3.061407   -2.107572
     85          1           0      -13.451251    1.846837   -1.571301
     86          1           0      -12.647907    2.893323   -0.546520
     87          1           0      -12.516800   -1.653410   -1.141024
     88          1           0      -13.386854   -0.454548   -1.368736
     89          1           0      -12.924396   -2.191130   -3.247744
     90          1           0      -12.266135   -0.601705   -3.929740
     91          1           0      -11.329495   -2.133168   -3.145812
     92          1           0       -8.909326   -4.669511   -1.963803
     93          1           0       -7.986628   -5.760468   -0.802706
     94          1           0       -9.526479   -5.023638   -0.239997
     95          1           0       -3.252018   -3.552556   -0.264269
     96          1           0       -1.526100   -4.132308    3.488667
     97          1           0       -2.872676   -5.478678    3.670227
     98          1           0       -1.267916   -5.622516    2.786389
     99          1           0        2.644079   -1.685866   -1.398248
    100          1           0        2.471613    0.100483   -2.012937
    101          1           0        4.196666   -0.538043    0.563432
    102          1           0        4.212001    1.604846   -2.595435
    103          1           0        5.227461    2.587840   -1.717351
    104          1           0        6.061072    1.383259   -2.719720
    105          1           0        6.728628    1.554858    0.058046
    106          1           0        6.246832   -0.040649    0.871871
    107          1           0        7.484567   -1.149393   -1.443566
    108          1           0        7.727299    0.585130   -1.735755
    109          1           0        8.915432    0.855214    0.455292
    110          1           0        8.912034   -0.798477    0.910564
    111          1           0       10.210734   -0.003899   -1.684219
    112          1           0        9.006114   -2.138256   -1.612242
    113          1           0       10.950747   -2.290196   -2.036953
    114          1           0       10.055970   -2.724776   -0.338946
    115          1           0       11.416186    0.897632    0.321174
    116          1           0       11.242618   -0.768026    0.804061
    117          1           0       12.726384   -1.605551   -1.155457
    118          1           0       12.990728   -0.230100   -1.574076
    119          1           0       14.063618    0.725232    0.599222
    120          1           0       13.814508   -0.729228    1.077750
    121          1           0       15.413450    0.136596   -1.446207
    122          1           0       15.759617   -2.346890    0.242492
    123          1           0       15.077843   -2.343585   -1.381875
    124          1           0       16.834345   -2.006271   -1.176740
    125          1           0       16.373988    1.292481    0.959453
    126          1           0       16.376102   -0.324394    1.414721
    127          1           0       18.131952   -0.365669   -0.418338
    128          1           0       17.625355    0.824929   -0.997244
    129          1           0       18.578556    2.193485    0.686234
    130          1           0       18.992040    0.970820    1.850331
    131          1           0       20.655471    0.285655   -0.136450
    132          1           0       20.111706    3.276384   -1.064716
    133          1           0       21.300658    2.124724   -1.671712
    134          1           0       19.979006    1.738393   -2.226386
    135          1           0       21.108824    1.422775    2.174758
    136          1           0       22.583573    1.411867    1.100598
    137          1           0       21.403656    3.053076    1.327162
 ---------------------------------------------------------------------

 SCF Done:  E(RCAM-B3LYP) =  -2933.38387980     A.U. after   15 cycles

 Excitation energies and oscillator strengths:

 Excited State   1:      Singlet-A      2.1003 eV  590.31 nm  f=0.2770  <S**2>=0.000
     240 -> 242       -0.11808
     240 -> 243        0.22364
     241 -> 242        0.65278
 This state for optimization and/or second-order correction.
 Total Energy, E(TD-HF/TD-DFT) =  -2933.30669469
 Copying the excited state density for this state as the 1-particle RhoCI density.

 The electronic state is 1-A.
 Alpha  occ. eigenvalues --  -46.79451 -19.24759 -19.22450 -19.16895 -19.16498
 Alpha  occ. eigenvalues --  -19.15476 -14.36479 -14.35340 -14.35185 -14.34582
 Alpha  occ. eigenvalues --  -10.34574 -10.34388 -10.31056 -10.28249 -10.27949
 Alpha  occ. eigenvalues --  -10.25736 -10.25729 -10.25232 -10.24936 -10.24685
 Alpha  occ. eigenvalues --  -10.24511 -10.24492 -10.24415 -10.24217 -10.24084
 Alpha  occ. eigenvalues --  -10.23637 -10.23294 -10.23258 -10.23178 -10.23159
 Alpha  occ. eigenvalues --  -10.23063 -10.22977 -10.22960 -10.22919 -10.22738
 Alpha  occ. eigenvalues --  -10.22555 -10.22482 -10.22458 -10.22386 -10.22352
 Alpha  occ. eigenvalues --  -10.22308 -10.22296 -10.22288 -10.22198 -10.22086
 Alpha  occ. eigenvalues --  -10.22082 -10.21967 -10.21850 -10.21785 -10.21644
 Alpha  occ. eigenvalues --  -10.21573 -10.21517 -10.21226 -10.20891 -10.20813
 Alpha  occ. eigenvalues --  -10.20686 -10.20667 -10.20640 -10.20541 -10.20379
 Alpha  occ. eigenvalues --  -10.20104 -10.19989 -10.19050 -10.18903 -10.17175
 Alpha  occ. eigenvalues --   -3.08058  -1.83003  -1.82500  -1.82496  -1.19595
 Alpha  occ. eigenvalues --   -1.12457  -1.09287  -1.03746  -1.02116  -1.00190
 Alpha  occ. eigenvalues --   -0.97692  -0.96612  -0.95035  -0.86482  -0.86131
 Alpha  occ. eigenvalues --   -0.85694  -0.84632  -0.84444  -0.84357  -0.83239
 Alpha  occ. eigenvalues --   -0.83114  -0.82899  -0.82344  -0.81481  -0.80941
 Alpha  occ. eigenvalues --   -0.80666  -0.80004  -0.79418  -0.78661  -0.78313
 Alpha  occ. eigenvalues --   -0.77471  -0.76418  -0.75451  -0.74900  -0.73756
 Alpha  occ. eigenvalues --   -0.73131  -0.71903  -0.71207  -0.71143  -0.70574
 Alpha  occ. eigenvalues --   -0.70293  -0.70235  -0.68835  -0.68413  -0.68025
 Alpha  occ. eigenvalues --   -0.67283  -0.66389  -0.66220  -0.65428  -0.63626
 Alpha  occ. eigenvalues --   -0.63307  -0.62481  -0.61217  -0.60764  -0.60679
 Alpha  occ. eigenvalues --   -0.60367  -0.60198  -0.59568  -0.58981  -0.58396
 Alpha  occ. eigenvalues --   -0.58294  -0.56735  -0.56355  -0.55879  -0.55313
 Alpha  occ. eigenvalues --   -0.54595  -0.54163  -0.54025  -0.53561  -0.53175
 Alpha  occ. eigenvalues --   -0.52273  -0.51888  -0.51702  -0.51047  -0.50774
 Alpha  occ. eigenvalues --   -0.50444  -0.50335  -0.49807  -0.49431  -0.49104
 Alpha  occ. eigenvalues --   -0.48932  -0.48647  -0.48382  -0.48179  -0.47985
 Alpha  occ. eigenvalues --   -0.47657  -0.47625  -0.47156  -0.46986  -0.46929
 Alpha  occ. eigenvalues --   -0.46511  -0.46228  -0.46123  -0.45920  -0.45813
 Alpha  occ. eigenvalues --   -0.45526  -0.45491  -0.45091  -0.44673  -0.44619
 Alpha  occ. eigenvalues --   -0.44361  -0.44287  -0.44103  -0.43835  -0.43693
 Alpha  occ. eigenvalues --   -0.43075  -0.42799  -0.42598  -0.42419  -0.42211
 Alpha  occ. eigenvalues --   -0.41836  -0.41735  -0.41492  -0.41389  -0.41354
 Alpha  occ. eigenvalues --   -0.41096  -0.40943  -0.40825  -0.40777  -0.40708
 Alpha  occ. eigenvalues --   -0.40420  -0.40157  -0.39742  -0.39675  -0.39624
 Alpha  occ. eigenvalues --   -0.39540  -0.39392  -0.38942  -0.38824  -0.38698
 Alpha  occ. eigenvalues --   -0.38632  -0.38440  -0.38250  -0.38014  -0.37938
 Alpha  occ. eigenvalues --   -0.37788  -0.37740  -0.37646  -0.37480  -0.37193
 Alpha  occ. eigenvalues --   -0.36801  -0.36600  -0.36138  -0.36113  -0.35789
 Alpha  occ. eigenvalues --   -0.35528  -0.35225  -0.35183  -0.34911  -0.34708
 Alpha  occ. eigenvalues --   -0.34194  -0.33862  -0.33563  -0.33473  -0.33419
 Alpha  occ. eigenvalues --   -0.33365  -0.33317  -0.33018  -0.32794  -0.32396
 Alpha  occ. eigenvalues --   -0.31973  -0.31349  -0.31323  -0.30109  -0.30056
 Alpha  occ. eigenvalues --   -0.29974  -0.29620  -0.29098  -0.28665  -0.27972
 Alpha  occ. eigenvalues --   -0.27413  -0.26936  -0.25650  -0.24449  -0.21608
 Alpha  occ. eigenvalues --   -0.19851
 Alpha virt. eigenvalues --   -0.06595  -0.03589   0.00831   0.02584   0.02947
 Alpha virt. eigenvalues --    0.03828   0.04570   0.05451   0.05841   0.06068
 Alpha virt. eigenvalues --    0.06709   0.09340   0.09686   0.09795   0.09872

 Mulliken charges:
               1
     1  Mg   0.812010
     2  C    0.026564
     3  C   -0.161018
     4  C   -0.184279
     5  C   -0.156202
     6  N   -0.650042
     7  C    0.336304
     8  C   -0.145486
     9  C   -0.137740
    10  C    0.327430
    11  C   -0.301466
    12  C   -0.177463
    13  C   -0.273689
    14  C    0.598290
    15  O   -0.497382
    16  O   -0.469879
    17  N   -0.720040
    18  C    0.287813
    19  C    0.052868
    20  C    0.012919
    21  C    0.343982
    22  C   -0.383292
    23  C   -0.105511
    24  C   -0.236208
    25  N   -0.683569
    26  C    0.319694
    27  C    0.003333
    28  C    0.020724
    29  C    0.243927
    30  C   -0.391645
    31  C   -0.207831
    32  C   -0.289931
    33  N   -0.757872
    34  C    0.282302
    35  C   -0.038118
    36  C    0.007492
    37  C    0.338717
    38  C   -0.373042
    39  C    0.399751
    40  O   -0.415728
    41  C   -0.312631
    42  C    0.592361
    43  O   -0.510959
    44  O   -0.329300
    45  C   -0.107585
    46  C    0.023834
    47  C   -0.145908
    48  C    0.155214
    49  C   -0.367627
    50  C   -0.225758
    51  C   -0.164692
    52  C   -0.189013
    53  C   -0.043818
    54  C   -0.297816
    55  C   -0.159809
    56  C   -0.189671
    57  C   -0.154600
    58  C   -0.084182
    59  C   -0.315557
    60  C   -0.195284
    61  C   -0.148943
    62  C   -0.167698
    63  C   -0.036876
    64  C   -0.320591
    65  C   -0.296461
    66  H    0.064053
    67  H    0.074149
    68  H    0.088275
    69  H    0.116677
    70  H    0.102781
    71  H    0.101422
    72  H    0.114283
    73  H    0.114529
    74  H    0.122758
    75  H    0.119338
    76  H    0.132617
    77  H    0.137617
    78  H    0.128635
    79  H    0.117320
    80  H    0.096618
    81  H    0.092619
    82  H    0.094980
    83  H    0.109658
    84  H    0.126638
    85  H    0.098157
    86  H    0.126976
    87  H    0.116446
    88  H    0.103611
    89  H    0.117021
    90  H    0.106838
    91  H    0.080551
    92  H    0.120479
    93  H    0.137250
    94  H    0.117636
    95  H    0.118844
    96  H    0.134530
    97  H    0.137818
    98  H    0.124822
    99  H    0.114633
   100  H    0.131408
   101  H    0.089614
   102  H    0.120756
   103  H    0.105627
   104  H    0.125750
   105  H    0.085209
   106  H    0.081912
   107  H    0.080938
   108  H    0.088863
   109  H    0.076545
   110  H    0.091651
   111  H    0.095997
   112  H    0.088179
   113  H    0.093335
   114  H    0.087684
   115  H    0.080811
   116  H    0.090684
   117  H    0.083437
   118  H    0.091682
   119  H    0.106503
   120  H    0.092464
   121  H    0.083276
   122  H    0.107649
   123  H    0.083573
   124  H    0.105571
   125  H    0.079855
   126  H    0.084675
   127  H    0.096295
   128  H    0.095754
   129  H    0.109219
   130  H    0.071694
   131  H    0.089870
   132  H    0.087004
   133  H    0.095797
   134  H    0.104769
   135  H    0.068330
   136  H    0.075313
   137  H    0.098419
 Sum of Mulliken charges =  -0.00000

 Dipole moment (field-independent basis, Debye):
    X=              1.2613    Y=              3.0114    Z=              0.1216  Tot=              3.2671
 Quadrupole moment (field-independent basis, Debye-Ang):
   XX=           -346.9067   YY=           -389.0750   ZZ=           -397.7175
   XY=             -8.8611   XZ=              5.1799   YZ=             -4.3943

 Normal termination of Gaussian 16 at Fri Sep  6 12:55:19 2019.
