 Gaussian 16, Revision A.03,
 Gaussian 16:  ES64L-G16RevA.03 25-Dec-2016

 ----------------------------------------------------------------------
 # td=(NStates=1) iop(3/107=0140000000,3/108=0140000000) CAM-B3LYP/6-31
 G(d,p)
 ----------------------------------------------------------------------

 --
 TD
 --
 Symbolic Z-matrix:
 Charge =  0 Multiplicity = 1

                         Standard orientation:
 ---------------------------------------------------------------------
 Center     Atomic      Atomic             Coordinates (Angstroms)
 Number     Number       Type             X           Y           Z
 ---------------------------------------------------------------------
      1         12           0       -7.147989    0.620696    0.039559
      2          6           0       -4.880826   -1.952394    0.483696
      3          6           0       -4.870571    2.815296    1.162668
      4          6           0       -9.447506    3.184746   -0.520402
      5          6           0       -9.613736   -1.702453   -0.951126
      6          7           0       -5.185424    0.391518    0.707417
      7          6           0       -4.429834   -0.654644    0.755989
      8          6           0       -2.880464   -0.360306    1.207809
      9          6           0       -3.121994    1.065181    1.732987
     10          6           0       -4.420025    1.534487    1.287514
     11          6           0       -3.091043    1.026200    3.246658
     12          6           0       -1.906005   -0.526243    0.244613
     13          6           0       -0.406228   -0.424948    0.743644
     14          6           0        0.537417   -0.751055   -0.389458
     15          8           0        0.387929   -0.998743   -1.557292
     16          8           0        1.778060   -0.562422   -0.015247
     17          7           0       -7.170201    2.624526    0.411907
     18          6           0       -6.018180    3.413401    0.865147
     19          6           0       -6.334419    4.761442    0.790243
     20          6           0       -7.614216    4.913979    0.294453
     21          6           0       -8.125483    3.568784    0.020090
     22          6           0       -5.500087    5.927325    1.216409
     23          6           0       -8.422761    5.981137    0.056665
     24          6           0       -8.336912    7.256048    0.563474
     25          7           0       -9.132183    0.680224   -0.523988
     26          6           0       -9.860304    1.873722   -0.702343
     27          6           0      -11.265304    1.541957   -1.244753
     28          6           0      -11.391411    0.136938   -1.235622
     29          6           0      -10.027119   -0.323706   -0.863920
     30          6           0      -12.333158    2.483968   -1.425305
     31          6           0      -12.371374   -0.775586   -1.730934
     32          6           0      -12.148175   -1.450250   -3.252421
     33          7           0       -7.247752   -1.367901   -0.236012
     34          6           0       -8.245387   -2.247198   -0.677220
     35          6           0       -7.795925   -3.633790   -0.566449
     36          6           0       -6.520968   -3.582042   -0.123789
     37          6           0       -6.199718   -2.224553    0.009419
     38          6           0       -8.620317   -4.824631   -0.906461
     39          6           0       -5.313402   -4.337818    0.175689
     40          8           0       -5.138508   -5.543748    0.268398
     41          6           0       -4.183524   -3.390444    0.531991
     42          6           0       -3.608496   -3.756806    1.846164
     43          8           0       -3.683313   -3.132392    2.927239
     44          8           0       -2.691455   -4.762826    1.809849
     45          6           0       -2.194701   -5.270505    3.052903
     46          6           0        2.850440   -0.755339   -1.005479
     47          6           0        4.104390   -0.417787   -0.365817
     48          6           0        5.100094    0.384312   -0.917485
     49          6           0        5.062719    1.144895   -2.214700
     50          6           0        6.456432    0.591105   -0.257537
     51          6           0        7.625322    0.058286   -1.019232
     52          6           0        8.910181   -0.031704   -0.259521
     53          6           0       10.228462   -0.420017   -0.956315
     54          6           0        9.989685   -1.841268   -1.566865
     55          6           0       11.450131   -0.302473   -0.051502
     56          6           0       12.774235   -0.653873   -0.742432
     57          6           0       13.950039   -0.120498    0.098159
     58          6           0       15.348433   -0.050468   -0.637228
     59          6           0       15.625521   -1.564763   -1.066091
     60          6           0       16.481946    0.434023    0.348061
     61          6           0       17.900592    0.448291   -0.190815
     62          6           0       18.806992    1.210735    0.760278
     63          6           0       20.359557    1.238870    0.368377
     64          6           0       20.454683    2.041493   -1.025298
     65          6           0       21.172274    1.816077    1.554331
     66          1           0       -4.223142    3.525943    1.560912
     67          1           0      -10.224465    4.052375   -0.770961
     68          1           0      -10.285531   -2.333834   -1.252695
     69          1           0       -2.908546   -0.944958    2.227949
     70          1           0       -2.456614    1.683474    1.555272
     71          1           0       -2.051750    0.639386    3.540235
     72          1           0       -3.261407    2.202350    3.599969
     73          1           0       -3.933543    0.496941    3.610643
     74          1           0       -1.980854   -1.552060   -0.189982
     75          1           0       -2.369251    0.071469   -0.624223
     76          1           0       -0.354829    0.730430    1.052925
     77          1           0       -0.301356   -1.147714    1.696267
     78          1           0       -5.869572    6.680812    0.553401
     79          1           0       -5.787012    6.372092    2.332042
     80          1           0       -4.363310    5.831696    1.255306
     81          1           0       -9.175727    5.749011   -0.567580
     82          1           0       -9.068425    7.952395    0.427133
     83          1           0       -7.575458    7.465833    1.344819
     84          1           0      -12.173050    3.184960   -2.239509
     85          1           0      -13.354417    2.018533   -1.610712
     86          1           0      -12.581719    2.899412   -0.464503
     87          1           0      -12.716358   -1.482852   -1.046067
     88          1           0      -13.533868   -0.203694   -1.616430
     89          1           0      -12.999855   -1.968706   -3.333209
     90          1           0      -11.937740   -0.788975   -3.848925
     91          1           0      -11.172578   -2.149597   -2.998861
     92          1           0       -8.908258   -4.922963   -1.935547
     93          1           0       -7.884251   -5.707134   -0.808404
     94          1           0       -9.509717   -4.864824   -0.375795
     95          1           0       -3.582117   -3.683428   -0.411503
     96          1           0       -1.631433   -4.409086    3.597144
     97          1           0       -3.010436   -5.571687    3.689339
     98          1           0       -1.281907   -6.040298    2.762382
     99          1           0        2.908632   -1.866758   -1.455526
    100          1           0        2.807370   -0.029417   -1.940601
    101          1           0        4.233060   -0.996702    0.713023
    102          1           0        4.064920    1.509915   -2.326813
    103          1           0        5.706514    2.122277   -2.032109
    104          1           0        5.368472    0.376405   -2.926893
    105          1           0        6.777754    1.609481   -0.058731
    106          1           0        6.440237   -0.029825    0.733170
    107          1           0        7.587301   -0.841257   -1.323650
    108          1           0        7.815674    0.871073   -2.046767
    109          1           0        9.076826    0.985226    0.134847
    110          1           0        8.943024   -0.732480    0.719974
    111          1           0       10.393772    0.125907   -1.869371
    112          1           0        9.039795   -1.935037   -2.109414
    113          1           0       10.662240   -2.058504   -2.354981
    114          1           0       10.320318   -2.485817   -0.688881
    115          1           0       11.484816    0.726561    0.135496
    116          1           0       11.298824   -0.809690    0.762873
    117          1           0       12.857887   -1.599933   -0.917450
    118          1           0       12.727696    0.030467   -1.660726
    119          1           0       13.772446    0.933904    0.423564
    120          1           0       13.866375   -0.718585    0.912767
    121          1           0       15.311985    0.544460   -1.461822
    122          1           0       15.644297   -2.201956   -0.327868
    123          1           0       15.111227   -1.933495   -1.914506
    124          1           0       16.571941   -1.633219   -1.614069
    125          1           0       16.180018    1.404769    0.523765
    126          1           0       16.558382   -0.262012    1.304160
    127          1           0       18.185179   -0.571917   -0.537638
    128          1           0       17.942911    1.103148   -1.215489
    129          1           0       18.268537    2.316970    0.973345
    130          1           0       18.657942    0.725073    1.828531
    131          1           0       20.425417    0.220517    0.143015
    132          1           0       19.882498    3.095287   -0.923181
    133          1           0       21.300487    2.170116   -1.534438
    134          1           0       19.810569    1.412955   -1.734091
    135          1           0       21.053321    1.210533    2.354235
    136          1           0       22.229078    1.877495    1.095187
    137          1           0       20.744015    2.772102    1.747208
 ---------------------------------------------------------------------

 SCF Done:  E(RCAM-B3LYP) =  -2933.35941119     A.U. after   16 cycles

 Excitation energies and oscillator strengths:

 Excited State   1:      Singlet-A      1.8472 eV  671.20 nm  f=0.3058  <S**2>=0.000
     240 -> 243        0.20415
     241 -> 242        0.67355
 This state for optimization and/or second-order correction.
 Total Energy, E(TD-HF/TD-DFT) =  -2933.29152728
 Copying the excited state density for this state as the 1-particle RhoCI density.

 The electronic state is 1-A.
 Alpha  occ. eigenvalues --  -46.79546 -19.21483 -19.21359 -19.16248 -19.16208
 Alpha  occ. eigenvalues --  -19.15771 -14.37897 -14.35927 -14.35488 -14.35018
 Alpha  occ. eigenvalues --  -10.35031 -10.34168 -10.30780 -10.28808 -10.28090
 Alpha  occ. eigenvalues --  -10.26460 -10.26402 -10.26077 -10.26002 -10.25734
 Alpha  occ. eigenvalues --  -10.25723 -10.25664 -10.25496 -10.24549 -10.24364
 Alpha  occ. eigenvalues --  -10.24032 -10.23976 -10.23728 -10.23690 -10.23511
 Alpha  occ. eigenvalues --  -10.23269 -10.22840 -10.22801 -10.22756 -10.22619
 Alpha  occ. eigenvalues --  -10.22577 -10.22510 -10.22508 -10.22388 -10.22305
 Alpha  occ. eigenvalues --  -10.22104 -10.22022 -10.21884 -10.21497 -10.21494
 Alpha  occ. eigenvalues --  -10.21438 -10.21368 -10.21317 -10.21304 -10.21243
 Alpha  occ. eigenvalues --  -10.21201 -10.21158 -10.20977 -10.20918 -10.20782
 Alpha  occ. eigenvalues --  -10.20771 -10.20716 -10.20694 -10.20517 -10.19793
 Alpha  occ. eigenvalues --  -10.19786 -10.19736 -10.19573 -10.18662 -10.18205
 Alpha  occ. eigenvalues --   -3.08196  -1.83131  -1.82675  -1.82606  -1.14364
 Alpha  occ. eigenvalues --   -1.12140  -1.06410  -1.03231  -1.01976  -0.98992
 Alpha  occ. eigenvalues --   -0.97851  -0.96403  -0.95451  -0.87422  -0.86801
 Alpha  occ. eigenvalues --   -0.86468  -0.85228  -0.84990  -0.84206  -0.83966
 Alpha  occ. eigenvalues --   -0.83707  -0.82933  -0.82607  -0.82342  -0.81448
 Alpha  occ. eigenvalues --   -0.80873  -0.79385  -0.78768  -0.78487  -0.77376
 Alpha  occ. eigenvalues --   -0.77314  -0.75802  -0.75746  -0.75366  -0.74033
 Alpha  occ. eigenvalues --   -0.73444  -0.72506  -0.72009  -0.71424  -0.71132
 Alpha  occ. eigenvalues --   -0.70811  -0.70614  -0.69668  -0.68683  -0.67811
 Alpha  occ. eigenvalues --   -0.67536  -0.66580  -0.65521  -0.64746  -0.64196
 Alpha  occ. eigenvalues --   -0.63057  -0.62534  -0.61637  -0.60902  -0.60550
 Alpha  occ. eigenvalues --   -0.59578  -0.59204  -0.58542  -0.58214  -0.58111
 Alpha  occ. eigenvalues --   -0.57939  -0.57104  -0.56251  -0.55806  -0.55227
 Alpha  occ. eigenvalues --   -0.55017  -0.54217  -0.53936  -0.53280  -0.52714
 Alpha  occ. eigenvalues --   -0.52664  -0.52237  -0.51808  -0.51488  -0.50997
 Alpha  occ. eigenvalues --   -0.50352  -0.50149  -0.49760  -0.49374  -0.49243
 Alpha  occ. eigenvalues --   -0.48993  -0.48599  -0.48390  -0.48269  -0.47986
 Alpha  occ. eigenvalues --   -0.47840  -0.47590  -0.47441  -0.47217  -0.47164
 Alpha  occ. eigenvalues --   -0.46855  -0.46754  -0.46527  -0.46484  -0.46302
 Alpha  occ. eigenvalues --   -0.45812  -0.45561  -0.45128  -0.44974  -0.44672
 Alpha  occ. eigenvalues --   -0.44664  -0.44474  -0.44098  -0.43866  -0.43653
 Alpha  occ. eigenvalues --   -0.43543  -0.43356  -0.43326  -0.43120  -0.42855
 Alpha  occ. eigenvalues --   -0.42326  -0.42109  -0.41937  -0.41515  -0.41479
 Alpha  occ. eigenvalues --   -0.41427  -0.41415  -0.41294  -0.40979  -0.40744
 Alpha  occ. eigenvalues --   -0.40462  -0.40250  -0.40099  -0.39824  -0.39604
 Alpha  occ. eigenvalues --   -0.39503  -0.39382  -0.39202  -0.39151  -0.38970
 Alpha  occ. eigenvalues --   -0.38874  -0.38726  -0.38665  -0.38397  -0.38251
 Alpha  occ. eigenvalues --   -0.37930  -0.37793  -0.37702  -0.37296  -0.37155
 Alpha  occ. eigenvalues --   -0.36803  -0.36557  -0.36446  -0.36223  -0.35716
 Alpha  occ. eigenvalues --   -0.35664  -0.35299  -0.34943  -0.34632  -0.34381
 Alpha  occ. eigenvalues --   -0.34316  -0.33879  -0.33644  -0.33551  -0.33301
 Alpha  occ. eigenvalues --   -0.33022  -0.32510  -0.32503  -0.32456  -0.31867
 Alpha  occ. eigenvalues --   -0.31723  -0.31633  -0.31463  -0.30477  -0.30371
 Alpha  occ. eigenvalues --   -0.29787  -0.29588  -0.29549  -0.28455  -0.27749
 Alpha  occ. eigenvalues --   -0.27320  -0.26407  -0.25853  -0.24095  -0.21518
 Alpha  occ. eigenvalues --   -0.19634
 Alpha virt. eigenvalues --   -0.07870  -0.03887  -0.00142   0.01505   0.02491
 Alpha virt. eigenvalues --    0.03271   0.03895   0.04358   0.04767   0.05774
 Alpha virt. eigenvalues --    0.06323   0.08761   0.09049   0.09199   0.09448

 Mulliken charges:
               1
     1  Mg   0.803009
     2  C    0.051809
     3  C   -0.186152
     4  C   -0.185196
     5  C   -0.162130
     6  N   -0.621434
     7  C    0.277502
     8  C   -0.142038
     9  C   -0.107392
    10  C    0.302226
    11  C   -0.303054
    12  C   -0.159573
    13  C   -0.277570
    14  C    0.611705
    15  O   -0.472346
    16  O   -0.450074
    17  N   -0.707736
    18  C    0.290890
    19  C    0.053859
    20  C    0.059661
    21  C    0.272360
    22  C   -0.380641
    23  C   -0.077261
    24  C   -0.261128
    25  N   -0.673042
    26  C    0.311622
    27  C    0.022780
    28  C    0.093424
    29  C    0.289499
    30  C   -0.400708
    31  C   -0.293276
    32  C   -0.273190
    33  N   -0.701184
    34  C    0.256785
    35  C   -0.020056
    36  C    0.118758
    37  C    0.262610
    38  C   -0.390666
    39  C    0.315241
    40  O   -0.461987
    41  C   -0.298583
    42  C    0.642051
    43  O   -0.492434
    44  O   -0.439928
    45  C   -0.070654
    46  C    0.019525
    47  C   -0.116677
    48  C    0.096548
    49  C   -0.356893
    50  C   -0.217670
    51  C   -0.132925
    52  C   -0.160956
    53  C   -0.073857
    54  C   -0.323047
    55  C   -0.168805
    56  C   -0.173351
    57  C   -0.170283
    58  C   -0.061537
    59  C   -0.330417
    60  C   -0.151759
    61  C   -0.171892
    62  C   -0.157705
    63  C   -0.062417
    64  C   -0.307988
    65  C   -0.297403
    66  H    0.065078
    67  H    0.099093
    68  H    0.051310
    69  H    0.130760
    70  H    0.081665
    71  H    0.103085
    72  H    0.067508
    73  H    0.139773
    74  H    0.115614
    75  H    0.115982
    76  H    0.134373
    77  H    0.141539
    78  H    0.135609
    79  H    0.096356
    80  H    0.107052
    81  H    0.071666
    82  H    0.098653
    83  H    0.093725
    84  H    0.124093
    85  H    0.110058
    86  H    0.138175
    87  H    0.128806
    88  H    0.040024
    89  H    0.127653
    90  H    0.131352
    91  H    0.084607
    92  H    0.130514
    93  H    0.136232
    94  H    0.135420
    95  H    0.177332
    96  H    0.111932
    97  H    0.143090
    98  H    0.109730
    99  H    0.119000
   100  H    0.104664
   101  H    0.076482
   102  H    0.125623
   103  H    0.105831
   104  H    0.145223
   105  H    0.106642
   106  H    0.084920
   107  H    0.105952
   108  H    0.037659
   109  H    0.075929
   110  H    0.064167
   111  H    0.078577
   112  H    0.104206
   113  H    0.103193
   114  H    0.089289
   115  H    0.100529
   116  H    0.091374
   117  H    0.105520
   118  H    0.075317
   119  H    0.072239
   120  H    0.097023
   121  H    0.088546
   122  H    0.113369
   123  H    0.101825
   124  H    0.083158
   125  H    0.097612
   126  H    0.073651
   127  H    0.095927
   128  H    0.065383
   129  H    0.056041
   130  H    0.064243
   131  H    0.101381
   132  H    0.080048
   133  H    0.109952
   134  H    0.093560
   135  H    0.115528
   136  H    0.092216
   137  H    0.113491
 Sum of Mulliken charges =  -0.00000

 Dipole moment (field-independent basis, Debye):
    X=              0.7851    Y=              2.5477    Z=             -0.8723  Tot=              2.8051
 Quadrupole moment (field-independent basis, Debye-Ang):
   XX=           -326.9675   YY=           -399.2203   ZZ=           -397.5323
   XY=            -16.0612   XZ=             14.2365   YZ=             -0.2672

 Normal termination of Gaussian 16 at Mon Sep  9 18:25:45 2019.
