 Gaussian 16, Revision A.03,
 Gaussian 16:  ES64L-G16RevA.03 25-Dec-2016

 ----------------------------------------------------------------------
 # td=(NStates=1) iop(3/107=0140000000,3/108=0140000000) CAM-B3LYP/6-31
 G(d,p)
 ----------------------------------------------------------------------

 --
 TD
 --
 Symbolic Z-matrix:
 Charge =  0 Multiplicity = 1

                         Standard orientation:
 ---------------------------------------------------------------------
 Center     Atomic      Atomic             Coordinates (Angstroms)
 Number     Number       Type             X           Y           Z
 ---------------------------------------------------------------------
      1         12           0       -7.182831    0.685829    0.042630
      2          6           0       -4.916377   -1.992941    0.532923
      3          6           0       -4.726612    2.841673    1.213324
      4          6           0       -9.273551    3.103563   -0.459780
      5          6           0       -9.549774   -1.695318   -0.825806
      6          7           0       -5.118198    0.448648    0.771954
      7          6           0       -4.399228   -0.691368    0.774576
      8          6           0       -2.966253   -0.490069    1.329212
      9          6           0       -3.107610    1.034503    1.844554
     10          6           0       -4.380184    1.489861    1.095663
     11          6           0       -3.042734    0.947132    3.391872
     12          6           0       -2.008454   -0.600451    0.073777
     13          6           0       -0.539162   -0.529646    0.597021
     14          6           0        0.530351   -0.633325   -0.589656
     15          8           0        0.258121   -0.752281   -1.773850
     16          8           0        1.818162   -0.535346   -0.008886
     17          7           0       -7.079357    2.657803    0.418897
     18          6           0       -5.949584    3.363017    0.752991
     19          6           0       -6.226793    4.811379    0.740243
     20          6           0       -7.595097    4.920118    0.282743
     21          6           0       -8.049308    3.582046    0.105077
     22          6           0       -5.422642    5.895826    1.348431
     23          6           0       -8.441734    6.045191    0.129948
     24          6           0       -8.129465    7.277265    0.731903
     25          7           0       -9.037744    0.755194   -0.562330
     26          6           0       -9.784607    1.816138   -0.719650
     27          6           0      -11.119789    1.492580   -1.161450
     28          6           0      -11.260671    0.160257   -1.229575
     29          6           0       -9.854470   -0.317527   -0.902880
     30          6           0      -12.226494    2.540135   -1.406537
     31          6           0      -12.347306   -0.687224   -1.726906
     32          6           0      -12.106732   -1.072429   -3.291232
     33          7           0       -7.227011   -1.392552   -0.267010
     34          6           0       -8.272423   -2.249347   -0.484476
     35          6           0       -7.882758   -3.600009   -0.558534
     36          6           0       -6.537769   -3.557875   -0.116066
     37          6           0       -6.163930   -2.211719    0.027201
     38          6           0       -8.860694   -4.819632   -1.033665
     39          6           0       -5.368968   -4.406270    0.117819
     40          8           0       -5.312371   -5.570425    0.169696
     41          6           0       -4.254981   -3.428013    0.560311
     42          6           0       -3.561047   -3.850585    1.839707
     43          8           0       -3.746998   -3.300141    2.916132
     44          8           0       -2.695012   -4.851819    1.618313
     45          6           0       -2.018910   -5.299716    2.859591
     46          6           0        2.758554   -0.660275   -1.104448
     47          6           0        4.098754   -0.497027   -0.509796
     48          6           0        5.039746    0.421291   -0.906329
     49          6           0        5.049440    1.191691   -2.075932
     50          6           0        6.374680    0.490836   -0.114771
     51          6           0        7.571333   -0.118992   -0.985989
     52          6           0        8.856546   -0.096875   -0.203427
     53          6           0       10.126028   -0.545562   -0.868576
     54          6           0       10.160782   -2.129812   -1.337744
     55          6           0       11.336310   -0.197786    0.069254
     56          6           0       12.696195   -0.504027   -0.645427
     57          6           0       13.900838   -0.174756    0.200820
     58          6           0       15.279077   -0.207387   -0.429014
     59          6           0       15.629016   -1.631099   -0.961091
     60          6           0       16.390395    0.475765    0.525705
     61          6           0       17.789317    0.576394   -0.065676
     62          6           0       18.802924    1.245535    0.730020
     63          6           0       20.140731    1.283344    0.044924
     64          6           0       20.290781    2.156693   -1.248425
     65          6           0       21.200782    1.838163    1.216220
     66          1           0       -3.944555    3.593804    1.449507
     67          1           0      -10.036536    3.872451   -0.384087
     68          1           0      -10.487263   -2.101020   -1.163535
     69          1           0       -2.615088   -1.147787    2.005559
     70          1           0       -2.176092    1.498639    1.309372
     71          1           0       -2.107342    0.498165    3.511764
     72          1           0       -2.906432    1.906911    3.722833
     73          1           0       -4.030221    0.385611    3.714086
     74          1           0       -2.267669   -1.535085   -0.488990
     75          1           0       -2.119967    0.208388   -0.656184
     76          1           0       -0.365054    0.386913    1.093403
     77          1           0       -0.169076   -1.267070    1.405352
     78          1           0       -5.635966    6.846745    0.700282
     79          1           0       -5.785569    6.114885    2.517013
     80          1           0       -4.272859    5.783677    1.397829
     81          1           0       -9.504385    6.106261   -0.390021
     82          1           0       -8.717018    8.126507    0.660298
     83          1           0       -7.029812    7.594889    1.055696
     84          1           0      -12.243509    2.848925   -2.622830
     85          1           0      -13.277216    2.064012   -1.376377
     86          1           0      -12.000534    3.403266   -0.553522
     87          1           0      -12.270987   -1.562010   -1.165770
     88          1           0      -13.446777   -0.261984   -1.621673
     89          1           0      -12.927553   -1.772228   -3.527578
     90          1           0      -11.946437   -0.126938   -3.687052
     91          1           0      -11.165475   -1.718730   -3.216372
     92          1           0       -9.058802   -4.627374   -2.062001
     93          1           0       -8.413928   -5.744233   -0.895883
     94          1           0       -9.746669   -4.649766   -0.657153
     95          1           0       -3.585515   -3.595761   -0.170992
     96          1           0       -1.311835   -4.385281    3.360887
     97          1           0       -2.760274   -5.795867    3.724991
     98          1           0       -1.218363   -6.078424    2.756289
     99          1           0        2.637047   -1.547135   -1.557520
    100          1           0        2.369936    0.181148   -1.729247
    101          1           0        4.337049   -1.087683    0.413154
    102          1           0        3.840674    1.396253   -2.163975
    103          1           0        5.503437    2.032658   -2.019779
    104          1           0        5.314032    0.700274   -3.052836
    105          1           0        6.613675    1.482836    0.102935
    106          1           0        6.341237   -0.165675    0.727947
    107          1           0        7.326585   -1.076871   -1.393264
    108          1           0        7.601477    0.436065   -1.938897
    109          1           0        8.904067    0.827996    0.268136
    110          1           0        8.721376   -0.603673    0.706075
    111          1           0       10.239278    0.166178   -1.833002
    112          1           0        9.404534   -2.099978   -2.005587
    113          1           0       10.980534   -2.223199   -2.003498
    114          1           0       10.203924   -2.808541   -0.409944
    115          1           0       11.381772    1.104895    0.195044
    116          1           0       11.276310   -0.765494    0.905782
    117          1           0       12.917161   -1.574663   -0.923279
    118          1           0       12.840267    0.119221   -1.574134
    119          1           0       13.766716    0.828823    0.487931
    120          1           0       13.752547   -0.882678    0.977068
    121          1           0       15.331779    0.359984   -1.314404
    122          1           0       15.822146   -2.180679    0.037692
    123          1           0       14.842581   -2.028519   -1.563039
    124          1           0       16.545343   -1.380991   -1.462253
    125          1           0       15.943302    1.478858    0.862828
    126          1           0       16.321431   -0.196867    1.543254
    127          1           0       18.151141   -0.438270   -0.322576
    128          1           0       17.584973    1.137581   -1.027133
    129          1           0       18.487335    2.208318    1.077844
    130          1           0       18.752757    0.655114    1.659575
    131          1           0       20.592835    0.261904   -0.089638
    132          1           0       20.148400    3.288058   -1.118962
    133          1           0       21.367109    1.721962   -1.572642
    134          1           0       19.549385    1.776990   -2.132153
    135          1           0       21.331733    1.189812    2.055611
    136          1           0       22.249267    1.808502    0.562030
    137          1           0       21.045724    2.973473    1.428485
 ---------------------------------------------------------------------

 SCF Done:  E(RCAM-B3LYP) =  -2933.47629530     A.U. after   16 cycles

 Excitation energies and oscillator strengths:

 Excited State   1:      Singlet-A      2.0139 eV  615.66 nm  f=0.2888  <S**2>=0.000
     240 -> 243        0.24243
     241 -> 242        0.66125
 This state for optimization and/or second-order correction.
 Total Energy, E(TD-HF/TD-DFT) =  -2933.40228738
 Copying the excited state density for this state as the 1-particle RhoCI density.

 The electronic state is 1-A.
 Alpha  occ. eigenvalues --  -46.80029 -19.23580 -19.21506 -19.18076 -19.16176
 Alpha  occ. eigenvalues --  -19.15872 -14.37985 -14.35330 -14.35175 -14.34646
 Alpha  occ. eigenvalues --  -10.35079 -10.34514 -10.30181 -10.29553 -10.26281
 Alpha  occ. eigenvalues --  -10.25925 -10.25778 -10.25258 -10.25199 -10.25145
 Alpha  occ. eigenvalues --  -10.25087 -10.24802 -10.24670 -10.24509 -10.24307
 Alpha  occ. eigenvalues --  -10.23702 -10.23679 -10.23560 -10.23428 -10.23359
 Alpha  occ. eigenvalues --  -10.23286 -10.23163 -10.23087 -10.23045 -10.23004
 Alpha  occ. eigenvalues --  -10.22973 -10.22931 -10.22773 -10.22563 -10.22445
 Alpha  occ. eigenvalues --  -10.22334 -10.22248 -10.22236 -10.22168 -10.22096
 Alpha  occ. eigenvalues --  -10.22085 -10.22080 -10.22053 -10.21994 -10.21689
 Alpha  occ. eigenvalues --  -10.21261 -10.21135 -10.20847 -10.20821 -10.20639
 Alpha  occ. eigenvalues --  -10.20618 -10.20576 -10.20537 -10.20498 -10.20422
 Alpha  occ. eigenvalues --  -10.20278 -10.19818 -10.19608 -10.19209 -10.18541
 Alpha  occ. eigenvalues --   -3.08698  -1.83633  -1.83195  -1.83084  -1.12923
 Alpha  occ. eigenvalues --   -1.11481  -1.08775  -1.04496  -1.03650  -1.00090
 Alpha  occ. eigenvalues --   -0.99625  -0.98157  -0.97567  -0.87420  -0.86161
 Alpha  occ. eigenvalues --   -0.85166  -0.84752  -0.84189  -0.83951  -0.83729
 Alpha  occ. eigenvalues --   -0.82947  -0.82868  -0.81762  -0.80951  -0.80025
 Alpha  occ. eigenvalues --   -0.79416  -0.78764  -0.78270  -0.77583  -0.77216
 Alpha  occ. eigenvalues --   -0.76744  -0.75998  -0.75542  -0.75197  -0.73428
 Alpha  occ. eigenvalues --   -0.72867  -0.71950  -0.71757  -0.71342  -0.70458
 Alpha  occ. eigenvalues --   -0.70126  -0.69827  -0.68842  -0.68376  -0.67733
 Alpha  occ. eigenvalues --   -0.67083  -0.66090  -0.65379  -0.64215  -0.63744
 Alpha  occ. eigenvalues --   -0.62872  -0.62579  -0.61216  -0.60400  -0.59574
 Alpha  occ. eigenvalues --   -0.59341  -0.58949  -0.58419  -0.58324  -0.58305
 Alpha  occ. eigenvalues --   -0.57215  -0.56889  -0.56156  -0.55276  -0.54845
 Alpha  occ. eigenvalues --   -0.54240  -0.54114  -0.53258  -0.53014  -0.52614
 Alpha  occ. eigenvalues --   -0.52050  -0.51617  -0.51130  -0.50974  -0.50426
 Alpha  occ. eigenvalues --   -0.50416  -0.50097  -0.50048  -0.49672  -0.49105
 Alpha  occ. eigenvalues --   -0.48692  -0.48533  -0.48408  -0.48185  -0.47958
 Alpha  occ. eigenvalues --   -0.47886  -0.47325  -0.47158  -0.46770  -0.46551
 Alpha  occ. eigenvalues --   -0.46449  -0.46248  -0.46177  -0.45872  -0.45734
 Alpha  occ. eigenvalues --   -0.45495  -0.45399  -0.45360  -0.45204  -0.44948
 Alpha  occ. eigenvalues --   -0.44583  -0.44239  -0.44085  -0.43800  -0.43564
 Alpha  occ. eigenvalues --   -0.43519  -0.43324  -0.42902  -0.42794  -0.42602
 Alpha  occ. eigenvalues --   -0.42400  -0.41928  -0.41784  -0.41547  -0.41534
 Alpha  occ. eigenvalues --   -0.41404  -0.41269  -0.41131  -0.40971  -0.40729
 Alpha  occ. eigenvalues --   -0.40558  -0.40425  -0.40205  -0.40120  -0.40040
 Alpha  occ. eigenvalues --   -0.39785  -0.39674  -0.39283  -0.39209  -0.39044
 Alpha  occ. eigenvalues --   -0.38891  -0.38604  -0.38308  -0.38197  -0.38091
 Alpha  occ. eigenvalues --   -0.37824  -0.37709  -0.37551  -0.37449  -0.37235
 Alpha  occ. eigenvalues --   -0.36824  -0.36443  -0.36340  -0.35966  -0.35957
 Alpha  occ. eigenvalues --   -0.35637  -0.35452  -0.35026  -0.34685  -0.34431
 Alpha  occ. eigenvalues --   -0.34421  -0.33851  -0.33555  -0.33433  -0.33257
 Alpha  occ. eigenvalues --   -0.33110  -0.32955  -0.32814  -0.32622  -0.32504
 Alpha  occ. eigenvalues --   -0.32467  -0.31969  -0.31725  -0.30848  -0.30218
 Alpha  occ. eigenvalues --   -0.30055  -0.29994  -0.29393  -0.28463  -0.26931
 Alpha  occ. eigenvalues --   -0.26576  -0.26136  -0.25879  -0.24068  -0.21403
 Alpha  occ. eigenvalues --   -0.19949
 Alpha virt. eigenvalues --   -0.07261  -0.03572  -0.00197   0.02087   0.03551
 Alpha virt. eigenvalues --    0.03818   0.03991   0.04643   0.05077   0.05313
 Alpha virt. eigenvalues --    0.06649   0.08149   0.09183   0.09536   0.09542

 Mulliken charges:
               1
     1  Mg   0.829068
     2  C    0.099489
     3  C   -0.165658
     4  C   -0.194120
     5  C   -0.145768
     6  N   -0.587811
     7  C    0.262467
     8  C   -0.134741
     9  C   -0.163107
    10  C    0.312444
    11  C   -0.282056
    12  C   -0.185001
    13  C   -0.272546
    14  C    0.598000
    15  O   -0.459224
    16  O   -0.488435
    17  N   -0.709348
    18  C    0.302099
    19  C    0.029120
    20  C    0.062459
    21  C    0.287693
    22  C   -0.374123
    23  C   -0.118281
    24  C   -0.240341
    25  N   -0.706958
    26  C    0.351456
    27  C    0.030957
    28  C    0.061195
    29  C    0.235272
    30  C   -0.357704
    31  C   -0.282581
    32  C   -0.300075
    33  N   -0.706068
    34  C    0.267431
    35  C    0.007416
    36  C   -0.034164
    37  C    0.288034
    38  C   -0.347284
    39  C    0.342711
    40  O   -0.419873
    41  C   -0.316776
    42  C    0.641121
    43  O   -0.478673
    44  O   -0.435284
    45  C   -0.081982
    46  C    0.016986
    47  C   -0.136524
    48  C    0.120695
    49  C   -0.345368
    50  C   -0.234132
    51  C   -0.192806
    52  C   -0.153142
    53  C   -0.068898
    54  C   -0.316051
    55  C   -0.143632
    56  C   -0.192826
    57  C   -0.152656
    58  C   -0.077874
    59  C   -0.307696
    60  C   -0.171263
    61  C   -0.167736
    62  C   -0.144300
    63  C   -0.060564
    64  C   -0.291537
    65  C   -0.313136
    66  H    0.082825
    67  H    0.064571
    68  H    0.056054
    69  H    0.109055
    70  H    0.078684
    71  H    0.119608
    72  H    0.113533
    73  H    0.126352
    74  H    0.112774
    75  H    0.119685
    76  H    0.138752
    77  H    0.121989
    78  H    0.118650
    79  H    0.114230
    80  H    0.105411
    81  H    0.101628
    82  H    0.099443
    83  H    0.082820
    84  H    0.097268
    85  H    0.112272
    86  H    0.106197
    87  H    0.121479
    88  H    0.094304
    89  H    0.116188
    90  H    0.131688
    91  H    0.105586
    92  H    0.127256
    93  H    0.145688
    94  H    0.131254
    95  H    0.157239
    96  H    0.101002
    97  H    0.123432
    98  H    0.131751
    99  H    0.133088
   100  H    0.119854
   101  H    0.087825
   102  H    0.080986
   103  H    0.121854
   104  H    0.128998
   105  H    0.104476
   106  H    0.098986
   107  H    0.100333
   108  H    0.082878
   109  H    0.092917
   110  H    0.086339
   111  H    0.057918
   112  H    0.117325
   113  H    0.116229
   114  H    0.102180
   115  H    0.052528
   116  H    0.099725
   117  H    0.083248
   118  H    0.077574
   119  H    0.082330
   120  H    0.084737
   121  H    0.082583
   122  H    0.087650
   123  H    0.109608
   124  H    0.105118
   125  H    0.082319
   126  H    0.053279
   127  H    0.094439
   128  H    0.079593
   129  H    0.089921
   130  H    0.087909
   131  H    0.091256
   132  H    0.110538
   133  H    0.095456
   134  H    0.088476
   135  H    0.117172
   136  H    0.059328
   137  H    0.096368
 Sum of Mulliken charges =  -0.00000

 Dipole moment (field-independent basis, Debye):
    X=              1.0206    Y=              3.2575    Z=             -0.2652  Tot=              3.4239
 Quadrupole moment (field-independent basis, Debye-Ang):
   XX=           -345.4024   YY=           -393.1956   ZZ=           -399.3414
   XY=            -14.4531   XZ=             14.9450   YZ=             -0.9567

 Normal termination of Gaussian 16 at Mon Sep 16 19:23:52 2019.
