 Gaussian 09, Revision D.01,
 Gaussian 09:  ES64L-G09RevD.01 24-Apr-2013

 -------------------------------------
 # td=(NStates=1) CAM-B3LYP/6-31G(d,p)
 -------------------------------------

 --
 TD
 --
 Symbolic Z-matrix:
 Charge =  0 Multiplicity = 1

                         Standard orientation:
 ---------------------------------------------------------------------
 Center     Atomic      Atomic             Coordinates (Angstroms)
 Number     Number       Type             X           Y           Z
 ---------------------------------------------------------------------
      1         12           0       -7.081571    0.612278    0.072479
      2          6           0       -4.856748   -1.916464    0.485582
      3          6           0       -4.706328    2.901242    1.049969
      4          6           0       -9.304556    3.118689   -0.428871
      5          6           0       -9.502131   -1.798641   -0.953408
      6          7           0       -5.180894    0.408308    0.786725
      7          6           0       -4.408353   -0.688449    0.842678
      8          6           0       -2.934301   -0.362779    1.350580
      9          6           0       -3.094858    1.129233    1.736652
     10          6           0       -4.391634    1.466676    1.250113
     11          6           0       -2.879458    1.287214    3.271096
     12          6           0       -1.902808   -0.677619    0.196258
     13          6           0       -0.507007   -0.330140    0.636585
     14          6           0        0.542157   -0.609335   -0.489676
     15          8           0        0.206678   -1.032031   -1.603069
     16          8           0        1.675024   -0.431237   -0.081783
     17          7           0       -7.014195    2.586499    0.296153
     18          6           0       -5.969721    3.371410    0.727495
     19          6           0       -6.398237    4.829864    0.649200
     20          6           0       -7.661977    4.834657    0.307499
     21          6           0       -8.178494    3.479629   -0.035485
     22          6           0       -5.504607    5.884907    1.091087
     23          6           0       -8.592406    6.002238    0.054424
     24          6           0       -8.551856    7.134683    0.807408
     25          7           0       -9.005988    0.654753   -0.553732
     26          6           0       -9.795888    1.824125   -0.626086
     27          6           0      -11.103244    1.489652   -1.063682
     28          6           0      -11.133851    0.046981   -1.252140
     29          6           0       -9.811423   -0.371006   -0.989367
     30          6           0      -12.234682    2.525592   -1.454348
     31          6           0      -12.342965   -0.799470   -1.771622
     32          6           0      -12.138406   -1.172139   -3.323175
     33          7           0       -7.255297   -1.392186   -0.103643
     34          6           0       -8.214659   -2.253182   -0.509891
     35          6           0       -7.893316   -3.631050   -0.456141
     36          6           0       -6.563325   -3.489027   -0.177828
     37          6           0       -6.169818   -2.180435    0.075872
     38          6           0       -8.693790   -4.806123   -0.884676
     39          6           0       -5.336907   -4.365905    0.173823
     40          8           0       -5.258583   -5.561286    0.197875
     41          6           0       -4.242599   -3.245546    0.584650
     42          6           0       -3.557542   -3.693167    1.774308
     43          8           0       -3.803009   -3.267021    2.924916
     44          8           0       -2.660393   -4.719433    1.557065
     45          6           0       -2.094468   -5.254495    2.866886
     46          6           0        2.702434   -0.537557   -1.116482
     47          6           0        4.118035   -0.375027   -0.423461
     48          6           0        5.097437    0.381602   -0.880220
     49          6           0        5.040288    1.271098   -2.128342
     50          6           0        6.312405    0.360572   -0.028098
     51          6           0        7.591870   -0.293093   -0.808199
     52          6           0        8.861924   -0.188112    0.017035
     53          6           0       10.143612   -0.587053   -0.798066
     54          6           0       10.032891   -2.111607   -1.212406
     55          6           0       11.351177   -0.384122    0.087479
     56          6           0       12.689605   -0.485912   -0.720286
     57          6           0       13.913001   -0.078213    0.118361
     58          6           0       15.283410   -0.216568   -0.641257
     59          6           0       15.507746   -1.668834   -1.016259
     60          6           0       16.408112    0.380146    0.346231
     61          6           0       17.883424    0.485963   -0.221171
     62          6           0       18.802135    1.264685    0.596390
     63          6           0       20.347695    1.323661    0.053540
     64          6           0       20.454547    2.150405   -1.089820
     65          6           0       21.262541    1.999599    1.210734
     66          1           0       -3.977983    3.614825    1.308666
     67          1           0       -9.932703    4.078700   -0.494276
     68          1           0       -9.998184   -2.626300   -1.310297
     69          1           0       -2.727110   -0.944159    2.157322
     70          1           0       -2.343905    1.900601    1.319957
     71          1           0       -1.830176    0.986223    3.333914
     72          1           0       -2.905850    2.302676    3.639206
     73          1           0       -3.532217    0.655093    3.936826
     74          1           0       -2.110217   -1.751346   -0.200339
     75          1           0       -2.188583   -0.313301   -0.807375
     76          1           0       -0.300358    0.788819    0.882946
     77          1           0       -0.036392   -0.960844    1.497762
     78          1           0       -5.848647    6.840690    0.846987
     79          1           0       -5.417243    5.781632    2.268040
     80          1           0       -4.287858    5.800777    0.762467
     81          1           0       -9.313149    5.942514   -0.824349
     82          1           0       -9.129928    8.048511    0.581729
     83          1           0       -8.034245    7.183432    1.644021
     84          1           0      -12.189789    3.138153   -2.435713
     85          1           0      -13.271590    2.026286   -1.222308
     86          1           0      -12.325694    3.529437   -0.923669
     87          1           0      -12.360553   -1.551275   -1.083318
     88          1           0      -13.371447   -0.182215   -1.597742
     89          1           0      -12.958162   -1.767017   -3.763707
     90          1           0      -12.063191   -0.383295   -4.025159
     91          1           0      -11.092136   -1.720987   -3.452151
     92          1           0       -9.234792   -4.676324   -1.782328
     93          1           0       -8.057635   -5.524494   -0.931100
     94          1           0       -9.210979   -5.063559    0.040700
     95          1           0       -3.513647   -3.263926   -0.209267
     96          1           0       -1.758486   -4.394094    3.595268
     97          1           0       -2.997303   -5.865273    3.295474
     98          1           0       -1.371284   -5.935507    2.526457
     99          1           0        2.466730   -1.450463   -1.511050
    100          1           0        2.769814    0.188934   -2.042768
    101          1           0        4.351240   -0.930127    0.303499
    102          1           0        4.146821    1.759386   -2.351012
    103          1           0        5.525035    2.159687   -1.790635
    104          1           0        5.623235    0.642680   -2.733835
    105          1           0        6.483505    1.352414    0.165075
    106          1           0        6.185613   -0.109483    0.928891
    107          1           0        7.271471   -1.423986   -1.005886
    108          1           0        7.686378    0.260557   -1.715924
    109          1           0        9.127460    0.716890    0.486942
    110          1           0        8.869349   -0.857578    0.886507
    111          1           0       10.407572   -0.069273   -1.799271
    112          1           0        9.186219   -2.300275   -1.824736
    113          1           0       10.920555   -2.364375   -1.919472
    114          1           0       10.010530   -2.587659   -0.230669
    115          1           0       11.330984    0.802869    0.588518
    116          1           0       11.430197   -0.802920    0.904379
    117          1           0       12.752629   -1.491402   -1.083723
    118          1           0       12.812573    0.218740   -1.560448
    119          1           0       13.606966    0.842148    0.460149
    120          1           0       14.071222   -0.872337    0.926055
    121          1           0       15.279466    0.450722   -1.518660
    122          1           0       15.471113   -2.301754   -0.131383
    123          1           0       14.636970   -2.150744   -1.341064
    124          1           0       16.360187   -1.716759   -1.593320
    125          1           0       16.050877    1.445648    0.680642
    126          1           0       16.331055   -0.178742    1.263660
    127          1           0       18.208910   -0.603061   -0.328172
    128          1           0       17.795045    0.836135   -1.216126
    129          1           0       18.451593    2.223988    0.778388
    130          1           0       18.713463    0.743367    1.600944
    131          1           0       20.745201    0.207665   -0.023742
    132          1           0       19.850403    3.287768   -0.642186
    133          1           0       21.383916    2.619126   -1.340828
    134          1           0       20.045244    1.855674   -1.950814
    135          1           0       21.224454    1.332172    2.171624
    136          1           0       22.091271    2.166077    0.738036
    137          1           0       20.867406    3.102240    1.220640
 ---------------------------------------------------------------------

 SCF Done:  E(RCAM-B3LYP) =  -2932.59293801     A.U. after   16 cycles

 Excitation energies and oscillator strengths:

 Excited State   1:      Singlet-A      2.2600 eV  548.61 nm  f=0.1625  <S**2>=0.000
     240 -> 243        0.30481
     241 -> 242        0.62372
 This state for optimization and/or second-order correction.
 Total Energy, E(TD-HF/TD-KS) =  -2932.50988600
 Copying the excited state density for this state as the 1-particle RhoCI density.

 The electronic state is 1-A.
 Alpha  occ. eigenvalues --  -46.81897 -19.28258 -19.25596 -19.21251 -19.19647
 Alpha  occ. eigenvalues --  -19.18793 -14.41634 -14.38551 -14.38170 -14.38140
 Alpha  occ. eigenvalues --  -10.38418 -10.38060 -10.35653 -10.32697 -10.32078
 Alpha  occ. eigenvalues --  -10.32072 -10.30388 -10.30253 -10.28566 -10.28417
 Alpha  occ. eigenvalues --  -10.28011 -10.27993 -10.27953 -10.27924 -10.27895
 Alpha  occ. eigenvalues --  -10.27880 -10.27696 -10.27550 -10.27472 -10.27471
 Alpha  occ. eigenvalues --  -10.27270 -10.27234 -10.27184 -10.27174 -10.27152
 Alpha  occ. eigenvalues --  -10.27122 -10.27004 -10.26951 -10.26941 -10.26891
 Alpha  occ. eigenvalues --  -10.26286 -10.26222 -10.25854 -10.25853 -10.25781
 Alpha  occ. eigenvalues --  -10.25725 -10.25661 -10.25606 -10.25600 -10.25558
 Alpha  occ. eigenvalues --  -10.25528 -10.25367 -10.25360 -10.25321 -10.25277
 Alpha  occ. eigenvalues --  -10.25149 -10.24817 -10.24755 -10.24652 -10.24554
 Alpha  occ. eigenvalues --  -10.24535 -10.24517 -10.24342 -10.24326 -10.23272
 Alpha  occ. eigenvalues --   -3.11284  -1.85971  -1.85560  -1.85456  -1.23432
 Alpha  occ. eigenvalues --   -1.14975  -1.12200  -1.07506  -1.05938  -1.04818
 Alpha  occ. eigenvalues --   -1.03662  -1.01015  -0.99837  -0.92910  -0.92268
 Alpha  occ. eigenvalues --   -0.90578  -0.89920  -0.89624  -0.89422  -0.88845
 Alpha  occ. eigenvalues --   -0.88366  -0.88275  -0.87127  -0.85656  -0.85208
 Alpha  occ. eigenvalues --   -0.84832  -0.84302  -0.83373  -0.83199  -0.82365
 Alpha  occ. eigenvalues --   -0.81138  -0.80838  -0.80527  -0.79967  -0.79151
 Alpha  occ. eigenvalues --   -0.78095  -0.77305  -0.76187  -0.75978  -0.75923
 Alpha  occ. eigenvalues --   -0.75577  -0.75084  -0.74329  -0.74262  -0.72658
 Alpha  occ. eigenvalues --   -0.72157  -0.70077  -0.69807  -0.69169  -0.67870
 Alpha  occ. eigenvalues --   -0.67402  -0.66088  -0.65483  -0.65063  -0.64749
 Alpha  occ. eigenvalues --   -0.64116  -0.64088  -0.63878  -0.63115  -0.62429
 Alpha  occ. eigenvalues --   -0.61019  -0.60482  -0.60155  -0.59405  -0.58894
 Alpha  occ. eigenvalues --   -0.58586  -0.58359  -0.57420  -0.57355  -0.56921
 Alpha  occ. eigenvalues --   -0.56353  -0.55898  -0.55816  -0.55005  -0.54328
 Alpha  occ. eigenvalues --   -0.54216  -0.54026  -0.53812  -0.53550  -0.53079
 Alpha  occ. eigenvalues --   -0.52655  -0.52507  -0.52256  -0.51973  -0.51708
 Alpha  occ. eigenvalues --   -0.51665  -0.51623  -0.51234  -0.50802  -0.50611
 Alpha  occ. eigenvalues --   -0.50464  -0.49984  -0.49809  -0.49745  -0.49433
 Alpha  occ. eigenvalues --   -0.49047  -0.49022  -0.48828  -0.48739  -0.48421
 Alpha  occ. eigenvalues --   -0.48102  -0.47967  -0.47632  -0.47475  -0.47438
 Alpha  occ. eigenvalues --   -0.47006  -0.46892  -0.46679  -0.46483  -0.46099
 Alpha  occ. eigenvalues --   -0.45672  -0.45627  -0.45546  -0.44876  -0.44810
 Alpha  occ. eigenvalues --   -0.44738  -0.44625  -0.44353  -0.44230  -0.44103
 Alpha  occ. eigenvalues --   -0.44052  -0.43950  -0.43644  -0.43507  -0.43206
 Alpha  occ. eigenvalues --   -0.42981  -0.42816  -0.42614  -0.42459  -0.42241
 Alpha  occ. eigenvalues --   -0.42039  -0.41842  -0.41564  -0.41509  -0.41433
 Alpha  occ. eigenvalues --   -0.41082  -0.40881  -0.40486  -0.40419  -0.40285
 Alpha  occ. eigenvalues --   -0.40020  -0.39787  -0.39600  -0.39362  -0.39064
 Alpha  occ. eigenvalues --   -0.38963  -0.38448  -0.38380  -0.38218  -0.37696
 Alpha  occ. eigenvalues --   -0.37335  -0.37248  -0.37070  -0.36971  -0.36498
 Alpha  occ. eigenvalues --   -0.36278  -0.36000  -0.35951  -0.35443  -0.35301
 Alpha  occ. eigenvalues --   -0.34949  -0.34808  -0.34738  -0.33099  -0.32910
 Alpha  occ. eigenvalues --   -0.32640  -0.32262  -0.31749  -0.30178  -0.30058
 Alpha  occ. eigenvalues --   -0.29516  -0.29118  -0.27897  -0.26303  -0.23098
 Alpha  occ. eigenvalues --   -0.21148
 Alpha virt. eigenvalues --   -0.04959  -0.02997   0.02275   0.04248   0.06051
 Alpha virt. eigenvalues --    0.06376   0.06695   0.07146   0.07903   0.08530
 Alpha virt. eigenvalues --    0.09213   0.10552   0.11085   0.11764   0.11876

 Mulliken charges:
               1
     1  Mg   0.793383
     2  C    0.104073
     3  C   -0.214689
     4  C   -0.174781
     5  C   -0.107442
     6  N   -0.643653
     7  C    0.288726
     8  C   -0.122487
     9  C   -0.177133
    10  C    0.372528
    11  C   -0.312719
    12  C   -0.179585
    13  C   -0.260926
    14  C    0.584944
    15  O   -0.526609
    16  O   -0.389659
    17  N   -0.729484
    18  C    0.335954
    19  C    0.057139
    20  C    0.016211
    21  C    0.323751
    22  C   -0.379127
    23  C   -0.098142
    24  C   -0.236162
    25  N   -0.685118
    26  C    0.275514
    27  C    0.009179
    28  C   -0.015664
    29  C    0.275753
    30  C   -0.369382
    31  C   -0.208016
    32  C   -0.311780
    33  N   -0.706953
    34  C    0.216527
    35  C    0.019537
    36  C   -0.068850
    37  C    0.288013
    38  C   -0.348952
    39  C    0.393432
    40  O   -0.436104
    41  C   -0.349015
    42  C    0.636973
    43  O   -0.512924
    44  O   -0.488723
    45  C   -0.080486
    46  C   -0.009175
    47  C   -0.107099
    48  C    0.073152
    49  C   -0.355571
    50  C   -0.233085
    51  C   -0.185936
    52  C   -0.168971
    53  C   -0.074751
    54  C   -0.304946
    55  C   -0.137881
    56  C   -0.195685
    57  C   -0.175402
    58  C   -0.071023
    59  C   -0.308987
    60  C   -0.175869
    61  C   -0.177764
    62  C   -0.150028
    63  C   -0.067265
    64  C   -0.270890
    65  C   -0.293180
    66  H    0.070474
    67  H    0.087328
    68  H    0.088106
    69  H    0.134441
    70  H    0.114535
    71  H    0.112625
    72  H    0.110761
    73  H    0.128486
    74  H    0.109072
    75  H    0.132802
    76  H    0.118525
    77  H    0.123122
    78  H    0.127507
    79  H    0.116353
    80  H    0.089955
    81  H    0.108234
    82  H    0.102885
    83  H    0.107602
    84  H    0.108114
    85  H    0.101421
    86  H    0.100105
    87  H    0.122995
    88  H    0.085132
    89  H    0.101021
    90  H    0.127780
    91  H    0.089841
    92  H    0.131765
    93  H    0.151930
    94  H    0.135509
    95  H    0.168713
    96  H    0.139781
    97  H    0.134717
    98  H    0.134182
    99  H    0.147758
   100  H    0.116028
   101  H    0.065241
   102  H    0.131382
   103  H    0.114105
   104  H    0.145741
   105  H    0.107963
   106  H    0.106356
   107  H    0.093774
   108  H    0.106025
   109  H    0.102545
   110  H    0.090861
   111  H    0.078920
   112  H    0.109106
   113  H    0.090341
   114  H    0.101363
   115  H    0.024827
   116  H    0.101139
   117  H    0.099114
   118  H    0.092212
   119  H    0.098053
   120  H    0.071309
   121  H    0.078338
   122  H    0.094370
   123  H    0.105713
   124  H    0.114002
   125  H    0.067405
   126  H    0.090555
   127  H    0.083206
   128  H    0.093024
   129  H    0.096731
   130  H    0.076266
   131  H    0.072042
   132  H    0.031586
   133  H    0.111283
   134  H    0.115874
   135  H    0.099775
   136  H    0.113583
   137  H    0.079549
 Sum of Mulliken charges =   0.00000

 Dipole moment (field-independent basis, Debye):
    X=              5.1192    Y=              4.4748    Z=              0.2474  Tot=              6.8037
 Quadrupole moment (field-independent basis, Debye-Ang):
   XX=           -365.8830   YY=           -384.5032   ZZ=           -395.3542
   XY=            -21.8426   XZ=              3.1104   YZ=             -0.1794

 Normal termination of Gaussian 09 at Fri Jul  5 21:52:35 2019.
