 Gaussian 09, Revision D.01,
 Gaussian 09:  ES64L-G09RevD.01 24-Apr-2013

 -------------------------------------
 # td=(NStates=1) CAM-B3LYP/6-31G(d,p)
 -------------------------------------

 --
 TD
 --
 Symbolic Z-matrix:
 Charge =  0 Multiplicity = 1

                         Standard orientation:
 ---------------------------------------------------------------------
 Center     Atomic      Atomic             Coordinates (Angstroms)
 Number     Number       Type             X           Y           Z
 ---------------------------------------------------------------------
      1         12           0       -7.150433    0.594205    0.221380
      2          6           0       -4.763668   -1.926626    0.432424
      3          6           0       -4.891401    2.886274    1.197683
      4          6           0       -9.425753    3.004696   -0.348811
      5          6           0       -9.473745   -1.829296   -0.837718
      6          7           0       -5.021305    0.441017    0.733120
      7          6           0       -4.335816   -0.613045    0.804216
      8          6           0       -2.981904   -0.302678    1.156839
      9          6           0       -3.010038    1.188140    1.604700
     10          6           0       -4.377933    1.545771    1.076050
     11          6           0       -2.773598    1.384740    3.116137
     12          6           0       -1.905129   -0.592853    0.103138
     13          6           0       -0.491291   -0.487506    0.415968
     14          6           0        0.464991   -0.592184   -0.804096
     15          8           0        0.235397   -1.020056   -1.814542
     16          8           0        1.743691   -0.224403   -0.242206
     17          7           0       -7.072212    2.659878    0.270622
     18          6           0       -6.081269    3.408849    0.787993
     19          6           0       -6.511044    4.829606    0.709987
     20          6           0       -7.824269    4.777270    0.304311
     21          6           0       -8.225582    3.369661    0.009937
     22          6           0       -5.703551    5.990127    0.952147
     23          6           0       -8.723663    5.946675    0.113465
     24          6           0       -8.591590    7.095677    0.742220
     25          7           0       -9.030686    0.682453   -0.491476
     26          6           0       -9.941016    1.733578   -0.619320
     27          6           0      -11.218491    1.376210   -1.174200
     28          6           0      -11.217058   -0.030022   -1.229067
     29          6           0       -9.876894   -0.483218   -0.872025
     30          6           0      -12.297317    2.313159   -1.394275
     31          6           0      -12.365386   -0.861502   -1.739000
     32          6           0      -12.259154   -1.300979   -3.105680
     33          7           0       -7.193035   -1.346384   -0.220054
     34          6           0       -8.192754   -2.242883   -0.621126
     35          6           0       -7.733029   -3.633747   -0.580575
     36          6           0       -6.431200   -3.547289   -0.094187
     37          6           0       -6.130605   -2.113979    0.046813
     38          6           0       -8.501668   -4.810054   -1.045423
     39          6           0       -5.234502   -4.397177    0.266984
     40          8           0       -5.046290   -5.544283    0.366218
     41          6           0       -4.147934   -3.275151    0.612311
     42          6           0       -3.520041   -3.619133    1.971551
     43          8           0       -3.844837   -3.073487    2.981809
     44          8           0       -2.632341   -4.624353    1.895234
     45          6           0       -2.293468   -5.090933    3.143282
     46          6           0        2.795294   -0.588105   -1.267701
     47          6           0        4.110388   -0.434113   -0.635995
     48          6           0        5.232178    0.322090   -0.920521
     49          6           0        5.265540    1.187777   -2.067585
     50          6           0        6.437520    0.406781   -0.019388
     51          6           0        7.632604   -0.239343   -0.873105
     52          6           0        8.870291   -0.155841   -0.051875
     53          6           0       10.144346   -0.558690   -0.876154
     54          6           0       10.072167   -2.160411   -1.120810
     55          6           0       11.396537   -0.261429   -0.093639
     56          6           0       12.797557   -0.430350   -0.872156
     57          6           0       13.979107   -0.155097    0.079563
     58          6           0       15.259582   -0.278901   -0.563193
     59          6           0       15.653802   -1.621714   -0.853206
     60          6           0       16.367938    0.357971    0.363387
     61          6           0       17.873232    0.513383   -0.168015
     62          6           0       18.884498    1.261356    0.799046
     63          6           0       20.237143    1.373821    0.272032
     64          6           0       20.329820    2.151178   -1.039104
     65          6           0       21.118928    2.029682    1.299350
     66          1           0       -4.173613    3.542166    1.453017
     67          1           0      -10.215836    3.735296   -0.567160
     68          1           0      -10.113295   -2.713466   -1.123865
     69          1           0       -2.891982   -0.702432    2.123122
     70          1           0       -2.321089    1.734146    1.040428
     71          1           0       -1.710806    1.214499    3.263967
     72          1           0       -3.056261    2.419206    3.255924
     73          1           0       -3.432225    0.682036    3.871246
     74          1           0       -2.116221   -1.591076   -0.392079
     75          1           0       -2.240416    0.124129   -0.656204
     76          1           0       -0.288209    0.516255    0.895191
     77          1           0       -0.280748   -1.161839    1.157291
     78          1           0       -5.871901    6.846119    0.205167
     79          1           0       -5.718877    6.439210    1.974923
     80          1           0       -4.555080    5.710403    0.814298
     81          1           0       -9.479923    5.879638   -0.572850
     82          1           0       -9.259339    7.933644    0.554794
     83          1           0       -7.875745    7.307374    1.558359
     84          1           0      -12.381398    3.142592   -2.064230
     85          1           0      -13.221095    1.608833   -1.478513
     86          1           0      -12.337536    2.907282   -0.341100
     87          1           0      -12.398083   -1.667359   -1.034528
     88          1           0      -13.397017   -0.355492   -1.547974
     89          1           0      -13.136605   -1.936979   -3.363166
     90          1           0      -12.281074   -0.373786   -3.970923
     91          1           0      -11.304819   -1.727239   -3.175486
     92          1           0       -8.663458   -4.986786   -1.996981
     93          1           0       -7.759138   -5.693726   -0.915931
     94          1           0       -9.485335   -4.849001   -0.462342
     95          1           0       -3.370663   -3.571757   -0.129002
     96          1           0       -1.913923   -4.217409    3.862303
     97          1           0       -3.141282   -5.720802    3.703080
     98          1           0       -1.339478   -5.733859    3.037949
     99          1           0        2.531878   -1.584618   -1.583027
    100          1           0        2.597611   -0.038727   -2.245032
    101          1           0        4.129066   -1.039286    0.201467
    102          1           0        4.366479    1.336650   -2.615430
    103          1           0        5.834604    2.349678   -1.804648
    104          1           0        5.796844    0.793959   -2.850517
    105          1           0        6.392207    1.512956    0.308074
    106          1           0        6.231571   -0.190214    0.991970
    107          1           0        7.339361   -1.135425   -1.173919
    108          1           0        7.807427    0.100710   -1.837089
    109          1           0        9.087628    0.866213    0.249598
    110          1           0        8.716588   -0.684199    0.864953
    111          1           0       10.119819    0.007595   -1.894254
    112          1           0        9.085915   -2.277672   -1.795477
    113          1           0       10.803995   -2.635412   -1.691993
    114          1           0       10.053662   -2.609473   -0.060529
    115          1           0       11.280253    0.638883    0.583488
    116          1           0       11.379353   -1.021979    0.553322
    117          1           0       12.947773   -1.539149   -1.291300
    118          1           0       12.946538    0.313478   -1.679254
    119          1           0       13.881194    0.944636    0.389185
    120          1           0       13.818824   -0.674569    1.169491
    121          1           0       15.428670    0.471860   -1.499870
    122          1           0       15.571381   -2.414947   -0.014783
    123          1           0       15.146898   -2.036670   -1.820449
    124          1           0       16.664192   -1.849059   -1.224921
    125          1           0       16.028367    1.370574    0.599566
    126          1           0       16.397878   -0.399212    1.282135
    127          1           0       18.184957   -0.460210   -0.432556
    128          1           0       17.856890    1.110430   -1.199116
    129          1           0       18.485664    2.428587    1.088688
    130          1           0       18.892502    0.772672    1.792389
    131          1           0       20.445514    0.334241    0.155478
    132          1           0       19.779778    3.170939   -1.112310
    133          1           0       21.303890    2.317823   -1.304660
    134          1           0       19.909580    1.528163   -1.966633
    135          1           0       21.133487    1.413393    2.236411
    136          1           0       22.092967    1.919981    0.945592
    137          1           0       20.811973    2.929693    1.551571
 ---------------------------------------------------------------------

 SCF Done:  E(RCAM-B3LYP) =  -2932.68970791     A.U. after   17 cycles

 Excitation energies and oscillator strengths:

 Excited State   1:      Singlet-A      2.1663 eV  572.34 nm  f=0.1560  <S**2>=0.000
     240 -> 242        0.14799
     240 -> 243        0.29146
     241 -> 242        0.60408
     241 -> 243       -0.14731
 This state for optimization and/or second-order correction.
 Total Energy, E(TD-HF/TD-KS) =  -2932.61009906
 Copying the excited state density for this state as the 1-particle RhoCI density.

 The electronic state is 1-A.
 Alpha  occ. eigenvalues --  -46.84077 -19.27097 -19.24624 -19.23625 -19.21611
 Alpha  occ. eigenvalues --  -19.20860 -14.41445 -14.39455 -14.39151 -14.38808
 Alpha  occ. eigenvalues --  -10.39306 -10.39045 -10.35829 -10.32637 -10.31270
 Alpha  occ. eigenvalues --  -10.31215 -10.30014 -10.29917 -10.29337 -10.28924
 Alpha  occ. eigenvalues --  -10.28568 -10.28460 -10.28208 -10.28157 -10.27955
 Alpha  occ. eigenvalues --  -10.27916 -10.27433 -10.27402 -10.27087 -10.27082
 Alpha  occ. eigenvalues --  -10.26844 -10.26822 -10.26804 -10.26755 -10.26678
 Alpha  occ. eigenvalues --  -10.26529 -10.26497 -10.26497 -10.26425 -10.26283
 Alpha  occ. eigenvalues --  -10.26201 -10.26133 -10.26110 -10.26105 -10.26075
 Alpha  occ. eigenvalues --  -10.25998 -10.25881 -10.25880 -10.25880 -10.25869
 Alpha  occ. eigenvalues --  -10.25762 -10.25719 -10.25712 -10.25677 -10.25623
 Alpha  occ. eigenvalues --  -10.25402 -10.25097 -10.24998 -10.24991 -10.24980
 Alpha  occ. eigenvalues --  -10.24850 -10.24605 -10.24406 -10.24348 -10.22687
 Alpha  occ. eigenvalues --   -3.13160  -1.87852  -1.87404  -1.87336  -1.20611
 Alpha  occ. eigenvalues --   -1.20249  -1.14699  -1.10721  -1.09165  -1.08149
 Alpha  occ. eigenvalues --   -1.03258  -1.03148  -0.99531  -0.91924  -0.91495
 Alpha  occ. eigenvalues --   -0.91113  -0.90914  -0.90213  -0.89672  -0.89097
 Alpha  occ. eigenvalues --   -0.88992  -0.88364  -0.87739  -0.87546  -0.86208
 Alpha  occ. eigenvalues --   -0.84995  -0.84519  -0.83916  -0.83297  -0.82235
 Alpha  occ. eigenvalues --   -0.81454  -0.81049  -0.80778  -0.79434  -0.78529
 Alpha  occ. eigenvalues --   -0.77698  -0.76469  -0.76126  -0.76083  -0.75959
 Alpha  occ. eigenvalues --   -0.75007  -0.74441  -0.74400  -0.72659  -0.72079
 Alpha  occ. eigenvalues --   -0.71933  -0.70928  -0.69236  -0.68997  -0.68131
 Alpha  occ. eigenvalues --   -0.67639  -0.67137  -0.66367  -0.64950  -0.64518
 Alpha  occ. eigenvalues --   -0.63898  -0.63225  -0.62517  -0.62213  -0.62210
 Alpha  occ. eigenvalues --   -0.61097  -0.60844  -0.60331  -0.60115  -0.59543
 Alpha  occ. eigenvalues --   -0.59031  -0.58539  -0.57487  -0.57257  -0.57232
 Alpha  occ. eigenvalues --   -0.56524  -0.56041  -0.55660  -0.55393  -0.54924
 Alpha  occ. eigenvalues --   -0.54813  -0.54496  -0.54255  -0.53995  -0.53797
 Alpha  occ. eigenvalues --   -0.53440  -0.53347  -0.52826  -0.52042  -0.51848
 Alpha  occ. eigenvalues --   -0.51730  -0.51388  -0.51110  -0.50788  -0.50514
 Alpha  occ. eigenvalues --   -0.50318  -0.50134  -0.49828  -0.49798  -0.49555
 Alpha  occ. eigenvalues --   -0.49438  -0.49289  -0.49141  -0.49008  -0.48642
 Alpha  occ. eigenvalues --   -0.48262  -0.47894  -0.47793  -0.47335  -0.47179
 Alpha  occ. eigenvalues --   -0.46940  -0.46637  -0.46459  -0.46346  -0.46067
 Alpha  occ. eigenvalues --   -0.45921  -0.45718  -0.45541  -0.45389  -0.45336
 Alpha  occ. eigenvalues --   -0.45292  -0.45233  -0.45015  -0.44830  -0.44442
 Alpha  occ. eigenvalues --   -0.44157  -0.44007  -0.43823  -0.43483  -0.43240
 Alpha  occ. eigenvalues --   -0.43100  -0.43090  -0.42566  -0.42518  -0.42129
 Alpha  occ. eigenvalues --   -0.41909  -0.41717  -0.41474  -0.41437  -0.40986
 Alpha  occ. eigenvalues --   -0.40899  -0.40743  -0.40576  -0.40445  -0.40394
 Alpha  occ. eigenvalues --   -0.40148  -0.39689  -0.39633  -0.39143  -0.39109
 Alpha  occ. eigenvalues --   -0.39092  -0.38844  -0.38688  -0.37806  -0.37555
 Alpha  occ. eigenvalues --   -0.37235  -0.37151  -0.36863  -0.36705  -0.36560
 Alpha  occ. eigenvalues --   -0.36144  -0.36089  -0.36065  -0.35913  -0.35794
 Alpha  occ. eigenvalues --   -0.35640  -0.35204  -0.35033  -0.34458  -0.33915
 Alpha  occ. eigenvalues --   -0.32879  -0.32794  -0.32382  -0.30697  -0.30039
 Alpha  occ. eigenvalues --   -0.29900  -0.28530  -0.27526  -0.27048  -0.23092
 Alpha  occ. eigenvalues --   -0.20745
 Alpha virt. eigenvalues --   -0.05170  -0.03448   0.01801   0.04752   0.05103
 Alpha virt. eigenvalues --    0.05119   0.06689   0.07478   0.07529   0.08051
 Alpha virt. eigenvalues --    0.08991   0.10868   0.11670   0.11940   0.12013

 Mulliken charges:
               1
     1  Mg   0.826156
     2  C    0.078325
     3  C   -0.193814
     4  C   -0.190433
     5  C   -0.180016
     6  N   -0.603863
     7  C    0.333385
     8  C   -0.188954
     9  C   -0.164569
    10  C    0.305867
    11  C   -0.303121
    12  C   -0.167594
    13  C   -0.266099
    14  C    0.606147
    15  O   -0.378208
    16  O   -0.526793
    17  N   -0.750870
    18  C    0.343167
    19  C    0.059382
    20  C   -0.024153
    21  C    0.380817
    22  C   -0.402144
    23  C   -0.055479
    24  C   -0.248318
    25  N   -0.684899
    26  C    0.286389
    27  C    0.072369
    28  C    0.004551
    29  C    0.246143
    30  C   -0.382423
    31  C   -0.235016
    32  C   -0.271763
    33  N   -0.737521
    34  C    0.255308
    35  C    0.032485
    36  C   -0.049513
    37  C    0.310170
    38  C   -0.379867
    39  C    0.387223
    40  O   -0.412533
    41  C   -0.345952
    42  C    0.623087
    43  O   -0.463227
    44  O   -0.415799
    45  C   -0.087487
    46  C   -0.001338
    47  C   -0.133111
    48  C    0.123332
    49  C   -0.347229
    50  C   -0.224490
    51  C   -0.179573
    52  C   -0.166306
    53  C   -0.083461
    54  C   -0.304150
    55  C   -0.162809
    56  C   -0.180644
    57  C   -0.152761
    58  C   -0.043045
    59  C   -0.309035
    60  C   -0.168299
    61  C   -0.188528
    62  C   -0.141586
    63  C   -0.049575
    64  C   -0.303322
    65  C   -0.301501
    66  H    0.063190
    67  H    0.080520
    68  H    0.094306
    69  H    0.131310
    70  H    0.113654
    71  H    0.119118
    72  H    0.115852
    73  H    0.110506
    74  H    0.109857
    75  H    0.103379
    76  H    0.119915
    77  H    0.147396
    78  H    0.128035
    79  H    0.123480
    80  H    0.091189
    81  H    0.092302
    82  H    0.097637
    83  H    0.103315
    84  H    0.133153
    85  H    0.101730
    86  H    0.097374
    87  H    0.113503
    88  H    0.088615
    89  H    0.103663
    90  H    0.072700
    91  H    0.118732
    92  H    0.148147
    93  H    0.130691
    94  H    0.119197
    95  H    0.150682
    96  H    0.111504
    97  H    0.117748
    98  H    0.109064
    99  H    0.127646
   100  H    0.105071
   101  H    0.084696
   102  H    0.116165
   103  H    0.066163
   104  H    0.132238
   105  H    0.106919
   106  H    0.090410
   107  H    0.118542
   108  H    0.103932
   109  H    0.095584
   110  H    0.095593
   111  H    0.070087
   112  H    0.075301
   113  H    0.114755
   114  H    0.096630
   115  H    0.078819
   116  H    0.104340
   117  H    0.086130
   118  H    0.095311
   119  H    0.082253
   120  H    0.072752
   121  H    0.074269
   122  H    0.096730
   123  H    0.084521
   124  H    0.103382
   125  H    0.089424
   126  H    0.063757
   127  H    0.098851
   128  H    0.074045
   129  H    0.039197
   130  H    0.089305
   131  H    0.093726
   132  H    0.093845
   133  H    0.109141
   134  H    0.080519
   135  H    0.085706
   136  H    0.103919
   137  H    0.115750
 Sum of Mulliken charges =   0.00000

 Dipole moment (field-independent basis, Debye):
    X=              2.2591    Y=              2.9684    Z=             -0.0342  Tot=              3.7304
 Quadrupole moment (field-independent basis, Debye-Ang):
   XX=           -338.3012   YY=           -390.5149   ZZ=           -396.0555
   XY=            -19.3560   XZ=              4.6499   YZ=              2.7092

 Normal termination of Gaussian 09 at Sun Jul  7 00:58:19 2019.
