 Gaussian 16, Revision A.03,
 Gaussian 16:  ES64L-G16RevA.03 25-Dec-2016

 ----------------------------------------------------------------------
 # td=(NStates=1) iop(3/107=0140000000,3/108=0140000000) CAM-B3LYP/6-31
 G(d,p)
 ----------------------------------------------------------------------

 --
 TD
 --
 Symbolic Z-matrix:
 Charge =  0 Multiplicity = 1

                         Standard orientation:
 ---------------------------------------------------------------------
 Center     Atomic      Atomic             Coordinates (Angstroms)
 Number     Number       Type             X           Y           Z
 ---------------------------------------------------------------------
      1         12           0       -7.138682    0.613421    0.128034
      2          6           0       -4.932773   -1.966282    0.474859
      3          6           0       -4.793650    2.813277    1.414469
      4          6           0       -9.327233    3.116991   -0.267830
      5          6           0       -9.573929   -1.562045   -1.061822
      6          7           0       -5.204064    0.380023    0.868135
      7          6           0       -4.406795   -0.697635    0.800359
      8          6           0       -2.977178   -0.407687    1.262003
      9          6           0       -3.019892    1.103535    1.854934
     10          6           0       -4.428330    1.429073    1.349517
     11          6           0       -2.699148    1.100797    3.337572
     12          6           0       -1.936723   -0.583875    0.149183
     13          6           0       -0.463156   -0.358471    0.478190
     14          6           0        0.457715   -0.712559   -0.634400
     15          8           0        0.136358   -1.091589   -1.759031
     16          8           0        1.720065   -0.479020   -0.260096
     17          7           0       -7.068481    2.675693    0.418553
     18          6           0       -6.029604    3.418637    0.986577
     19          6           0       -6.346236    4.720683    0.840486
     20          6           0       -7.629292    4.889077    0.309146
     21          6           0       -8.089480    3.529615    0.072005
     22          6           0       -5.401338    5.814511    1.266472
     23          6           0       -8.447375    6.075561    0.058360
     24          6           0       -8.335203    7.245673    0.727965
     25          7           0       -9.077005    0.667251   -0.538037
     26          6           0       -9.789265    1.900868   -0.713549
     27          6           0      -11.098389    1.559403   -1.133596
     28          6           0      -11.135812    0.256202   -1.313615
     29          6           0       -9.956189   -0.224922   -0.974009
     30          6           0      -12.192590    2.566916   -1.539371
     31          6           0      -12.380776   -0.512559   -1.886142
     32          6           0      -12.134082   -0.976585   -3.339511
     33          7           0       -7.272763   -1.355867   -0.096960
     34          6           0       -8.311745   -2.139965   -0.609994
     35          6           0       -8.031284   -3.547670   -0.555361
     36          6           0       -6.615992   -3.594911   -0.115035
     37          6           0       -6.288376   -2.171975    0.103426
     38          6           0       -8.780207   -4.672356   -1.010314
     39          6           0       -5.481072   -4.461603    0.181768
     40          8           0       -5.373485   -5.647420    0.239633
     41          6           0       -4.280014   -3.395059    0.600096
     42          6           0       -3.665708   -3.774777    1.851528
     43          8           0       -3.867091   -3.305418    2.963605
     44          8           0       -2.780434   -4.837997    1.735925
     45          6           0       -2.167278   -5.353929    2.848514
     46          6           0        2.725840   -0.806540   -1.224288
     47          6           0        4.134638   -0.643421   -0.642826
     48          6           0        4.998033    0.215762   -1.025863
     49          6           0        5.077866    1.205553   -2.128361
     50          6           0        6.309977    0.184694   -0.067150
     51          6           0        7.649488   -0.172716   -0.930669
     52          6           0        8.933442   -0.199975    0.022949
     53          6           0       10.193084   -0.594385   -0.659189
     54          6           0       10.320091   -1.983775   -1.282454
     55          6           0       11.398016   -0.337635    0.157231
     56          6           0       12.714812   -0.454542   -0.639799
     57          6           0       14.009864   -0.047852    0.355517
     58          6           0       15.281493   -0.196338   -0.403839
     59          6           0       15.602532   -1.627957   -0.820593
     60          6           0       16.456658    0.423720    0.356483
     61          6           0       17.848404    0.639063   -0.310485
     62          6           0       18.805311    1.426113    0.657885
     63          6           0       20.259535    1.438289    0.070803
     64          6           0       20.492653    2.187757   -1.248132
     65          6           0       21.354132    1.858725    1.087585
     66          1           0       -4.110355    3.341353    1.860344
     67          1           0       -9.952267    4.076118   -0.418999
     68          1           0      -10.397572   -2.270952   -1.136930
     69          1           0       -2.675112   -1.146659    1.910972
     70          1           0       -2.158629    1.608430    1.255681
     71          1           0       -1.519609    0.900174    3.325540
     72          1           0       -2.930300    2.052856    3.814460
     73          1           0       -3.378097    0.517520    3.907636
     74          1           0       -1.785724   -1.675994   -0.251848
     75          1           0       -2.311984    0.040531   -0.810402
     76          1           0       -0.316720    0.684616    0.860951
     77          1           0       -0.084260   -0.827364    1.350287
     78          1           0       -5.205697    6.484523    0.395073
     79          1           0       -5.648221    6.181661    2.293320
     80          1           0       -4.413088    5.327989    1.014797
     81          1           0       -9.318488    6.045488   -0.479336
     82          1           0       -9.009266    8.014420    0.576685
     83          1           0       -7.593297    7.459480    1.625147
     84          1           0      -11.687761    2.862563   -2.558496
     85          1           0      -13.071017    1.995708   -1.860842
     86          1           0      -12.442758    3.312388   -0.840652
     87          1           0      -12.377416   -1.215056   -1.160168
     88          1           0      -13.384509    0.059449   -1.839759
     89          1           0      -12.746547   -1.896276   -3.604554
     90          1           0      -12.147979   -0.133080   -4.123553
     91          1           0      -11.315237   -1.587797   -3.638303
     92          1           0       -9.498332   -4.339569   -1.819106
     93          1           0       -8.247373   -5.728948   -1.597638
     94          1           0       -9.478542   -4.907191   -0.188081
     95          1           0       -3.619330   -3.464759   -0.141441
     96          1           0       -1.483200   -4.546626    3.163712
     97          1           0       -2.808282   -5.960163    3.529593
     98          1           0       -1.435804   -6.023061    2.378914
     99          1           0        2.322728   -1.666652   -1.705435
    100          1           0        2.515346    0.071160   -1.983731
    101          1           0        4.291989   -1.350869    0.071943
    102          1           0        4.249211    1.124172   -2.930388
    103          1           0        5.175802    2.186035   -1.634708
    104          1           0        6.047487    0.996925   -2.710444
    105          1           0        6.552196    1.421199    0.035658
    106          1           0        6.186176   -0.369851    0.837559
    107          1           0        7.606667   -1.145071   -1.440382
    108          1           0        7.692156    0.734486   -1.658284
    109          1           0        8.985102    0.779222    0.589092
    110          1           0        8.633542   -0.964924    0.793600
    111          1           0       10.225431   -0.041753   -1.656765
    112          1           0        9.346409   -2.521356   -1.675091
    113          1           0       11.064186   -2.066152   -2.011526
    114          1           0       10.455267   -2.758420   -0.378763
    115          1           0       11.424233    0.510905    0.558134
    116          1           0       11.275948   -1.012534    1.056194
    117          1           0       12.761883   -1.520613   -1.112919
    118          1           0       12.646285    0.311023   -1.389378
    119          1           0       13.833423    1.004339    0.630178
    120          1           0       14.027512   -0.844442    1.244135
    121          1           0       15.153190    0.231765   -1.320481
    122          1           0       15.694316   -2.434702   -0.014998
    123          1           0       14.683139   -2.073994   -1.331325
    124          1           0       16.396870   -1.704853   -1.470445
    125          1           0       16.382204    1.558877    0.759412
    126          1           0       16.840299   -0.246760    1.354691
    127          1           0       18.224093   -0.383014   -0.503577
    128          1           0       17.687401    1.172471   -1.375066
    129          1           0       18.464038    2.360531    0.706960
    130          1           0       18.919983    0.892065    1.378068
    131          1           0       20.511578    0.531666   -0.069619
    132          1           0       20.113303    3.209097   -1.153303
    133          1           0       21.668039    2.213634   -1.531840
    134          1           0       19.905928    1.831643   -2.205068
    135          1           0       21.423727    1.259619    2.040876
    136          1           0       22.206846    1.944367    0.634417
    137          1           0       21.031091    2.836818    1.494964
 ---------------------------------------------------------------------

 SCF Done:  E(RCAM-B3LYP) =  -2933.41936438     A.U. after   16 cycles

 Excitation energies and oscillator strengths:

 Excited State   1:      Singlet-A      2.0227 eV  612.96 nm  f=0.2392  <S**2>=0.000
     240 -> 242        0.10786
     240 -> 243        0.25056
     241 -> 242        0.64721
 This state for optimization and/or second-order correction.
 Total Energy, E(TD-HF/TD-DFT) =  -2933.34503163
 Copying the excited state density for this state as the 1-particle RhoCI density.

 The electronic state is 1-A.
 Alpha  occ. eigenvalues --  -46.79490 -19.21534 -19.19794 -19.16494 -19.16405
 Alpha  occ. eigenvalues --  -19.15261 -14.38058 -14.35279 -14.34420 -14.34144
 Alpha  occ. eigenvalues --  -10.34238 -10.33302 -10.30821 -10.26940 -10.26752
 Alpha  occ. eigenvalues --  -10.26559 -10.25877 -10.25602 -10.24913 -10.24578
 Alpha  occ. eigenvalues --  -10.24494 -10.24246 -10.24044 -10.24043 -10.23912
 Alpha  occ. eigenvalues --  -10.23736 -10.23580 -10.23402 -10.23361 -10.23164
 Alpha  occ. eigenvalues --  -10.23048 -10.23023 -10.22920 -10.22834 -10.22803
 Alpha  occ. eigenvalues --  -10.22785 -10.22739 -10.22702 -10.22465 -10.22323
 Alpha  occ. eigenvalues --  -10.22319 -10.22285 -10.22174 -10.22140 -10.21939
 Alpha  occ. eigenvalues --  -10.21900 -10.21831 -10.21825 -10.21812 -10.21713
 Alpha  occ. eigenvalues --  -10.21589 -10.21546 -10.21522 -10.21456 -10.21181
 Alpha  occ. eigenvalues --  -10.21066 -10.21021 -10.21008 -10.20749 -10.20092
 Alpha  occ. eigenvalues --  -10.19883 -10.19827 -10.18947 -10.18941 -10.18410
 Alpha  occ. eigenvalues --   -3.08156  -1.83096  -1.82649  -1.82549  -1.13296
 Alpha  occ. eigenvalues --   -1.11540  -1.07396  -1.03678  -1.02726  -0.99935
 Alpha  occ. eigenvalues --   -0.99131  -0.98456  -0.97265  -0.86274  -0.86117
 Alpha  occ. eigenvalues --   -0.85749  -0.84993  -0.84806  -0.84432  -0.83702
 Alpha  occ. eigenvalues --   -0.83669  -0.83190  -0.83112  -0.82355  -0.81156
 Alpha  occ. eigenvalues --   -0.79715  -0.78939  -0.78401  -0.77925  -0.77761
 Alpha  occ. eigenvalues --   -0.76810  -0.76253  -0.75585  -0.74657  -0.73975
 Alpha  occ. eigenvalues --   -0.73754  -0.72400  -0.71589  -0.71358  -0.70758
 Alpha  occ. eigenvalues --   -0.70674  -0.70543  -0.70095  -0.69335  -0.68084
 Alpha  occ. eigenvalues --   -0.67644  -0.66589  -0.65504  -0.64620  -0.63842
 Alpha  occ. eigenvalues --   -0.62676  -0.61643  -0.61124  -0.60620  -0.60363
 Alpha  occ. eigenvalues --   -0.59843  -0.59249  -0.58599  -0.58349  -0.57687
 Alpha  occ. eigenvalues --   -0.57392  -0.56999  -0.56386  -0.56237  -0.55143
 Alpha  occ. eigenvalues --   -0.54865  -0.54449  -0.53636  -0.53418  -0.53034
 Alpha  occ. eigenvalues --   -0.52417  -0.51928  -0.51501  -0.51340  -0.51291
 Alpha  occ. eigenvalues --   -0.51044  -0.50661  -0.50047  -0.49599  -0.49491
 Alpha  occ. eigenvalues --   -0.49271  -0.48949  -0.48665  -0.48494  -0.48314
 Alpha  occ. eigenvalues --   -0.47965  -0.47669  -0.47520  -0.47190  -0.46896
 Alpha  occ. eigenvalues --   -0.46686  -0.46538  -0.46246  -0.46179  -0.46144
 Alpha  occ. eigenvalues --   -0.45855  -0.45711  -0.45483  -0.45402  -0.45192
 Alpha  occ. eigenvalues --   -0.44885  -0.44731  -0.44267  -0.43906  -0.43533
 Alpha  occ. eigenvalues --   -0.43432  -0.42974  -0.42859  -0.42590  -0.42445
 Alpha  occ. eigenvalues --   -0.42314  -0.42172  -0.41921  -0.41630  -0.41455
 Alpha  occ. eigenvalues --   -0.41242  -0.41053  -0.40892  -0.40779  -0.40600
 Alpha  occ. eigenvalues --   -0.40466  -0.40233  -0.39968  -0.39790  -0.39737
 Alpha  occ. eigenvalues --   -0.39519  -0.39438  -0.39067  -0.38933  -0.38745
 Alpha  occ. eigenvalues --   -0.38449  -0.38249  -0.38046  -0.37902  -0.37549
 Alpha  occ. eigenvalues --   -0.37493  -0.37303  -0.37111  -0.36915  -0.36701
 Alpha  occ. eigenvalues --   -0.36464  -0.36253  -0.36000  -0.35914  -0.35710
 Alpha  occ. eigenvalues --   -0.35532  -0.35390  -0.34998  -0.34958  -0.34572
 Alpha  occ. eigenvalues --   -0.34457  -0.34313  -0.33608  -0.33493  -0.33133
 Alpha  occ. eigenvalues --   -0.32993  -0.32847  -0.32670  -0.32537  -0.32236
 Alpha  occ. eigenvalues --   -0.31917  -0.31322  -0.31098  -0.30953  -0.30662
 Alpha  occ. eigenvalues --   -0.30319  -0.29821  -0.28737  -0.28281  -0.28125
 Alpha  occ. eigenvalues --   -0.26922  -0.26766  -0.25984  -0.24171  -0.21300
 Alpha  occ. eigenvalues --   -0.20572
 Alpha virt. eigenvalues --   -0.07634  -0.03970  -0.00162   0.02330   0.03840
 Alpha virt. eigenvalues --    0.04027   0.04770   0.04954   0.05450   0.05689
 Alpha virt. eigenvalues --    0.06782   0.08697   0.08986   0.09166   0.09671

 Mulliken charges:
               1
     1  Mg   0.807168
     2  C    0.028978
     3  C   -0.157521
     4  C   -0.150041
     5  C   -0.190049
     6  N   -0.635466
     7  C    0.336585
     8  C   -0.148637
     9  C   -0.141800
    10  C    0.294143
    11  C   -0.290272
    12  C   -0.180680
    13  C   -0.276513
    14  C    0.617361
    15  O   -0.490360
    16  O   -0.464131
    17  N   -0.714768
    18  C    0.340825
    19  C   -0.032417
    20  C    0.048171
    21  C    0.284764
    22  C   -0.372329
    23  C   -0.087932
    24  C   -0.229681
    25  N   -0.687239
    26  C    0.252513
    27  C   -0.004183
    28  C    0.045370
    29  C    0.345558
    30  C   -0.362012
    31  C   -0.216035
    32  C   -0.315191
    33  N   -0.715110
    34  C    0.253088
    35  C    0.057587
    36  C    0.002941
    37  C    0.327421
    38  C   -0.385260
    39  C    0.344449
    40  O   -0.430638
    41  C   -0.297648
    42  C    0.609796
    43  O   -0.485958
    44  O   -0.452126
    45  C   -0.067845
    46  C   -0.003296
    47  C   -0.128020
    48  C    0.171104
    49  C   -0.373341
    50  C   -0.224359
    51  C   -0.178110
    52  C   -0.175127
    53  C   -0.040622
    54  C   -0.313719
    55  C   -0.131736
    56  C   -0.215512
    57  C   -0.165840
    58  C   -0.032180
    59  C   -0.325216
    60  C   -0.143980
    61  C   -0.201725
    62  C   -0.121327
    63  C   -0.061279
    64  C   -0.311191
    65  C   -0.319656
    66  H    0.058887
    67  H    0.071853
    68  H    0.080389
    69  H    0.118799
    70  H    0.105441
    71  H    0.096472
    72  H    0.108328
    73  H    0.139949
    74  H    0.109147
    75  H    0.098784
    76  H    0.124812
    77  H    0.139825
    78  H    0.122781
    79  H    0.130250
    80  H    0.101945
    81  H    0.090062
    82  H    0.101263
    83  H    0.089693
    84  H    0.120775
    85  H    0.108440
    86  H    0.126813
    87  H    0.119666
    88  H    0.102715
    89  H    0.089763
    90  H    0.107585
    91  H    0.118541
    92  H    0.115946
    93  H    0.119729
    94  H    0.140519
    95  H    0.158567
    96  H    0.106548
    97  H    0.125967
    98  H    0.114036
    99  H    0.134639
   100  H    0.090520
   101  H    0.087660
   102  H    0.116450
   103  H    0.129188
   104  H    0.125161
   105  H    0.062324
   106  H    0.106730
   107  H    0.103015
   108  H    0.084259
   109  H    0.088615
   110  H    0.082830
   111  H    0.070380
   112  H    0.082607
   113  H    0.123442
   114  H    0.072104
   115  H    0.090664
   116  H    0.076035
   117  H    0.093600
   118  H    0.099963
   119  H    0.096815
   120  H    0.082586
   121  H    0.097090
   122  H    0.090756
   123  H    0.088740
   124  H    0.116229
   125  H    0.060443
   126  H    0.050216
   127  H    0.090357
   128  H    0.064838
   129  H    0.099883
   130  H    0.093634
   131  H    0.103169
   132  H    0.102027
   133  H    0.078686
   134  H    0.089502
   135  H    0.088854
   136  H    0.110401
   137  H    0.091559
 Sum of Mulliken charges =  -0.00000

 Dipole moment (field-independent basis, Debye):
    X=              1.3028    Y=              4.3092    Z=             -0.7555  Tot=              4.5648
 Quadrupole moment (field-independent basis, Debye-Ang):
   XX=           -334.3286   YY=           -398.4440   ZZ=           -398.4823
   XY=            -19.7618   XZ=             13.4819   YZ=              3.6913

 Normal termination of Gaussian 16 at Mon Sep 23 23:42:47 2019.
