 Gaussian 09, Revision D.01,
 Gaussian 09:  ES64L-G09RevD.01 24-Apr-2013

 -------------------------------------
 # td=(NStates=1) CAM-B3LYP/6-31G(d,p)
 -------------------------------------

 --
 TD
 --
 Symbolic Z-matrix:
 Charge =  0 Multiplicity = 1

                         Standard orientation:
 ---------------------------------------------------------------------
 Center     Atomic      Atomic             Coordinates (Angstroms)
 Number     Number       Type             X           Y           Z
 ---------------------------------------------------------------------
      1         12           0       -7.148671    0.630007   -0.004149
      2          6           0       -4.898510   -1.919186    0.431835
      3          6           0       -4.717152    2.914096    1.205185
      4          6           0       -9.257175    3.140966   -0.453948
      5          6           0       -9.554229   -1.720259   -0.805369
      6          7           0       -5.161056    0.477754    0.731246
      7          6           0       -4.312986   -0.709468    0.835405
      8          6           0       -2.975363   -0.467191    1.244184
      9          6           0       -3.092854    1.038468    1.690567
     10          6           0       -4.442147    1.521180    1.228557
     11          6           0       -2.956159    1.172856    3.256383
     12          6           0       -1.917143   -0.618824    0.121763
     13          6           0       -0.503308   -0.462022    0.559395
     14          6           0        0.506589   -0.715649   -0.502625
     15          8           0        0.327587   -1.075853   -1.653720
     16          8           0        1.673854   -0.308620   -0.099347
     17          7           0       -7.021542    2.714311    0.255047
     18          6           0       -5.930204    3.434014    0.796859
     19          6           0       -6.344251    4.852303    0.855316
     20          6           0       -7.625010    4.841374    0.399087
     21          6           0       -8.060684    3.517586    0.062853
     22          6           0       -5.484123    5.938065    1.190337
     23          6           0       -8.398851    6.033251    0.141470
     24          6           0       -8.373618    7.175523    0.759647
     25          7           0       -9.021520    0.808969   -0.572533
     26          6           0       -9.761065    1.889337   -0.767345
     27          6           0      -11.151225    1.458970   -1.163062
     28          6           0      -11.203793    0.093166   -1.239602
     29          6           0       -9.836368   -0.361967   -0.829676
     30          6           0      -12.293501    2.447474   -1.474957
     31          6           0      -12.306084   -0.725091   -1.746365
     32          6           0      -12.187999   -1.170602   -3.243761
     33          7           0       -7.183337   -1.359906   -0.278256
     34          6           0       -8.306995   -2.250509   -0.556279
     35          6           0       -7.812141   -3.550410   -0.578282
     36          6           0       -6.501413   -3.544577   -0.160171
     37          6           0       -6.191128   -2.149270   -0.017204
     38          6           0       -8.728873   -4.771099   -0.878256
     39          6           0       -5.374620   -4.306580    0.093999
     40          8           0       -5.271558   -5.578410    0.115848
     41          6           0       -4.240047   -3.312058    0.584718
     42          6           0       -3.641207   -3.665072    1.925237
     43          8           0       -3.883496   -3.236090    3.004248
     44          8           0       -2.873286   -4.758996    1.717005
     45          6           0       -2.301721   -5.491351    2.911177
     46          6           0        2.705247   -0.555389   -1.165329
     47          6           0        3.958502   -0.326468   -0.542464
     48          6           0        5.177975    0.330653   -0.936598
     49          6           0        5.041424    1.197902   -2.279418
     50          6           0        6.446965    0.487819   -0.186750
     51          6           0        7.727506   -0.112303   -0.859740
     52          6           0        9.072997    0.014602   -0.085673
     53          6           0       10.322397   -0.546795   -0.775474
     54          6           0       10.111676   -2.029825   -1.151521
     55          6           0       11.430515   -0.308152    0.094158
     56          6           0       12.749755   -0.544291   -0.675508
     57          6           0       14.005406   -0.357097    0.297911
     58          6           0       15.337933   -0.330304   -0.466628
     59          6           0       15.671686   -1.713248   -0.963577
     60          6           0       16.406059    0.247767    0.430360
     61          6           0       17.846249    0.489733   -0.168388
     62          6           0       18.744370    1.357083    0.693388
     63          6           0       20.212390    1.416272    0.137887
     64          6           0       20.189613    2.120835   -1.210304
     65          6           0       21.186977    2.080511    1.212583
     66          1           0       -3.983997    3.447066    1.710513
     67          1           0       -9.891057    3.964563   -0.559856
     68          1           0      -10.455032   -2.297036   -1.040161
     69          1           0       -2.741356   -1.078975    2.243594
     70          1           0       -2.133698    1.654026    1.212271
     71          1           0       -2.077915    0.768067    3.652112
     72          1           0       -2.977206    2.201762    3.547378
     73          1           0       -3.838865    0.541266    3.719232
     74          1           0       -1.983653   -1.496383   -0.205253
     75          1           0       -2.039668   -0.013489   -0.740227
     76          1           0       -0.329250    0.658033    0.757165
     77          1           0       -0.315559   -1.166421    1.459240
     78          1           0       -5.614470    6.876032    0.620233
     79          1           0       -5.595105    6.130286    2.317505
     80          1           0       -4.417470    5.621397    0.947511
     81          1           0       -9.305096    5.824643   -0.475480
     82          1           0       -8.846344    8.139170    0.666649
     83          1           0       -7.596726    6.919994    1.661111
     84          1           0      -12.085159    3.306117   -2.231063
     85          1           0      -13.369800    2.009815   -1.864857
     86          1           0      -12.505946    2.951618   -0.671881
     87          1           0      -12.785917   -1.772423   -1.087401
     88          1           0      -13.268469   -0.133080   -1.643874
     89          1           0      -12.986156   -1.830611   -3.656841
     90          1           0      -11.926136   -0.442935   -3.792023
     91          1           0      -11.232981   -1.895644   -3.228541
     92          1           0       -9.001784   -4.660378   -1.978434
     93          1           0       -8.399925   -5.757798   -0.851467
     94          1           0       -9.541826   -4.654312   -0.085324
     95          1           0       -3.445633   -3.394735   -0.257707
     96          1           0       -1.820289   -4.911800    3.538698
     97          1           0       -3.168109   -5.917009    3.607620
     98          1           0       -1.798136   -6.590587    2.489096
     99          1           0        2.493066   -1.626598   -1.435816
    100          1           0        2.454908    0.131659   -1.992203
    101          1           0        4.136772   -0.796313    0.342682
    102          1           0        4.113605    1.104839   -2.799705
    103          1           0        5.568464    2.279832   -2.179255
    104          1           0        5.553467    0.836809   -2.826989
    105          1           0        6.802952    1.361609    0.154627
    106          1           0        6.468186   -0.039021    0.737074
    107          1           0        7.530663   -1.166617   -0.846473
    108          1           0        7.853375    0.187670   -1.831460
    109          1           0        9.159050    0.891944    0.240480
    110          1           0        8.922674   -0.665870    0.904832
    111          1           0       10.502320   -0.076065   -1.788360
    112          1           0        9.324229   -2.143912   -1.936790
    113          1           0       11.042201   -2.536950   -1.897231
    114          1           0        9.781209   -2.762347   -0.281794
    115          1           0       11.377016    0.802301    0.631744
    116          1           0       11.462122   -0.925095    0.885333
    117          1           0       12.549622   -1.528828   -1.128188
    118          1           0       12.820646    0.143164   -1.551388
    119          1           0       13.854557    0.698103    0.743140
    120          1           0       13.957281   -1.005297    1.270319
    121          1           0       15.519164    0.261021   -1.311985
    122          1           0       15.574125   -2.424879   -0.196523
    123          1           0       15.112934   -1.798616   -2.033414
    124          1           0       16.781206   -1.886521   -1.240235
    125          1           0       15.961645    1.264580    0.511826
    126          1           0       16.309606   -0.287596    1.482494
    127          1           0       18.221088   -0.590714   -0.219213
    128          1           0       17.533948    0.910172   -1.350236
    129          1           0       18.355273    2.313560    0.891586
    130          1           0       18.664543    0.874113    1.782897
    131          1           0       20.456574    0.426570   -0.357055
    132          1           0       19.714802    3.101067   -1.035061
    133          1           0       21.126014    2.124586   -1.670023
    134          1           0       19.603051    1.531838   -2.003234
    135          1           0       21.255968    1.544943    2.074703
    136          1           0       22.325000    2.127049    0.764664
    137          1           0       20.925140    3.098879    1.487764
 ---------------------------------------------------------------------

 SCF Done:  E(RCAM-B3LYP) =  -2932.51616665     A.U. after   18 cycles

 Excitation energies and oscillator strengths:

 Excited State   1:      Singlet-A      2.0639 eV  600.73 nm  f=0.2476  <S**2>=0.000
     240 -> 242       -0.12595
     240 -> 243        0.21529
     241 -> 242        0.64876
 This state for optimization and/or second-order correction.
 Total Energy, E(TD-HF/TD-KS) =  -2932.44031952
 Copying the excited state density for this state as the 1-particle RhoCI density.

 The electronic state is 1-A.
 Alpha  occ. eigenvalues --  -46.83757 -19.26151 -19.25243 -19.20697 -19.19995
 Alpha  occ. eigenvalues --  -19.18086 -14.42471 -14.40212 -14.39207 -14.39017
 Alpha  occ. eigenvalues --  -10.38732 -10.38320 -10.33566 -10.32741 -10.32256
 Alpha  occ. eigenvalues --  -10.31790 -10.30943 -10.30630 -10.30311 -10.29626
 Alpha  occ. eigenvalues --  -10.29328 -10.29210 -10.29123 -10.29041 -10.28436
 Alpha  occ. eigenvalues --  -10.28291 -10.28173 -10.28149 -10.27977 -10.27802
 Alpha  occ. eigenvalues --  -10.27766 -10.27604 -10.27563 -10.27555 -10.27156
 Alpha  occ. eigenvalues --  -10.27086 -10.26965 -10.26860 -10.26762 -10.26755
 Alpha  occ. eigenvalues --  -10.26716 -10.26714 -10.26620 -10.26526 -10.26485
 Alpha  occ. eigenvalues --  -10.26259 -10.26151 -10.25939 -10.25890 -10.25850
 Alpha  occ. eigenvalues --  -10.25645 -10.25477 -10.25459 -10.25343 -10.25321
 Alpha  occ. eigenvalues --  -10.25203 -10.25123 -10.24725 -10.24687 -10.24661
 Alpha  occ. eigenvalues --  -10.24656 -10.24609 -10.24077 -10.23989 -10.23754
 Alpha  occ. eigenvalues --   -3.12947  -1.87648  -1.87201  -1.87120  -1.19484
 Alpha  occ. eigenvalues --   -1.17211  -1.08520  -1.08195  -1.06125  -1.04350
 Alpha  occ. eigenvalues --   -1.03753  -1.02817  -1.02143  -0.92252  -0.92086
 Alpha  occ. eigenvalues --   -0.91154  -0.90502  -0.90326  -0.89843  -0.89744
 Alpha  occ. eigenvalues --   -0.88603  -0.88047  -0.87489  -0.87095  -0.86919
 Alpha  occ. eigenvalues --   -0.85415  -0.84773  -0.83505  -0.83131  -0.82786
 Alpha  occ. eigenvalues --   -0.81853  -0.81342  -0.80867  -0.80190  -0.78496
 Alpha  occ. eigenvalues --   -0.78311  -0.77501  -0.77194  -0.76080  -0.75636
 Alpha  occ. eigenvalues --   -0.75209  -0.74810  -0.74536  -0.74097  -0.72967
 Alpha  occ. eigenvalues --   -0.71899  -0.71312  -0.70405  -0.69310  -0.68549
 Alpha  occ. eigenvalues --   -0.66977  -0.66636  -0.66078  -0.64945  -0.64275
 Alpha  occ. eigenvalues --   -0.63859  -0.63708  -0.62791  -0.62613  -0.61926
 Alpha  occ. eigenvalues --   -0.61705  -0.61625  -0.60646  -0.59712  -0.59342
 Alpha  occ. eigenvalues --   -0.58869  -0.58510  -0.57906  -0.57600  -0.56700
 Alpha  occ. eigenvalues --   -0.56072  -0.55881  -0.55560  -0.55279  -0.54377
 Alpha  occ. eigenvalues --   -0.54217  -0.53982  -0.53906  -0.53118  -0.52898
 Alpha  occ. eigenvalues --   -0.52825  -0.52580  -0.52231  -0.51978  -0.51643
 Alpha  occ. eigenvalues --   -0.51447  -0.51250  -0.51095  -0.51012  -0.50657
 Alpha  occ. eigenvalues --   -0.50471  -0.50281  -0.50068  -0.49865  -0.49574
 Alpha  occ. eigenvalues --   -0.49139  -0.49034  -0.48935  -0.48737  -0.48664
 Alpha  occ. eigenvalues --   -0.48100  -0.47907  -0.47696  -0.47140  -0.47012
 Alpha  occ. eigenvalues --   -0.46901  -0.46776  -0.46428  -0.46342  -0.46126
 Alpha  occ. eigenvalues --   -0.45970  -0.45844  -0.45452  -0.45114  -0.45082
 Alpha  occ. eigenvalues --   -0.44879  -0.44694  -0.44630  -0.44382  -0.44189
 Alpha  occ. eigenvalues --   -0.43797  -0.43647  -0.43583  -0.43565  -0.43311
 Alpha  occ. eigenvalues --   -0.43095  -0.42703  -0.42410  -0.42038  -0.41939
 Alpha  occ. eigenvalues --   -0.41815  -0.41719  -0.41411  -0.41288  -0.41018
 Alpha  occ. eigenvalues --   -0.40992  -0.40969  -0.40660  -0.40395  -0.40182
 Alpha  occ. eigenvalues --   -0.40031  -0.39599  -0.39139  -0.39109  -0.38939
 Alpha  occ. eigenvalues --   -0.38680  -0.38518  -0.38044  -0.37977  -0.37877
 Alpha  occ. eigenvalues --   -0.37712  -0.37529  -0.37373  -0.36977  -0.36663
 Alpha  occ. eigenvalues --   -0.36533  -0.36240  -0.36175  -0.35616  -0.35578
 Alpha  occ. eigenvalues --   -0.35413  -0.35396  -0.34772  -0.33692  -0.33611
 Alpha  occ. eigenvalues --   -0.33369  -0.33240  -0.32850  -0.30962  -0.29549
 Alpha  occ. eigenvalues --   -0.28721  -0.28641  -0.28480  -0.27626  -0.23726
 Alpha  occ. eigenvalues --   -0.21226
 Alpha virt. eigenvalues --   -0.06525  -0.02955   0.01124   0.03638   0.04228
 Alpha virt. eigenvalues --    0.05594   0.06588   0.06655   0.06923   0.07528
 Alpha virt. eigenvalues --    0.07896   0.10358   0.10910   0.11467   0.11696

 Mulliken charges:
               1
     1  Mg   0.817293
     2  C    0.046604
     3  C   -0.186491
     4  C   -0.197313
     5  C   -0.169060
     6  N   -0.636663
     7  C    0.293246
     8  C   -0.172307
     9  C   -0.174379
    10  C    0.382178
    11  C   -0.314683
    12  C   -0.144322
    13  C   -0.276288
    14  C    0.608286
    15  O   -0.502747
    16  O   -0.465681
    17  N   -0.738951
    18  C    0.305542
    19  C    0.057272
    20  C   -0.020475
    21  C    0.399530
    22  C   -0.397433
    23  C   -0.046289
    24  C   -0.256616
    25  N   -0.722602
    26  C    0.349403
    27  C    0.001953
    28  C    0.076518
    29  C    0.256175
    30  C   -0.372573
    31  C   -0.266478
    32  C   -0.285791
    33  N   -0.747696
    34  C    0.258158
    35  C   -0.008946
    36  C    0.087359
    37  C    0.332888
    38  C   -0.350554
    39  C    0.306031
    40  O   -0.506718
    41  C   -0.319212
    42  C    0.620948
    43  O   -0.464174
    44  O   -0.457860
    45  C   -0.078126
    46  C    0.009892
    47  C   -0.116736
    48  C    0.088211
    49  C   -0.326587
    50  C   -0.245878
    51  C   -0.206173
    52  C   -0.162866
    53  C   -0.048411
    54  C   -0.309270
    55  C   -0.142367
    56  C   -0.188793
    57  C   -0.176734
    58  C   -0.045194
    59  C   -0.298749
    60  C   -0.182848
    61  C   -0.164842
    62  C   -0.155781
    63  C   -0.059302
    64  C   -0.306002
    65  C   -0.310934
    66  H    0.086395
    67  H    0.070325
    68  H    0.115421
    69  H    0.131147
    70  H    0.081641
    71  H    0.122428
    72  H    0.110682
    73  H    0.114799
    74  H    0.123833
    75  H    0.124398
    76  H    0.129906
    77  H    0.128280
    78  H    0.139279
    79  H    0.125185
    80  H    0.109255
    81  H    0.075549
    82  H    0.123438
    83  H    0.076959
    84  H    0.105994
    85  H    0.096102
    86  H    0.141406
    87  H    0.063837
    88  H    0.105380
    89  H    0.110509
    90  H    0.130245
    91  H    0.081795
    92  H    0.114308
    93  H    0.149156
    94  H    0.118394
    95  H    0.159583
    96  H    0.145501
    97  H    0.118228
    98  H    0.118612
    99  H    0.148864
   100  H    0.132749
   101  H    0.085376
   102  H    0.098450
   103  H    0.086673
   104  H    0.130464
   105  H    0.120282
   106  H    0.104603
   107  H    0.107945
   108  H    0.100867
   109  H    0.098650
   110  H    0.060111
   111  H    0.084849
   112  H    0.112101
   113  H    0.069102
   114  H    0.096288
   115  H    0.054819
   116  H    0.106496
   117  H    0.102116
   118  H    0.088092
   119  H    0.083528
   120  H    0.088535
   121  H    0.088031
   122  H    0.106312
   123  H    0.083017
   124  H    0.081736
   125  H    0.084753
   126  H    0.064522
   127  H    0.096948
   128  H    0.056173
   129  H    0.101701
   130  H    0.074613
   131  H    0.087275
   132  H    0.092660
   133  H    0.107645
   134  H    0.093540
   135  H    0.121130
   136  H    0.073174
   137  H    0.108247
 Sum of Mulliken charges =   0.00000

 Dipole moment (field-independent basis, Debye):
    X=              2.0405    Y=              5.5973    Z=              0.8550  Tot=              6.0187
 Quadrupole moment (field-independent basis, Debye-Ang):
   XX=           -345.6029   YY=           -397.0935   ZZ=           -393.1814
   XY=            -29.3750   XZ=             12.5063   YZ=             -1.7723

 Normal termination of Gaussian 09 at Tue Jul  2 11:18:05 2019.
