 Gaussian 16, Revision A.03,
 Gaussian 16:  ES64L-G16RevA.03 25-Dec-2016

 ----------------------------------------------------------------------
 # td=(NStates=1) iop(3/107=0140000000,3/108=0140000000) CAM-B3LYP/6-31
 G(d,p)
 ----------------------------------------------------------------------

 --
 TD
 --
 Symbolic Z-matrix:
 Charge =  0 Multiplicity = 1

                         Standard orientation:
 ---------------------------------------------------------------------
 Center     Atomic      Atomic             Coordinates (Angstroms)
 Number     Number       Type             X           Y           Z
 ---------------------------------------------------------------------
      1         12           0       -7.123524    0.655712    0.198157
      2          6           0       -4.841614   -1.961290    0.499385
      3          6           0       -4.756415    2.827604    1.043070
      4          6           0       -9.382207    3.109166   -0.346369
      5          6           0       -9.591974   -1.766447   -0.897608
      6          7           0       -5.112264    0.459796    0.695843
      7          6           0       -4.418969   -0.656531    0.728572
      8          6           0       -2.923480   -0.384447    1.148506
      9          6           0       -3.019934    1.243758    1.536389
     10          6           0       -4.360543    1.622247    1.034304
     11          6           0       -2.946780    1.308032    3.047567
     12          6           0       -1.927896   -0.457206   -0.031623
     13          6           0       -0.459691   -0.617702    0.465817
     14          6           0        0.595241   -0.771934   -0.569880
     15          8           0        0.304450   -1.014512   -1.794900
     16          8           0        1.836449   -0.465808   -0.185003
     17          7           0       -7.049635    2.563359    0.393486
     18          6           0       -6.072337    3.425751    0.756932
     19          6           0       -6.377091    4.793432    0.703538
     20          6           0       -7.776287    4.767166    0.363992
     21          6           0       -8.152970    3.398244    0.152401
     22          6           0       -5.556475    5.907534    1.038088
     23          6           0       -8.574724    5.964243    0.141891
     24          6           0       -8.541289    7.218218    0.630594
     25          7           0       -9.111224    0.621432   -0.407150
     26          6           0       -9.850324    1.754360   -0.542147
     27          6           0      -11.196069    1.451615   -1.076445
     28          6           0      -11.269952    0.140543   -1.247173
     29          6           0       -9.944919   -0.381595   -0.840434
     30          6           0      -12.291584    2.489290   -1.287542
     31          6           0      -12.369691   -0.685774   -1.626442
     32          6           0      -12.191889   -1.521200   -3.016744
     33          7           0       -7.197143   -1.441635   -0.293285
     34          6           0       -8.265730   -2.308672   -0.627081
     35          6           0       -7.736867   -3.635542   -0.599686
     36          6           0       -6.519297   -3.639795   -0.176623
     37          6           0       -6.169416   -2.190023    0.037346
     38          6           0       -8.570990   -4.849754   -0.920485
     39          6           0       -5.313943   -4.296381    0.158211
     40          8           0       -5.081237   -5.547195    0.224285
     41          6           0       -4.194164   -3.329805    0.607635
     42          6           0       -3.601312   -3.606719    1.976991
     43          8           0       -3.854954   -3.040094    3.018243
     44          8           0       -2.717579   -4.594928    1.913927
     45          6           0       -2.438978   -5.255180    3.194853
     46          6           0        2.788184   -0.556844   -1.275793
     47          6           0        4.152275   -0.329809   -0.664384
     48          6           0        5.209071    0.422924   -1.083925
     49          6           0        5.136392    1.266461   -2.333984
     50          6           0        6.514631    0.519937   -0.196307
     51          6           0        7.566169   -0.086798   -0.987490
     52          6           0        8.947667    0.067161   -0.188189
     53          6           0       10.215928   -0.528199   -0.869862
     54          6           0       10.101287   -1.981172   -1.267460
     55          6           0       11.366010   -0.271581   -0.054904
     56          6           0       12.710426   -0.601363   -0.697275
     57          6           0       13.977496   -0.198345    0.275421
     58          6           0       15.371047   -0.300840   -0.328328
     59          6           0       15.749075   -1.698380   -0.911323
     60          6           0       16.522680    0.264508    0.555733
     61          6           0       17.878039    0.466379   -0.077868
     62          6           0       18.810677    1.190523    0.895567
     63          6           0       20.229494    1.402844    0.299838
     64          6           0       20.224367    1.952953   -1.103631
     65          6           0       21.130204    2.060898    1.305642
     66          1           0       -3.992269    3.505502    1.475894
     67          1           0      -10.146799    3.930350   -0.609374
     68          1           0      -10.155833   -2.731104   -1.212133
     69          1           0       -2.571540   -1.077200    1.940717
     70          1           0       -2.329532    1.678943    0.982334
     71          1           0       -2.078555    0.690587    3.394851
     72          1           0       -2.941539    2.339280    3.267234
     73          1           0       -3.942883    1.051522    3.500174
     74          1           0       -2.104722   -1.472926   -0.727845
     75          1           0       -2.073309    0.433709   -0.763607
     76          1           0       -0.050400    0.379829    0.912154
     77          1           0       -0.351573   -1.418129    1.168075
     78          1           0       -5.783547    6.816968    0.538451
     79          1           0       -5.720579    6.342445    1.979145
     80          1           0       -4.521945    5.679346    0.780959
     81          1           0       -9.586388    5.779704   -0.411545
     82          1           0       -9.334825    7.990025    0.570188
     83          1           0       -7.680026    7.443248    1.292623
     84          1           0      -11.994385    3.083150   -2.059415
     85          1           0      -13.226030    1.870512   -1.609116
     86          1           0      -12.497582    3.106394   -0.388419
     87          1           0      -12.615086   -1.318409   -0.700677
     88          1           0      -13.353582   -0.059552   -1.752531
     89          1           0      -13.132082   -2.002324   -3.053412
     90          1           0      -11.782845   -0.807876   -3.923225
     91          1           0      -11.421002   -2.471937   -3.125213
     92          1           0       -8.904063   -4.671591   -1.976669
     93          1           0       -8.040057   -5.692158   -1.000133
     94          1           0       -9.478450   -5.095298   -0.233580
     95          1           0       -3.311117   -3.413754   -0.062277
     96          1           0       -1.713111   -4.559746    3.745916
     97          1           0       -3.385295   -5.274181    3.637101
     98          1           0       -2.162378   -6.413141    2.734551
     99          1           0        2.892545   -1.508834   -1.727494
    100          1           0        2.564177    0.117291   -2.165039
    101          1           0        4.221733   -0.926925    0.238606
    102          1           0        4.069690    1.110957   -2.803742
    103          1           0        5.264267    2.428768   -2.219036
    104          1           0        5.812746    1.077263   -3.174870
    105          1           0        6.767442    1.582410    0.106175
    106          1           0        6.272597    0.043238    0.814541
    107          1           0        7.691344   -1.220128   -1.291104
    108          1           0        7.490474    0.381438   -1.971988
    109          1           0        8.993947    1.097012    0.235776
    110          1           0        8.958323   -0.541350    0.806730
    111          1           0       10.355107    0.082488   -1.875817
    112          1           0        9.152162   -2.225676   -1.643544
    113          1           0       10.923996   -2.312914   -1.895375
    114          1           0       10.078526   -2.541246   -0.399235
    115          1           0       11.433436    0.870316    0.159853
    116          1           0       11.434618   -0.898458    0.944702
    117          1           0       12.807189   -1.735974   -0.930673
    118          1           0       12.893472   -0.103364   -1.560819
    119          1           0       13.829134    0.806831    0.452139
    120          1           0       13.976182   -0.753771    1.139091
    121          1           0       15.233816    0.448284   -1.207883
    122          1           0       15.888823   -2.334637   -0.101794
    123          1           0       14.847684   -1.890838   -1.487084
    124          1           0       16.610499   -1.879174   -1.674714
    125          1           0       16.120187    1.157669    1.077212
    126          1           0       16.659822   -0.366678    1.461585
    127          1           0       18.261882   -0.531977   -0.459267
    128          1           0       17.585499    0.941343   -1.126995
    129          1           0       18.408074    2.263045    0.979330
    130          1           0       18.742257    0.852570    1.935243
    131          1           0       20.795959    0.483549    0.321089
    132          1           0       19.919302    3.046610   -1.198080
    133          1           0       21.208181    1.988975   -1.713427
    134          1           0       19.566642    1.450492   -1.830667
    135          1           0       21.217977    1.486995    2.207031
    136          1           0       21.947008    2.261426    0.594224
    137          1           0       20.820382    3.163104    1.653884
 ---------------------------------------------------------------------

 SCF Done:  E(RCAM-B3LYP) =  -2933.56328544     A.U. after   16 cycles

 Excitation energies and oscillator strengths:

 Excited State   1:      Singlet-A      1.9779 eV  626.86 nm  f=0.3607  <S**2>=0.000
     240 -> 243        0.19296
     241 -> 242        0.67730
 This state for optimization and/or second-order correction.
 Total Energy, E(TD-HF/TD-DFT) =  -2933.49060075
 Copying the excited state density for this state as the 1-particle RhoCI density.

 The electronic state is 1-A.
 Alpha  occ. eigenvalues --  -46.79848 -19.23668 -19.21133 -19.16047 -19.15528
 Alpha  occ. eigenvalues --  -19.14999 -14.36769 -14.36258 -14.35779 -14.34808
 Alpha  occ. eigenvalues --  -10.34548 -10.33835 -10.30164 -10.28351 -10.27607
 Alpha  occ. eigenvalues --  -10.26254 -10.25720 -10.25533 -10.25124 -10.24803
 Alpha  occ. eigenvalues --  -10.24792 -10.24491 -10.24415 -10.24317 -10.24261
 Alpha  occ. eigenvalues --  -10.24128 -10.24068 -10.24040 -10.23827 -10.23808
 Alpha  occ. eigenvalues --  -10.23655 -10.23554 -10.23405 -10.23064 -10.22991
 Alpha  occ. eigenvalues --  -10.22915 -10.22540 -10.22441 -10.22159 -10.21983
 Alpha  occ. eigenvalues --  -10.21963 -10.21846 -10.21792 -10.21759 -10.21748
 Alpha  occ. eigenvalues --  -10.21715 -10.21684 -10.21615 -10.21531 -10.21390
 Alpha  occ. eigenvalues --  -10.21364 -10.21288 -10.21237 -10.21067 -10.21064
 Alpha  occ. eigenvalues --  -10.20992 -10.20860 -10.20793 -10.20762 -10.20565
 Alpha  occ. eigenvalues --  -10.20366 -10.20068 -10.19714 -10.19560 -10.19049
 Alpha  occ. eigenvalues --   -3.08554  -1.83482  -1.83059  -1.82946  -1.13484
 Alpha  occ. eigenvalues --   -1.13104  -1.03542  -1.02509  -1.00976  -0.99309
 Alpha  occ. eigenvalues --   -0.98659  -0.98241  -0.97324  -0.87021  -0.86199
 Alpha  occ. eigenvalues --   -0.85070  -0.84959  -0.84633  -0.84536  -0.84324
 Alpha  occ. eigenvalues --   -0.83734  -0.83500  -0.83052  -0.82714  -0.81123
 Alpha  occ. eigenvalues --   -0.80378  -0.79204  -0.78579  -0.78349  -0.77768
 Alpha  occ. eigenvalues --   -0.76316  -0.76106  -0.75451  -0.75090  -0.74121
 Alpha  occ. eigenvalues --   -0.73277  -0.72654  -0.71594  -0.71398  -0.71055
 Alpha  occ. eigenvalues --   -0.70999  -0.70505  -0.69613  -0.69159  -0.68267
 Alpha  occ. eigenvalues --   -0.67262  -0.65963  -0.65403  -0.64711  -0.63875
 Alpha  occ. eigenvalues --   -0.62948  -0.61612  -0.61397  -0.60880  -0.60398
 Alpha  occ. eigenvalues --   -0.59735  -0.59086  -0.58516  -0.58172  -0.57611
 Alpha  occ. eigenvalues --   -0.57033  -0.56714  -0.56134  -0.55971  -0.55240
 Alpha  occ. eigenvalues --   -0.54922  -0.53963  -0.53724  -0.52956  -0.52795
 Alpha  occ. eigenvalues --   -0.51878  -0.51786  -0.50973  -0.50871  -0.50764
 Alpha  occ. eigenvalues --   -0.50406  -0.49893  -0.49515  -0.49452  -0.49132
 Alpha  occ. eigenvalues --   -0.49000  -0.48766  -0.48714  -0.48538  -0.48020
 Alpha  occ. eigenvalues --   -0.47765  -0.47373  -0.47335  -0.47121  -0.46854
 Alpha  occ. eigenvalues --   -0.46784  -0.46527  -0.46341  -0.46158  -0.45941
 Alpha  occ. eigenvalues --   -0.45702  -0.45573  -0.45260  -0.45074  -0.44464
 Alpha  occ. eigenvalues --   -0.44241  -0.44137  -0.43860  -0.43544  -0.43312
 Alpha  occ. eigenvalues --   -0.43210  -0.43134  -0.42754  -0.42666  -0.42291
 Alpha  occ. eigenvalues --   -0.42235  -0.42051  -0.41842  -0.41721  -0.41620
 Alpha  occ. eigenvalues --   -0.41464  -0.41137  -0.41060  -0.41046  -0.40860
 Alpha  occ. eigenvalues --   -0.40534  -0.40364  -0.40145  -0.39962  -0.39805
 Alpha  occ. eigenvalues --   -0.39528  -0.39444  -0.39185  -0.39112  -0.38753
 Alpha  occ. eigenvalues --   -0.38530  -0.38381  -0.38147  -0.38032  -0.37896
 Alpha  occ. eigenvalues --   -0.37820  -0.37684  -0.37509  -0.37452  -0.37222
 Alpha  occ. eigenvalues --   -0.37191  -0.37093  -0.36998  -0.36279  -0.36180
 Alpha  occ. eigenvalues --   -0.35464  -0.35345  -0.35191  -0.34623  -0.34276
 Alpha  occ. eigenvalues --   -0.34139  -0.33473  -0.33273  -0.33050  -0.32946
 Alpha  occ. eigenvalues --   -0.32810  -0.32736  -0.32679  -0.32372  -0.32204
 Alpha  occ. eigenvalues --   -0.31899  -0.31538  -0.31005  -0.30306  -0.29995
 Alpha  occ. eigenvalues --   -0.29788  -0.29453  -0.29102  -0.28787  -0.27826
 Alpha  occ. eigenvalues --   -0.26725  -0.26530  -0.26206  -0.25056  -0.22134
 Alpha  occ. eigenvalues --   -0.19790
 Alpha virt. eigenvalues --   -0.07541  -0.03692   0.00410   0.02389   0.03172
 Alpha virt. eigenvalues --    0.04187   0.04301   0.04538   0.05351   0.06307
 Alpha virt. eigenvalues --    0.06597   0.09159   0.09281   0.09535   0.10113

 Mulliken charges:
               1
     1  Mg   0.829065
     2  C    0.106580
     3  C   -0.212118
     4  C   -0.162042
     5  C   -0.162314
     6  N   -0.669435
     7  C    0.343312
     8  C   -0.174479
     9  C   -0.130322
    10  C    0.346062
    11  C   -0.297055
    12  C   -0.161929
    13  C   -0.258463
    14  C    0.599287
    15  O   -0.505290
    16  O   -0.448136
    17  N   -0.754110
    18  C    0.293977
    19  C    0.076560
    20  C   -0.016113
    21  C    0.344828
    22  C   -0.401945
    23  C   -0.068870
    24  C   -0.258056
    25  N   -0.661657
    26  C    0.281458
    27  C   -0.000896
    28  C    0.111873
    29  C    0.256015
    30  C   -0.370529
    31  C   -0.280507
    32  C   -0.297432
    33  N   -0.714982
    34  C    0.243627
    35  C   -0.050556
    36  C    0.179241
    37  C    0.257128
    38  C   -0.370354
    39  C    0.308947
    40  O   -0.499925
    41  C   -0.301352
    42  C    0.607805
    43  O   -0.481602
    44  O   -0.442127
    45  C   -0.079377
    46  C    0.012867
    47  C   -0.147877
    48  C    0.121286
    49  C   -0.374363
    50  C   -0.216051
    51  C   -0.154370
    52  C   -0.183292
    53  C   -0.042362
    54  C   -0.320203
    55  C   -0.144575
    56  C   -0.197504
    57  C   -0.182020
    58  C   -0.071433
    59  C   -0.310663
    60  C   -0.174651
    61  C   -0.159423
    62  C   -0.167827
    63  C   -0.043357
    64  C   -0.327995
    65  C   -0.302947
    66  H    0.070516
    67  H    0.098929
    68  H    0.097829
    69  H    0.108486
    70  H    0.103162
    71  H    0.111382
    72  H    0.105057
    73  H    0.124276
    74  H    0.094688
    75  H    0.108960
    76  H    0.122307
    77  H    0.142532
    78  H    0.127185
    79  H    0.136505
    80  H    0.115015
    81  H    0.064172
    82  H    0.114936
    83  H    0.082520
    84  H    0.137248
    85  H    0.097166
    86  H    0.123612
    87  H    0.113682
    88  H    0.093025
    89  H    0.122096
    90  H    0.103433
    91  H    0.085644
    92  H    0.113119
    93  H    0.147391
    94  H    0.118767
    95  H    0.157911
    96  H    0.132456
    97  H    0.150691
    98  H    0.120486
    99  H    0.145779
   100  H    0.122972
   101  H    0.091529
   102  H    0.092898
   103  H    0.106467
   104  H    0.126646
   105  H    0.104921
   106  H    0.094738
   107  H    0.087105
   108  H    0.099620
   109  H    0.084827
   110  H    0.073521
   111  H    0.062323
   112  H    0.102107
   113  H    0.113308
   114  H    0.108037
   115  H    0.077330
   116  H    0.075443
   117  H    0.084453
   118  H    0.100663
   119  H    0.102321
   120  H    0.094064
   121  H    0.058006
   122  H    0.109527
   123  H    0.101192
   124  H    0.090528
   125  H    0.077369
   126  H    0.074049
   127  H    0.088751
   128  H    0.080485
   129  H    0.087174
   130  H    0.095304
   131  H    0.097949
   132  H    0.095770
   133  H    0.089113
   134  H    0.114602
   135  H    0.109945
   136  H    0.101205
   137  H    0.065743
 Sum of Mulliken charges =  -0.00000

 Dipole moment (field-independent basis, Debye):
    X=             -0.4998    Y=              4.0228    Z=              0.7462  Tot=              4.1218
 Quadrupole moment (field-independent basis, Debye-Ang):
   XX=           -342.5042   YY=           -391.7111   ZZ=           -397.2964
   XY=            -24.7947   XZ=              6.4185   YZ=             -2.2078

 Normal termination of Gaussian 16 at Tue Sep  3 13:45:35 2019.
