 Gaussian 16, Revision A.03,
 Gaussian 16:  ES64L-G16RevA.03 25-Dec-2016

 ----------------------------------------------------------------------
 # td=(NStates=1) iop(3/107=0140000000,3/108=0140000000) CAM-B3LYP/6-31
 G(d,p)
 ----------------------------------------------------------------------

 --
 TD
 --
 Symbolic Z-matrix:
 Charge =  0 Multiplicity = 1

                         Standard orientation:
 ---------------------------------------------------------------------
 Center     Atomic      Atomic             Coordinates (Angstroms)
 Number     Number       Type             X           Y           Z
 ---------------------------------------------------------------------
      1         12           0       -7.129670    0.559738    0.073590
      2          6           0       -4.897001   -1.982511    0.580010
      3          6           0       -4.710215    2.855751    1.028687
      4          6           0       -9.483255    3.052301   -0.299052
      5          6           0       -9.522590   -1.772802   -0.857385
      6          7           0       -5.186610    0.469592    0.789619
      7          6           0       -4.333818   -0.610273    0.862835
      8          6           0       -2.918301   -0.391613    1.296681
      9          6           0       -3.048345    1.137739    1.616038
     10          6           0       -4.377447    1.543785    1.118180
     11          6           0       -2.926206    1.370361    3.133218
     12          6           0       -1.822119   -0.669255    0.245823
     13          6           0       -0.408482   -0.450730    0.602032
     14          6           0        0.600902   -0.506950   -0.554220
     15          8           0        0.272727   -1.013685   -1.612478
     16          8           0        1.802687   -0.267074   -0.124109
     17          7           0       -7.090423    2.642154    0.286977
     18          6           0       -6.051792    3.387010    0.642758
     19          6           0       -6.419534    4.750262    0.787774
     20          6           0       -7.661080    4.807974    0.310795
     21          6           0       -8.126129    3.484373    0.031778
     22          6           0       -5.500487    5.870474    1.066247
     23          6           0       -8.539966    6.063803    0.088303
     24          6           0       -8.332368    7.235091    0.697870
     25          7           0       -9.111427    0.696766   -0.648103
     26          6           0       -9.914887    1.821284   -0.699679
     27          6           0      -11.237995    1.462511   -1.109652
     28          6           0      -11.212494    0.091564   -1.238552
     29          6           0       -9.812300   -0.384484   -0.969411
     30          6           0      -12.310450    2.483380   -1.367825
     31          6           0      -12.430077   -0.785763   -1.727262
     32          6           0      -12.251034   -1.254399   -3.221916
     33          7           0       -7.194323   -1.329103   -0.208438
     34          6           0       -8.206390   -2.242827   -0.624668
     35          6           0       -7.837650   -3.673731   -0.499445
     36          6           0       -6.495062   -3.624580   -0.160858
     37          6           0       -6.231305   -2.187987    0.156567
     38          6           0       -8.580006   -4.695791   -0.970784
     39          6           0       -5.319586   -4.397316    0.166268
     40          8           0       -5.130568   -5.525535    0.154408
     41          6           0       -4.161468   -3.297426    0.625197
     42          6           0       -3.580527   -3.716346    1.916181
     43          8           0       -3.763022   -3.177349    3.012857
     44          8           0       -2.824792   -4.808236    1.761464
     45          6           0       -2.032537   -5.094072    3.004899
     46          6           0        2.775602   -0.757479   -1.114748
     47          6           0        4.136010   -0.580318   -0.500282
     48          6           0        5.181889    0.245822   -0.836043
     49          6           0        5.043323    1.243173   -2.068495
     50          6           0        6.415916    0.404352   -0.045198
     51          6           0        7.627384   -0.037804   -0.918529
     52          6           0        8.895070   -0.110561   -0.029322
     53          6           0       10.103911   -0.521216   -0.817831
     54          6           0       10.103190   -2.078657   -1.323791
     55          6           0       11.393749   -0.322468   -0.068078
     56          6           0       12.689812   -0.644980   -0.908096
     57          6           0       13.948503   -0.229164    0.049221
     58          6           0       15.362771   -0.235288   -0.533460
     59          6           0       15.687747   -1.750408   -0.914439
     60          6           0       16.343640    0.430986    0.421516
     61          6           0       17.702226    0.506611   -0.214889
     62          6           0       18.780857    1.186538    0.676539
     63          6           0       20.156875    1.465276    0.176445
     64          6           0       20.369463    2.313939   -1.060333
     65          6           0       21.054488    2.010200    1.313558
     66          1           0       -4.075285    3.596840    1.478196
     67          1           0      -10.229309    3.991503   -0.303414
     68          1           0      -10.477415   -2.208522   -1.263938
     69          1           0       -2.681667   -0.935581    2.255242
     70          1           0       -2.302590    1.753631    1.200300
     71          1           0       -1.825922    1.211810    3.355182
     72          1           0       -3.069911    2.444078    3.372177
     73          1           0       -3.507190    0.626093    3.851867
     74          1           0       -1.934985   -1.810073   -0.228412
     75          1           0       -2.139146   -0.068196   -0.615574
     76          1           0       -0.262254    0.471785    1.268750
     77          1           0       -0.099178   -1.229116    1.363142
     78          1           0       -5.563312    6.730151    0.200371
     79          1           0       -5.654852    6.357129    2.075054
     80          1           0       -4.515245    5.378962    0.996288
     81          1           0       -9.499267    5.828192   -0.407687
     82          1           0       -9.023782    7.911035    0.402615
     83          1           0       -7.469702    7.402761    1.306485
     84          1           0      -11.686920    3.199719   -1.917377
     85          1           0      -13.133736    1.920460   -2.102676
     86          1           0      -12.596648    2.631398   -0.373052
     87          1           0      -12.382575   -1.750213   -1.265486
     88          1           0      -13.383707   -0.158332   -1.362538
     89          1           0      -13.026015   -2.004002   -3.326531
     90          1           0      -12.411826   -0.468383   -3.873457
     91          1           0      -11.228553   -1.678865   -3.417660
     92          1           0       -8.953692   -4.656910   -1.927568
     93          1           0       -8.004182   -5.668389   -0.973439
     94          1           0       -9.486226   -5.034956   -0.196693
     95          1           0       -3.480168   -3.517641   -0.112294
     96          1           0       -1.374078   -3.956257    3.107275
     97          1           0       -2.567520   -5.148176    3.913746
     98          1           0       -1.621098   -6.008006    2.778628
     99          1           0        2.664388   -1.882590   -1.271405
    100          1           0        2.524297   -0.402315   -2.088133
    101          1           0        4.379930   -1.218581    0.360267
    102          1           0        4.087061    1.457530   -2.350522
    103          1           0        5.242598    2.257866   -1.774040
    104          1           0        5.590832    0.770451   -2.915877
    105          1           0        6.504700    1.484942    0.091411
    106          1           0        6.331892   -0.161946    0.857466
    107          1           0        7.434550   -1.039829   -1.548361
    108          1           0        7.961970    0.534680   -1.867793
    109          1           0        8.945352    0.774925    0.838293
    110          1           0        8.725443   -0.916901    0.735257
    111          1           0       10.145958    0.251426   -1.693273
    112          1           0        8.972987   -2.186272   -1.774806
    113          1           0       10.852901   -2.259892   -2.180373
    114          1           0       10.108839   -2.795030   -0.437039
    115          1           0       11.444153    0.883163    0.147990
    116          1           0       11.430425   -1.011167    0.984047
    117          1           0       12.795146   -1.667321   -1.001506
    118          1           0       12.629787   -0.046193   -1.920851
    119          1           0       13.840843    0.954116    0.374465
    120          1           0       13.927583   -0.803622    0.958503
    121          1           0       15.387593    0.338956   -1.677622
    122          1           0       15.802624   -2.274175   -0.044446
    123          1           0       15.199846   -2.278751   -1.662274
    124          1           0       16.568406   -1.843909   -1.464423
    125          1           0       15.911635    1.354513    0.376091
    126          1           0       16.431259   -0.228918    1.260265
    127          1           0       18.088799   -0.363476   -0.459251
    128          1           0       17.594748    1.250157   -1.095288
    129          1           0       18.298214    2.082915    0.910922
    130          1           0       19.015006    0.743722    1.571444
    131          1           0       20.371675    0.349720   -0.044524
    132          1           0       19.892355    3.280193   -0.784889
    133          1           0       21.498436    2.536631   -1.245490
    134          1           0       19.720491    1.708076   -1.822988
    135          1           0       21.049504    1.329825    2.308839
    136          1           0       22.106571    1.764754    0.905681
    137          1           0       20.885880    3.076546    1.459040
 ---------------------------------------------------------------------

 SCF Done:  E(RCAM-B3LYP) =  -2933.47499360     A.U. after   15 cycles

 Excitation energies and oscillator strengths:

 Excited State   1:      Singlet-A      1.9570 eV  633.55 nm  f=0.2788  <S**2>=0.000
     240 -> 243       -0.21793
     241 -> 242        0.67121
 This state for optimization and/or second-order correction.
 Total Energy, E(TD-HF/TD-DFT) =  -2933.40307551
 Copying the excited state density for this state as the 1-particle RhoCI density.

 The electronic state is 1-A.
 Alpha  occ. eigenvalues --  -46.79520 -19.23500 -19.21819 -19.17352 -19.16445
 Alpha  occ. eigenvalues --  -19.15419 -14.38113 -14.36146 -14.34487 -14.34338
 Alpha  occ. eigenvalues --  -10.34507 -10.33266 -10.30763 -10.28134 -10.27855
 Alpha  occ. eigenvalues --  -10.27652 -10.26162 -10.25301 -10.24851 -10.24275
 Alpha  occ. eigenvalues --  -10.24229 -10.23949 -10.23799 -10.23697 -10.23689
 Alpha  occ. eigenvalues --  -10.23682 -10.23609 -10.23492 -10.23430 -10.23346
 Alpha  occ. eigenvalues --  -10.23192 -10.23150 -10.23100 -10.23044 -10.22997
 Alpha  occ. eigenvalues --  -10.22966 -10.22859 -10.22627 -10.22524 -10.22419
 Alpha  occ. eigenvalues --  -10.22416 -10.22325 -10.22314 -10.22306 -10.22152
 Alpha  occ. eigenvalues --  -10.22063 -10.22044 -10.21919 -10.21909 -10.21879
 Alpha  occ. eigenvalues --  -10.21533 -10.21482 -10.21245 -10.21167 -10.21099
 Alpha  occ. eigenvalues --  -10.20997 -10.20941 -10.20732 -10.20474 -10.19923
 Alpha  occ. eigenvalues --  -10.19835 -10.19782 -10.19726 -10.18232 -10.18119
 Alpha  occ. eigenvalues --   -3.08279  -1.83204  -1.82743  -1.82716  -1.15152
 Alpha  occ. eigenvalues --   -1.12134  -1.11090  -1.04685  -1.02145  -0.99365
 Alpha  occ. eigenvalues --   -0.98703  -0.98269  -0.97349  -0.86294  -0.85994
 Alpha  occ. eigenvalues --   -0.85751  -0.85337  -0.85013  -0.84040  -0.83287
 Alpha  occ. eigenvalues --   -0.83064  -0.82926  -0.82432  -0.82015  -0.80907
 Alpha  occ. eigenvalues --   -0.79690  -0.78847  -0.78556  -0.78050  -0.77467
 Alpha  occ. eigenvalues --   -0.76578  -0.76306  -0.75078  -0.74457  -0.73801
 Alpha  occ. eigenvalues --   -0.72482  -0.72309  -0.71815  -0.71564  -0.71039
 Alpha  occ. eigenvalues --   -0.70030  -0.69815  -0.68929  -0.68870  -0.67667
 Alpha  occ. eigenvalues --   -0.66527  -0.65997  -0.64890  -0.64482  -0.63845
 Alpha  occ. eigenvalues --   -0.62598  -0.61654  -0.60761  -0.60565  -0.60447
 Alpha  occ. eigenvalues --   -0.59733  -0.58928  -0.57714  -0.57493  -0.57392
 Alpha  occ. eigenvalues --   -0.56604  -0.56236  -0.55671  -0.55319  -0.55100
 Alpha  occ. eigenvalues --   -0.54700  -0.53965  -0.53578  -0.53109  -0.53082
 Alpha  occ. eigenvalues --   -0.52681  -0.52324  -0.51693  -0.51177  -0.50972
 Alpha  occ. eigenvalues --   -0.50492  -0.49802  -0.49627  -0.49300  -0.49186
 Alpha  occ. eigenvalues --   -0.48749  -0.48665  -0.48438  -0.48091  -0.47960
 Alpha  occ. eigenvalues --   -0.47821  -0.47424  -0.47064  -0.46827  -0.46660
 Alpha  occ. eigenvalues --   -0.46461  -0.46363  -0.46071  -0.46035  -0.45831
 Alpha  occ. eigenvalues --   -0.45639  -0.45462  -0.45404  -0.45315  -0.45079
 Alpha  occ. eigenvalues --   -0.44532  -0.44264  -0.44020  -0.43708  -0.43563
 Alpha  occ. eigenvalues --   -0.43269  -0.43199  -0.42978  -0.42836  -0.42745
 Alpha  occ. eigenvalues --   -0.42385  -0.41977  -0.41836  -0.41668  -0.41614
 Alpha  occ. eigenvalues --   -0.41374  -0.41146  -0.40968  -0.40919  -0.40842
 Alpha  occ. eigenvalues --   -0.40639  -0.40544  -0.40268  -0.40070  -0.40019
 Alpha  occ. eigenvalues --   -0.39666  -0.39368  -0.39162  -0.39096  -0.39015
 Alpha  occ. eigenvalues --   -0.38871  -0.38507  -0.38486  -0.38326  -0.38024
 Alpha  occ. eigenvalues --   -0.37855  -0.37522  -0.37340  -0.37142  -0.36924
 Alpha  occ. eigenvalues --   -0.36744  -0.36654  -0.36302  -0.36237  -0.35812
 Alpha  occ. eigenvalues --   -0.35749  -0.35475  -0.34886  -0.34356  -0.34335
 Alpha  occ. eigenvalues --   -0.34148  -0.33784  -0.33702  -0.33376  -0.33364
 Alpha  occ. eigenvalues --   -0.33223  -0.33174  -0.32621  -0.32203  -0.32045
 Alpha  occ. eigenvalues --   -0.31836  -0.31696  -0.31391  -0.30717  -0.30342
 Alpha  occ. eigenvalues --   -0.30057  -0.29477  -0.28718  -0.28470  -0.27718
 Alpha  occ. eigenvalues --   -0.26864  -0.26766  -0.25266  -0.24572  -0.21239
 Alpha  occ. eigenvalues --   -0.19358
 Alpha virt. eigenvalues --   -0.06910  -0.03079  -0.00110   0.03080   0.03510
 Alpha virt. eigenvalues --    0.03959   0.04333   0.04992   0.05607   0.06010
 Alpha virt. eigenvalues --    0.06133   0.08197   0.08852   0.09266   0.09371

 Mulliken charges:
               1
     1  Mg   0.825874
     2  C    0.040204
     3  C   -0.199551
     4  C   -0.195336
     5  C   -0.133649
     6  N   -0.630727
     7  C    0.307285
     8  C   -0.146871
     9  C   -0.154542
    10  C    0.372294
    11  C   -0.310861
    12  C   -0.153990
    13  C   -0.270193
    14  C    0.614816
    15  O   -0.477843
    16  O   -0.428196
    17  N   -0.673656
    18  C    0.280986
    19  C    0.028395
    20  C   -0.003806
    21  C    0.278423
    22  C   -0.380193
    23  C   -0.068450
    24  C   -0.222715
    25  N   -0.684329
    26  C    0.311818
    27  C    0.014198
    28  C   -0.037461
    29  C    0.300881
    30  C   -0.343881
    31  C   -0.249871
    32  C   -0.314611
    33  N   -0.713281
    34  C    0.221492
    35  C    0.106702
    36  C    0.026153
    37  C    0.289115
    38  C   -0.432167
    39  C    0.336776
    40  O   -0.386179
    41  C   -0.340095
    42  C    0.633199
    43  O   -0.507117
    44  O   -0.451117
    45  C   -0.072505
    46  C   -0.011030
    47  C   -0.151412
    48  C    0.109937
    49  C   -0.363313
    50  C   -0.214328
    51  C   -0.178769
    52  C   -0.156894
    53  C   -0.049342
    54  C   -0.310911
    55  C   -0.137318
    56  C   -0.175558
    57  C   -0.151454
    58  C   -0.067024
    59  C   -0.330731
    60  C   -0.136868
    61  C   -0.180797
    62  C   -0.158050
    63  C   -0.059422
    64  C   -0.293751
    65  C   -0.306414
    66  H    0.074736
    67  H    0.082627
    68  H    0.079812
    69  H    0.131342
    70  H    0.110900
    71  H    0.094301
    72  H    0.107521
    73  H    0.120640
    74  H    0.090962
    75  H    0.116253
    76  H    0.110750
    77  H    0.131228
    78  H    0.106317
    79  H    0.117603
    80  H    0.105944
    81  H    0.073318
    82  H    0.094481
    83  H    0.098703
    84  H    0.132184
    85  H    0.093468
    86  H    0.147002
    87  H    0.111786
    88  H    0.090498
    89  H    0.107652
    90  H    0.121684
    91  H    0.111624
    92  H    0.146563
    93  H    0.137955
    94  H    0.106010
    95  H    0.156892
    96  H    0.088038
    97  H    0.156486
    98  H    0.132361
    99  H    0.123717
   100  H    0.143617
   101  H    0.078701
   102  H    0.119815
   103  H    0.111767
   104  H    0.123749
   105  H    0.119474
   106  H    0.109684
   107  H    0.085315
   108  H    0.094213
   109  H    0.074952
   110  H    0.087516
   111  H    0.071095
   112  H    0.073370
   113  H    0.115819
   114  H    0.109973
   115  H    0.065554
   116  H    0.054224
   117  H    0.116373
   118  H    0.083668
   119  H    0.047817
   120  H    0.094110
   121  H    0.034649
   122  H    0.101722
   123  H    0.104592
   124  H    0.098174
   125  H    0.108244
   126  H    0.097358
   127  H    0.098964
   128  H    0.076968
   129  H    0.074868
   130  H    0.089524
   131  H    0.062115
   132  H    0.097311
   133  H    0.098402
   134  H    0.097692
   135  H    0.080280
   136  H    0.094675
   137  H    0.110333
 Sum of Mulliken charges =  -0.00000

 Dipole moment (field-independent basis, Debye):
    X=              2.7835    Y=              1.1121    Z=             -0.0527  Tot=              2.9979
 Quadrupole moment (field-independent basis, Debye-Ang):
   XX=           -356.5164   YY=           -394.9606   ZZ=           -398.3426
   XY=             -8.5253   XZ=             14.4461   YZ=             -0.1341

 Normal termination of Gaussian 16 at Sat Sep  7 18:30:35 2019.
