 Gaussian 16, Revision A.03,
 Gaussian 16:  ES64L-G16RevA.03 25-Dec-2016

 ----------------------------------------------------------------------
 # td=(NStates=1) iop(3/107=0140000000,3/108=0140000000) CAM-B3LYP/6-31
 G(d,p)
 ----------------------------------------------------------------------

 --
 TD
 --
 Symbolic Z-matrix:
 Charge =  0 Multiplicity = 1

                         Standard orientation:
 ---------------------------------------------------------------------
 Center     Atomic      Atomic             Coordinates (Angstroms)
 Number     Number       Type             X           Y           Z
 ---------------------------------------------------------------------
      1         12           0       -7.171479    0.635334    0.082621
      2          6           0       -4.804478   -1.975793    0.537929
      3          6           0       -4.869393    2.806785    1.261623
      4          6           0       -9.427997    3.119698   -0.494200
      5          6           0       -9.551276   -1.646408   -0.892290
      6          7           0       -5.088584    0.394319    0.705344
      7          6           0       -4.265855   -0.705581    0.868193
      8          6           0       -2.923589   -0.322719    1.236943
      9          6           0       -3.022563    1.084812    1.775382
     10          6           0       -4.435403    1.483259    1.249859
     11          6           0       -2.961504    1.121632    3.330577
     12          6           0       -1.880885   -0.479377    0.061545
     13          6           0       -0.432238   -0.398658    0.451556
     14          6           0        0.455150   -0.682288   -0.707688
     15          8           0        0.224925   -0.962478   -1.861880
     16          8           0        1.797236   -0.434725   -0.305755
     17          7           0       -7.187408    2.549473    0.276683
     18          6           0       -6.034860    3.334066    0.662487
     19          6           0       -6.441845    4.737788    0.700816
     20          6           0       -7.769830    4.793455    0.314438
     21          6           0       -8.141602    3.447230   -0.027532
     22          6           0       -5.486698    5.893137    1.059523
     23          6           0       -8.478337    6.024524    0.149348
     24          6           0       -8.505656    7.172547    0.841789
     25          7           0       -9.142263    0.758336   -0.503077
     26          6           0       -9.984235    1.843418   -0.778248
     27          6           0      -11.292578    1.457412   -1.138224
     28          6           0      -11.275122    0.091936   -1.238366
     29          6           0       -9.954148   -0.366179   -0.823049
     30          6           0      -12.391894    2.405256   -1.547916
     31          6           0      -12.469204   -0.783479   -1.525435
     32          6           0      -12.391203   -1.083738   -3.119775
     33          7           0       -7.247889   -1.393684   -0.062343
     34          6           0       -8.265180   -2.200203   -0.448210
     35          6           0       -7.766291   -3.616360   -0.562334
     36          6           0       -6.499574   -3.587820   -0.049524
     37          6           0       -6.149329   -2.248415    0.163951
     38          6           0       -8.557165   -4.903660   -0.785524
     39          6           0       -5.283713   -4.401673    0.210763
     40          8           0       -5.134978   -5.579039    0.116002
     41          6           0       -4.096539   -3.349906    0.562045
     42          6           0       -3.514303   -3.609879    1.912425
     43          8           0       -3.707626   -3.015066    2.999421
     44          8           0       -2.621702   -4.711688    1.721616
     45          6           0       -2.028768   -5.179428    2.839331
     46          6           0        2.759179   -0.776474   -1.286873
     47          6           0        4.123884   -0.647797   -0.661365
     48          6           0        5.104172    0.258441   -0.942206
     49          6           0        5.121274    1.088215   -2.241235
     50          6           0        6.270695    0.331809   -0.192964
     51          6           0        7.542621   -0.177366   -0.984196
     52          6           0        8.944280   -0.028289   -0.198751
     53          6           0       10.183775   -0.476085   -0.776639
     54          6           0       10.115195   -2.006805   -1.205740
     55          6           0       11.403045   -0.146413    0.077900
     56          6           0       12.867032   -0.488719   -0.668483
     57          6           0       14.066746   -0.136020    0.189170
     58          6           0       15.452064   -0.308889   -0.449541
     59          6           0       15.804035   -1.737721   -0.887133
     60          6           0       16.421692    0.388269    0.498136
     61          6           0       17.878333    0.522155   -0.138231
     62          6           0       18.723065    1.380233    0.684384
     63          6           0       20.193244    1.410207    0.253449
     64          6           0       20.342240    2.189461   -1.081814
     65          6           0       21.084544    2.049812    1.233540
     66          1           0       -4.320430    3.491669    1.873454
     67          1           0      -10.358588    3.790770   -0.488986
     68          1           0      -10.323260   -2.353372   -1.263686
     69          1           0       -2.439537   -0.983406    2.104898
     70          1           0       -2.267441    1.745651    1.429594
     71          1           0       -2.079785    0.864641    3.555096
     72          1           0       -3.120889    2.032726    3.742772
     73          1           0       -3.680415    0.461083    3.600838
     74          1           0       -2.138828   -1.387106   -0.582756
     75          1           0       -2.340895    0.460722   -0.487023
     76          1           0       -0.226832    0.595957    0.823007
     77          1           0       -0.190190   -0.917072    1.412514
     78          1           0       -5.833161    6.718500    0.448101
     79          1           0       -5.590786    6.210838    2.119134
     80          1           0       -4.456468    5.583204    0.892391
     81          1           0       -9.294726    5.757219   -0.638598
     82          1           0       -9.307541    8.000813    0.481365
     83          1           0       -7.726141    7.487825    1.763188
     84          1           0      -11.892122    3.288677   -2.112392
     85          1           0      -13.226721    1.744845   -1.944001
     86          1           0      -12.819388    2.918404   -0.479465
     87          1           0      -12.368890   -1.805694   -1.103949
     88          1           0      -13.131657   -0.167454   -1.236108
     89          1           0      -13.253583   -1.706950   -3.258022
     90          1           0      -12.676874   -0.013374   -3.500779
     91          1           0      -11.307038   -1.591156   -3.532573
     92          1           0       -8.928206   -4.877601   -1.884134
     93          1           0       -7.770522   -5.803470   -0.931837
     94          1           0       -9.379270   -5.222296   -0.259138
     95          1           0       -3.214258   -3.526265   -0.004087
     96          1           0       -1.427401   -4.524962    3.329299
     97          1           0       -2.772975   -5.681830    3.437085
     98          1           0       -1.333200   -5.933113    2.634999
     99          1           0        2.604366   -1.824953   -1.822407
    100          1           0        2.800974    0.084021   -1.970886
    101          1           0        4.278701   -1.133054    0.302070
    102          1           0        4.324663    1.266537   -2.894623
    103          1           0        5.374628    2.032792   -1.959065
    104          1           0        6.003901    0.754724   -2.833744
    105          1           0        6.644629    1.406305    0.286494
    106          1           0        6.106083   -0.343346    0.650644
    107          1           0        7.316517   -1.313127   -1.417858
    108          1           0        7.616913    0.486058   -1.963820
    109          1           0        8.995216    1.155789    0.129628
    110          1           0        8.778030   -0.567856    0.890278
    111          1           0       10.213247    0.196590   -1.631006
    112          1           0        9.175804   -2.136262   -1.840336
    113          1           0       11.203096   -2.288483   -1.777283
    114          1           0        9.945826   -2.668578   -0.234258
    115          1           0       11.357927    1.056425    0.270476
    116          1           0       11.333765   -0.680522    1.063838
    117          1           0       12.886576   -1.576023   -1.080088
    118          1           0       13.035875    0.189820   -1.514472
    119          1           0       13.762418    0.741604    0.551526
    120          1           0       14.173489   -0.761780    1.155383
    121          1           0       15.350574    0.124723   -1.523729
    122          1           0       15.903020   -2.389345   -0.149643
    123          1           0       15.039218   -1.978088   -1.581332
    124          1           0       16.921908   -1.869831   -1.305616
    125          1           0       15.956216    1.309681    0.564986
    126          1           0       16.387809   -0.121927    1.389559
    127          1           0       18.348921   -0.448763   -0.151954
    128          1           0       17.786374    0.831071   -1.233666
    129          1           0       18.289262    2.431769    0.730776
    130          1           0       18.480879    1.168131    1.634747
    131          1           0       20.350043    0.474601    0.231708
    132          1           0       20.356648    3.338142   -0.818431
    133          1           0       21.293880    2.077646   -1.477844
    134          1           0       19.640887    1.974159   -1.801378
    135          1           0       21.162599    1.498965    2.158815
    136          1           0       22.160593    1.816930    0.841241
    137          1           0       21.076429    3.087373    1.286455
 ---------------------------------------------------------------------

 SCF Done:  E(RCAM-B3LYP) =  -2933.46608912     A.U. after   16 cycles

 Excitation energies and oscillator strengths:

 Excited State   1:      Singlet-A      1.9577 eV  633.33 nm  f=0.2506  <S**2>=0.000
     240 -> 243       -0.24180
     241 -> 242        0.66287
 This state for optimization and/or second-order correction.
 Total Energy, E(TD-HF/TD-DFT) =  -2933.39414655
 Copying the excited state density for this state as the 1-particle RhoCI density.

 The electronic state is 1-A.
 Alpha  occ. eigenvalues --  -46.79399 -19.21533 -19.20972 -19.18081 -19.17820
 Alpha  occ. eigenvalues --  -19.17179 -14.38232 -14.35661 -14.35539 -14.34644
 Alpha  occ. eigenvalues --  -10.35373 -10.35287 -10.31488 -10.27274 -10.26545
 Alpha  occ. eigenvalues --  -10.26304 -10.25810 -10.25699 -10.25579 -10.25069
 Alpha  occ. eigenvalues --  -10.24591 -10.24522 -10.24513 -10.24510 -10.24410
 Alpha  occ. eigenvalues --  -10.24301 -10.24086 -10.24057 -10.23994 -10.23978
 Alpha  occ. eigenvalues --  -10.23832 -10.23679 -10.23653 -10.23542 -10.23332
 Alpha  occ. eigenvalues --  -10.23318 -10.23279 -10.23106 -10.23087 -10.22859
 Alpha  occ. eigenvalues --  -10.22713 -10.22702 -10.22597 -10.22218 -10.22164
 Alpha  occ. eigenvalues --  -10.22123 -10.22098 -10.22067 -10.22045 -10.21936
 Alpha  occ. eigenvalues --  -10.21841 -10.21685 -10.21526 -10.21098 -10.21042
 Alpha  occ. eigenvalues --  -10.20259 -10.19974 -10.19809 -10.19477 -10.19346
 Alpha  occ. eigenvalues --  -10.19340 -10.19299 -10.19273 -10.18449 -10.18434
 Alpha  occ. eigenvalues --   -3.08144  -1.83064  -1.82636  -1.82554  -1.12153
 Alpha  occ. eigenvalues --   -1.11804  -1.08206  -1.04431  -1.03892  -0.99029
 Alpha  occ. eigenvalues --   -0.97771  -0.97738  -0.96129  -0.87198  -0.86738
 Alpha  occ. eigenvalues --   -0.85899  -0.85853  -0.84760  -0.84461  -0.84028
 Alpha  occ. eigenvalues --   -0.83874  -0.83355  -0.82841  -0.82114  -0.81197
 Alpha  occ. eigenvalues --   -0.79696  -0.79259  -0.78736  -0.77960  -0.77384
 Alpha  occ. eigenvalues --   -0.76589  -0.76344  -0.75843  -0.74686  -0.74189
 Alpha  occ. eigenvalues --   -0.73136  -0.72176  -0.71957  -0.71598  -0.71501
 Alpha  occ. eigenvalues --   -0.71029  -0.70432  -0.69052  -0.68616  -0.67968
 Alpha  occ. eigenvalues --   -0.67022  -0.66206  -0.65567  -0.64638  -0.64213
 Alpha  occ. eigenvalues --   -0.62593  -0.62186  -0.61080  -0.60893  -0.60486
 Alpha  occ. eigenvalues --   -0.60061  -0.59838  -0.58798  -0.58501  -0.57636
 Alpha  occ. eigenvalues --   -0.57027  -0.56552  -0.56449  -0.55499  -0.55119
 Alpha  occ. eigenvalues --   -0.54483  -0.54023  -0.53559  -0.53417  -0.53178
 Alpha  occ. eigenvalues --   -0.52408  -0.51682  -0.51462  -0.51273  -0.51062
 Alpha  occ. eigenvalues --   -0.50849  -0.50403  -0.50093  -0.50031  -0.49549
 Alpha  occ. eigenvalues --   -0.49173  -0.49014  -0.48739  -0.48566  -0.48099
 Alpha  occ. eigenvalues --   -0.47715  -0.47162  -0.46997  -0.46817  -0.46604
 Alpha  occ. eigenvalues --   -0.46346  -0.46267  -0.46178  -0.45889  -0.45694
 Alpha  occ. eigenvalues --   -0.45651  -0.45220  -0.45095  -0.45024  -0.44907
 Alpha  occ. eigenvalues --   -0.44840  -0.44565  -0.44474  -0.44277  -0.43842
 Alpha  occ. eigenvalues --   -0.43666  -0.43539  -0.43347  -0.43140  -0.42930
 Alpha  occ. eigenvalues --   -0.42662  -0.42418  -0.42100  -0.41883  -0.41485
 Alpha  occ. eigenvalues --   -0.41261  -0.41195  -0.40918  -0.40824  -0.40579
 Alpha  occ. eigenvalues --   -0.40455  -0.40218  -0.39967  -0.39934  -0.39808
 Alpha  occ. eigenvalues --   -0.39758  -0.39657  -0.39586  -0.39297  -0.39191
 Alpha  occ. eigenvalues --   -0.38630  -0.38402  -0.38117  -0.38081  -0.37970
 Alpha  occ. eigenvalues --   -0.37698  -0.37412  -0.37323  -0.37062  -0.37046
 Alpha  occ. eigenvalues --   -0.36955  -0.36885  -0.36851  -0.36378  -0.36253
 Alpha  occ. eigenvalues --   -0.35981  -0.35943  -0.35676  -0.35280  -0.34895
 Alpha  occ. eigenvalues --   -0.34429  -0.34356  -0.34005  -0.33591  -0.33576
 Alpha  occ. eigenvalues --   -0.33230  -0.32992  -0.32858  -0.32781  -0.32672
 Alpha  occ. eigenvalues --   -0.32479  -0.32178  -0.31826  -0.31441  -0.31122
 Alpha  occ. eigenvalues --   -0.30592  -0.29929  -0.29707  -0.28421  -0.27591
 Alpha  occ. eigenvalues --   -0.27166  -0.26353  -0.25636  -0.25070  -0.21578
 Alpha  occ. eigenvalues --   -0.19827
 Alpha virt. eigenvalues --   -0.07241  -0.04057  -0.00495   0.01866   0.02418
 Alpha virt. eigenvalues --    0.02712   0.03376   0.04459   0.04890   0.05513
 Alpha virt. eigenvalues --    0.05862   0.07668   0.08935   0.09072   0.09606

 Mulliken charges:
               1
     1  Mg   0.822854
     2  C    0.050413
     3  C   -0.202072
     4  C   -0.205736
     5  C   -0.180432
     6  N   -0.616387
     7  C    0.335899
     8  C   -0.182209
     9  C   -0.160679
    10  C    0.333299
    11  C   -0.293848
    12  C   -0.164427
    13  C   -0.272156
    14  C    0.622481
    15  O   -0.449254
    16  O   -0.495118
    17  N   -0.714365
    18  C    0.269350
    19  C    0.001068
    20  C    0.036735
    21  C    0.344192
    22  C   -0.372527
    23  C   -0.065421
    24  C   -0.255749
    25  N   -0.683263
    26  C    0.277683
    27  C    0.051380
    28  C    0.015774
    29  C    0.323824
    30  C   -0.363405
    31  C   -0.232032
    32  C   -0.304238
    33  N   -0.695525
    34  C    0.270715
    35  C   -0.024523
    36  C    0.062603
    37  C    0.249969
    38  C   -0.389592
    39  C    0.379920
    40  O   -0.424274
    41  C   -0.324913
    42  C    0.617121
    43  O   -0.472944
    44  O   -0.452211
    45  C   -0.072883
    46  C    0.040843
    47  C   -0.148755
    48  C    0.162588
    49  C   -0.383468
    50  C   -0.226221
    51  C   -0.171449
    52  C   -0.149116
    53  C   -0.032123
    54  C   -0.293558
    55  C   -0.169599
    56  C   -0.195468
    57  C   -0.157013
    58  C   -0.075135
    59  C   -0.302418
    60  C   -0.171338
    61  C   -0.180898
    62  C   -0.161660
    63  C   -0.021045
    64  C   -0.311383
    65  C   -0.315338
    66  H    0.086818
    67  H    0.080790
    68  H    0.079506
    69  H    0.100733
    70  H    0.101238
    71  H    0.112495
    72  H    0.108393
    73  H    0.138026
    74  H    0.121343
    75  H    0.102563
    76  H    0.153388
    77  H    0.144569
    78  H    0.130302
    79  H    0.121009
    80  H    0.115416
    81  H    0.081083
    82  H    0.098549
    83  H    0.093761
    84  H    0.131283
    85  H    0.111683
    86  H    0.093614
    87  H    0.114292
    88  H    0.109011
    89  H    0.115885
    90  H    0.100658
    91  H    0.106284
    92  H    0.100707
    93  H    0.126248
    94  H    0.140989
    95  H    0.164029
    96  H    0.113278
    97  H    0.114231
    98  H    0.113103
    99  H    0.113443
   100  H    0.106440
   101  H    0.072650
   102  H    0.118334
   103  H    0.122613
   104  H    0.117456
   105  H    0.079977
   106  H    0.104983
   107  H    0.078478
   108  H    0.082696
   109  H    0.061694
   110  H    0.053660
   111  H    0.091508
   112  H    0.104533
   113  H    0.082943
   114  H    0.091908
   115  H    0.066335
   116  H    0.094985
   117  H    0.083739
   118  H    0.096993
   119  H    0.102142
   120  H    0.064785
   121  H    0.062065
   122  H    0.109096
   123  H    0.104994
   124  H    0.078629
   125  H    0.104032
   126  H    0.098474
   127  H    0.088276
   128  H    0.084546
   129  H    0.063279
   130  H    0.090854
   131  H    0.085062
   132  H    0.081842
   133  H    0.108077
   134  H    0.106774
   135  H    0.098434
   136  H    0.072977
   137  H    0.112472
 Sum of Mulliken charges =  -0.00000

 Dipole moment (field-independent basis, Debye):
    X=              0.4635    Y=              3.9647    Z=              0.7685  Tot=              4.0650
 Quadrupole moment (field-independent basis, Debye-Ang):
   XX=           -339.2047   YY=           -397.0941   ZZ=           -401.0679
   XY=            -17.5525   XZ=             15.7703   YZ=              1.1386

 Normal termination of Gaussian 16 at Sat Sep 14 20:14:55 2019.
