 Gaussian 16, Revision A.03,
 Gaussian 16:  ES64L-G16RevA.03 25-Dec-2016

 ----------------------------------------------------------------------
 # td=(NStates=1) iop(3/107=0140000000,3/108=0140000000) CAM-B3LYP/6-31
 G(d,p)
 ----------------------------------------------------------------------

 --
 TD
 --
 Symbolic Z-matrix:
 Charge =  0 Multiplicity = 1

                         Standard orientation:
 ---------------------------------------------------------------------
 Center     Atomic      Atomic             Coordinates (Angstroms)
 Number     Number       Type             X           Y           Z
 ---------------------------------------------------------------------
      1         12           0       -7.129433    0.625973    0.110258
      2          6           0       -4.890149   -1.989752    0.563059
      3          6           0       -4.749575    2.749306    1.185326
      4          6           0       -9.404552    3.152893   -0.515322
      5          6           0       -9.580410   -1.758637   -0.930624
      6          7           0       -5.015941    0.405785    0.739777
      7          6           0       -4.381201   -0.696938    0.890269
      8          6           0       -2.903743   -0.427432    1.302368
      9          6           0       -3.008005    1.031701    1.746659
     10          6           0       -4.314256    1.496501    1.234612
     11          6           0       -2.764841    1.181099    3.305145
     12          6           0       -1.957704   -0.616758    0.057771
     13          6           0       -0.507140   -0.538903    0.622298
     14          6           0        0.532304   -0.754997   -0.574919
     15          8           0        0.187501   -1.059261   -1.666705
     16          8           0        1.749552   -0.340058   -0.188621
     17          7           0       -7.054307    2.653150    0.362850
     18          6           0       -6.063178    3.370859    0.832667
     19          6           0       -6.347538    4.758651    0.854911
     20          6           0       -7.709360    4.845146    0.381673
     21          6           0       -8.182517    3.505279    0.060899
     22          6           0       -5.515478    5.835449    1.450459
     23          6           0       -8.448721    6.043357    0.198231
     24          6           0       -8.342743    7.303007    0.767435
     25          7           0       -9.113968    0.696098   -0.696915
     26          6           0       -9.798358    1.853992   -0.847248
     27          6           0      -11.155507    1.502584   -1.370862
     28          6           0      -11.235057    0.175994   -1.473183
     29          6           0       -9.877221   -0.329810   -1.064316
     30          6           0      -12.294345    2.530707   -1.502940
     31          6           0      -12.303669   -0.577102   -1.875875
     32          6           0      -12.166783   -1.146558   -3.338375
     33          7           0       -7.192523   -1.374997   -0.293106
     34          6           0       -8.278930   -2.275120   -0.478494
     35          6           0       -7.907022   -3.619280   -0.317993
     36          6           0       -6.575431   -3.577190    0.053474
     37          6           0       -6.225662   -2.222253    0.088740
     38          6           0       -8.645353   -4.823425   -0.652276
     39          6           0       -5.410091   -4.471093    0.214389
     40          8           0       -5.289881   -5.663180    0.046685
     41          6           0       -4.181326   -3.355215    0.635175
     42          6           0       -3.581039   -3.666369    1.900851
     43          8           0       -3.622562   -2.983905    2.944965
     44          8           0       -2.903874   -4.834249    1.789999
     45          6           0       -2.315712   -5.335734    2.927236
     46          6           0        2.822217   -0.501423   -1.149202
     47          6           0        4.135150   -0.279922   -0.482343
     48          6           0        5.251996    0.425181   -0.980621
     49          6           0        5.197674    1.153811   -2.312514
     50          6           0        6.455615    0.434805   -0.156072
     51          6           0        7.604283   -0.178928   -0.939544
     52          6           0        8.891564   -0.211298   -0.067512
     53          6           0       10.250037   -0.616819   -0.913401
     54          6           0       10.064908   -1.928124   -1.379480
     55          6           0       11.445586   -0.331358    0.029669
     56          6           0       12.750220   -0.449759   -0.708691
     57          6           0       13.941269   -0.007585    0.148480
     58          6           0       15.360012   -0.135149   -0.421126
     59          6           0       15.494888   -1.597705   -0.866974
     60          6           0       16.446273    0.263976    0.528857
     61          6           0       17.793584    0.582099   -0.267018
     62          6           0       18.754646    1.355082    0.604379
     63          6           0       20.258002    1.301388    0.158124
     64          6           0       20.401530    1.957366   -1.175677
     65          6           0       21.181928    1.975817    1.253284
     66          1           0       -4.254331    3.597854    1.600972
     67          1           0       -9.965972    3.859776   -0.416391
     68          1           0      -10.427125   -2.610441   -1.123861
     69          1           0       -2.641658   -1.043284    2.129725
     70          1           0       -2.142808    1.691927    1.376390
     71          1           0       -1.899656    0.918315    3.657282
     72          1           0       -2.801188    2.309015    3.545391
     73          1           0       -3.490890    0.532293    3.821537
     74          1           0       -2.199182   -1.429549   -0.548164
     75          1           0       -2.063487    0.268515   -0.656407
     76          1           0       -0.287214    0.362416    1.112858
     77          1           0       -0.247820   -1.290006    1.574947
     78          1           0       -5.423909    6.903634    1.112899
     79          1           0       -5.946211    6.012959    2.457259
     80          1           0       -4.420535    5.596846    1.524220
     81          1           0       -9.487384    5.917206   -0.484963
     82          1           0       -9.051031    8.151967    0.442269
     83          1           0       -7.610173    7.408225    1.587417
     84          1           0      -12.045546    3.305444   -2.319911
     85          1           0      -13.324379    2.079774   -1.698785
     86          1           0      -12.532578    3.075213   -0.688289
     87          1           0      -12.813939   -1.486623   -1.273349
     88          1           0      -13.272487    0.069757   -2.184629
     89          1           0      -13.067799   -1.585811   -3.592987
     90          1           0      -12.007834   -0.365532   -4.000443
     91          1           0      -11.499640   -1.988209   -3.388366
     92          1           0       -8.788129   -4.903491   -1.674081
     93          1           0       -8.204058   -5.709310   -0.607626
     94          1           0       -9.570625   -4.990347   -0.071342
     95          1           0       -3.560312   -3.174500   -0.328878
     96          1           0       -1.636807   -4.638330    3.516746
     97          1           0       -3.231778   -5.626813    3.516471
     98          1           0       -2.048965   -6.322371    2.523438
     99          1           0        2.899027   -1.553010   -1.662767
    100          1           0        2.697615    0.167089   -2.004786
    101          1           0        4.163371   -0.732670    0.508140
    102          1           0        4.073894    1.119085   -2.845331
    103          1           0        5.395629    2.222357   -2.009156
    104          1           0        5.942095    0.774612   -2.988200
    105          1           0        6.644785    1.540836    0.346253
    106          1           0        6.247010   -0.185592    0.710669
    107          1           0        7.393563   -1.118044   -1.240193
    108          1           0        7.761072    0.487832   -1.868076
    109          1           0        9.331409    0.677562    0.241680
    110          1           0        8.734904   -0.849158    0.823118
    111          1           0       10.490282    0.193695   -1.781607
    112          1           0        9.261918   -2.094011   -2.078930
    113          1           0       10.919901   -2.215734   -1.946856
    114          1           0       10.013336   -2.763337   -0.599390
    115          1           0       11.323101    0.645748    0.452441
    116          1           0       11.595097   -1.128282    0.782115
    117          1           0       12.739563   -1.735633   -0.837545
    118          1           0       12.587600   -0.115647   -1.741477
    119          1           0       14.072626    1.038939    0.506437
    120          1           0       13.741294   -0.661864    1.060572
    121          1           0       15.351444    0.450982   -1.433514
    122          1           0       14.918143   -2.371223   -0.005906
    123          1           0       14.818379   -1.764851   -1.771787
    124          1           0       16.436332   -1.927793   -1.171893
    125          1           0       16.195340    1.193947    1.166769
    126          1           0       16.569991   -0.539567    1.477357
    127          1           0       18.236686   -0.327153   -0.473716
    128          1           0       17.709611    1.113812   -1.205752
    129          1           0       18.431071    2.441333    0.820037
    130          1           0       18.757165    0.795764    1.577345
    131          1           0       20.562108    0.257555    0.024530
    132          1           0       19.833137    3.014183   -1.025634
    133          1           0       21.487346    1.917896   -1.684616
    134          1           0       19.693469    1.558011   -2.040377
    135          1           0       21.116589    1.086721    2.181052
    136          1           0       22.044277    2.208168    0.776705
    137          1           0       20.933329    2.961740    1.595986
 ---------------------------------------------------------------------

 SCF Done:  E(RCAM-B3LYP) =  -2933.47192808     A.U. after   16 cycles

 Excitation energies and oscillator strengths:

 Excited State   1:      Singlet-A      1.9487 eV  636.25 nm  f=0.3333  <S**2>=0.000
     240 -> 243       -0.20771
     241 -> 242        0.66983
 This state for optimization and/or second-order correction.
 Total Energy, E(TD-HF/TD-DFT) =  -2933.40031577
 Copying the excited state density for this state as the 1-particle RhoCI density.

 The electronic state is 1-A.
 Alpha  occ. eigenvalues --  -46.81389 -19.22517 -19.21699 -19.17904 -19.16981
 Alpha  occ. eigenvalues --  -19.16552 -14.36993 -14.35983 -14.35438 -14.35140
 Alpha  occ. eigenvalues --  -10.34462 -10.34306 -10.32071 -10.27835 -10.26735
 Alpha  occ. eigenvalues --  -10.25887 -10.25737 -10.25549 -10.25330 -10.25215
 Alpha  occ. eigenvalues --  -10.25055 -10.24938 -10.24915 -10.24543 -10.24311
 Alpha  occ. eigenvalues --  -10.23982 -10.23799 -10.23619 -10.23246 -10.23210
 Alpha  occ. eigenvalues --  -10.23008 -10.22988 -10.22800 -10.22665 -10.22615
 Alpha  occ. eigenvalues --  -10.22557 -10.22541 -10.22454 -10.22446 -10.22426
 Alpha  occ. eigenvalues --  -10.22377 -10.22341 -10.22282 -10.22158 -10.21969
 Alpha  occ. eigenvalues --  -10.21933 -10.21880 -10.21696 -10.21631 -10.21589
 Alpha  occ. eigenvalues --  -10.21441 -10.21297 -10.21202 -10.21137 -10.21128
 Alpha  occ. eigenvalues --  -10.21110 -10.21099 -10.20921 -10.20474 -10.20409
 Alpha  occ. eigenvalues --  -10.20336 -10.20315 -10.19922 -10.19497 -10.19104
 Alpha  occ. eigenvalues --   -3.09675  -1.84637  -1.84147  -1.84058  -1.13573
 Alpha  occ. eigenvalues --   -1.13467  -1.07368  -1.05785  -1.03447  -1.00187
 Alpha  occ. eigenvalues --   -0.99210  -0.98549  -0.97505  -0.86370  -0.86358
 Alpha  occ. eigenvalues --   -0.85534  -0.84827  -0.84556  -0.84211  -0.84004
 Alpha  occ. eigenvalues --   -0.83695  -0.83122  -0.82811  -0.82024  -0.80590
 Alpha  occ. eigenvalues --   -0.79875  -0.79044  -0.78670  -0.77891  -0.77559
 Alpha  occ. eigenvalues --   -0.76596  -0.76483  -0.75731  -0.75512  -0.73727
 Alpha  occ. eigenvalues --   -0.72702  -0.72388  -0.71658  -0.71263  -0.70858
 Alpha  occ. eigenvalues --   -0.70396  -0.70116  -0.69074  -0.68660  -0.68104
 Alpha  occ. eigenvalues --   -0.67340  -0.66067  -0.65516  -0.64266  -0.63773
 Alpha  occ. eigenvalues --   -0.62623  -0.62509  -0.60956  -0.60898  -0.60196
 Alpha  occ. eigenvalues --   -0.59936  -0.59417  -0.58469  -0.58161  -0.58071
 Alpha  occ. eigenvalues --   -0.56913  -0.56321  -0.55980  -0.55535  -0.55213
 Alpha  occ. eigenvalues --   -0.54655  -0.54604  -0.54066  -0.53160  -0.52270
 Alpha  occ. eigenvalues --   -0.51908  -0.51678  -0.51395  -0.51200  -0.51067
 Alpha  occ. eigenvalues --   -0.50288  -0.49987  -0.49901  -0.49609  -0.49521
 Alpha  occ. eigenvalues --   -0.49065  -0.48586  -0.48337  -0.48282  -0.48105
 Alpha  occ. eigenvalues --   -0.47885  -0.47474  -0.47421  -0.47270  -0.47075
 Alpha  occ. eigenvalues --   -0.46441  -0.46314  -0.46179  -0.46085  -0.45931
 Alpha  occ. eigenvalues --   -0.45596  -0.45337  -0.45160  -0.44998  -0.44839
 Alpha  occ. eigenvalues --   -0.44642  -0.44480  -0.44255  -0.44155  -0.43794
 Alpha  occ. eigenvalues --   -0.43471  -0.43173  -0.43024  -0.42897  -0.42663
 Alpha  occ. eigenvalues --   -0.42410  -0.42261  -0.42139  -0.41800  -0.41638
 Alpha  occ. eigenvalues --   -0.41585  -0.41181  -0.41133  -0.40904  -0.40779
 Alpha  occ. eigenvalues --   -0.40424  -0.40198  -0.40151  -0.39756  -0.39692
 Alpha  occ. eigenvalues --   -0.39380  -0.39220  -0.39196  -0.39117  -0.38656
 Alpha  occ. eigenvalues --   -0.38547  -0.38335  -0.38226  -0.37967  -0.37904
 Alpha  occ. eigenvalues --   -0.37806  -0.37621  -0.37469  -0.37345  -0.36876
 Alpha  occ. eigenvalues --   -0.36764  -0.36600  -0.36435  -0.36122  -0.35693
 Alpha  occ. eigenvalues --   -0.35637  -0.35300  -0.35225  -0.35062  -0.34631
 Alpha  occ. eigenvalues --   -0.34047  -0.33942  -0.33752  -0.33699  -0.33411
 Alpha  occ. eigenvalues --   -0.33387  -0.33240  -0.33161  -0.32221  -0.32210
 Alpha  occ. eigenvalues --   -0.31945  -0.31806  -0.31421  -0.30563  -0.30467
 Alpha  occ. eigenvalues --   -0.29914  -0.29398  -0.29246  -0.28444  -0.27488
 Alpha  occ. eigenvalues --   -0.27327  -0.26209  -0.25512  -0.23706  -0.21432
 Alpha  occ. eigenvalues --   -0.19828
 Alpha virt. eigenvalues --   -0.07701  -0.03607   0.00024   0.02040   0.02903
 Alpha virt. eigenvalues --    0.03519   0.04112   0.04710   0.05344   0.05661
 Alpha virt. eigenvalues --    0.06971   0.08831   0.09170   0.09328   0.09676

 Mulliken charges:
               1
     1  Mg   0.822351
     2  C    0.003283
     3  C   -0.177037
     4  C   -0.054981
     5  C   -0.179712
     6  N   -0.629714
     7  C    0.331633
     8  C   -0.148537
     9  C   -0.172197
    10  C    0.391544
    11  C   -0.312307
    12  C   -0.163030
    13  C   -0.266251
    14  C    0.599412
    15  O   -0.442531
    16  O   -0.457417
    17  N   -0.729201
    18  C    0.306468
    19  C    0.046124
    20  C    0.012214
    21  C    0.251543
    22  C   -0.409096
    23  C   -0.094858
    24  C   -0.256525
    25  N   -0.675567
    26  C    0.289312
    27  C    0.012202
    28  C    0.145167
    29  C    0.285216
    30  C   -0.381826
    31  C   -0.331755
    32  C   -0.313750
    33  N   -0.710983
    34  C    0.235846
    35  C    0.053785
    36  C    0.022853
    37  C    0.313909
    38  C   -0.391518
    39  C    0.357315
    40  O   -0.432135
    41  C   -0.338784
    42  C    0.636219
    43  O   -0.497578
    44  O   -0.423667
    45  C   -0.088101
    46  C    0.014022
    47  C   -0.145785
    48  C    0.130129
    49  C   -0.359056
    50  C   -0.218352
    51  C   -0.174363
    52  C   -0.173851
    53  C   -0.059245
    54  C   -0.304548
    55  C   -0.167658
    56  C   -0.179873
    57  C   -0.152619
    58  C   -0.041845
    59  C   -0.285415
    60  C   -0.174981
    61  C   -0.169488
    62  C   -0.172856
    63  C   -0.052034
    64  C   -0.295624
    65  C   -0.288390
    66  H    0.058521
    67  H    0.045172
    68  H    0.098187
    69  H    0.130598
    70  H    0.095639
    71  H    0.123565
    72  H    0.090026
    73  H    0.120960
    74  H    0.123869
    75  H    0.111262
    76  H    0.140411
    77  H    0.097581
    78  H    0.126930
    79  H    0.133122
    80  H    0.111934
    81  H    0.057981
    82  H    0.105090
    83  H    0.093369
    84  H    0.108301
    85  H    0.104457
    86  H    0.136663
    87  H    0.092268
    88  H    0.088068
    89  H    0.105660
    90  H    0.119755
    91  H    0.104848
    92  H    0.136651
    93  H    0.146735
    94  H    0.117991
    95  H    0.171048
    96  H    0.129142
    97  H    0.115365
    98  H    0.128253
    99  H    0.119046
   100  H    0.112822
   101  H    0.087203
   102  H    0.089074
   103  H    0.120220
   104  H    0.130593
   105  H    0.078692
   106  H    0.104318
   107  H    0.115791
   108  H    0.085259
   109  H    0.092550
   110  H    0.088690
   111  H    0.060013
   112  H    0.106809
   113  H    0.097225
   114  H    0.093269
   115  H    0.094729
   116  H    0.092560
   117  H    0.055634
   118  H    0.086509
   119  H    0.084827
   120  H    0.082876
   121  H    0.081882
   122  H    0.054943
   123  H    0.097120
   124  H    0.101985
   125  H    0.080073
   126  H    0.071371
   127  H    0.109625
   128  H    0.098785
   129  H    0.080423
   130  H    0.082504
   131  H    0.088704
   132  H    0.078424
   133  H    0.087263
   134  H    0.085567
   135  H    0.072471
   136  H    0.109226
   137  H    0.105993
 Sum of Mulliken charges =  -0.00000

 Dipole moment (field-independent basis, Debye):
    X=              1.9416    Y=              2.3734    Z=              0.5176  Tot=              3.1097
 Quadrupole moment (field-independent basis, Debye-Ang):
   XX=           -338.0625   YY=           -393.3282   ZZ=           -399.0305
   XY=             -5.1125   XZ=              0.1215   YZ=              0.8967

 Normal termination of Gaussian 16 at Wed Sep 11 10:53:41 2019.
