 Gaussian 09, Revision D.01,
 Gaussian 09:  ES64L-G09RevD.01 24-Apr-2013

 -------------------------------------
 # td=(NStates=1) CAM-B3LYP/6-31G(d,p)
 -------------------------------------

 --
 TD
 --
 Symbolic Z-matrix:
 Charge =  0 Multiplicity = 1

                         Standard orientation:
 ---------------------------------------------------------------------
 Center     Atomic      Atomic             Coordinates (Angstroms)
 Number     Number       Type             X           Y           Z
 ---------------------------------------------------------------------
      1         12           0       -7.188743    0.619628    0.027462
      2          6           0       -4.931218   -1.963142    0.520783
      3          6           0       -4.789460    2.848247    1.073920
      4          6           0       -9.359745    3.094570   -0.412685
      5          6           0       -9.637123   -1.708972   -0.804260
      6          7           0       -5.127295    0.453547    0.815482
      7          6           0       -4.377115   -0.668105    0.811611
      8          6           0       -2.943292   -0.332643    1.218175
      9          6           0       -2.958591    1.181790    1.683265
     10          6           0       -4.382292    1.516677    1.118748
     11          6           0       -2.927080    1.334096    3.272034
     12          6           0       -1.822663   -0.556326    0.211984
     13          6           0       -0.383869   -0.350478    0.611025
     14          6           0        0.503032   -0.762622   -0.452107
     15          8           0        0.266522   -1.074418   -1.624311
     16          8           0        1.870344   -0.647905   -0.012624
     17          7           0       -7.119733    2.665500    0.321432
     18          6           0       -6.036156    3.380485    0.728188
     19          6           0       -6.336573    4.764116    0.673858
     20          6           0       -7.645592    4.829625    0.326839
     21          6           0       -8.136124    3.513099    0.086896
     22          6           0       -5.516808    5.911168    1.203229
     23          6           0       -8.525149    6.013766    0.128272
     24          6           0       -8.391468    7.283206    0.761254
     25          7           0       -9.105753    0.705987   -0.642166
     26          6           0       -9.834643    1.850896   -0.775784
     27          6           0      -11.206918    1.419236   -1.149180
     28          6           0      -11.377730    0.173809   -1.319029
     29          6           0       -9.991994   -0.372947   -0.931070
     30          6           0      -12.292280    2.376743   -1.489272
     31          6           0      -12.454518   -0.699602   -1.788064
     32          6           0      -12.357248   -1.117356   -3.262658
     33          7           0       -7.278119   -1.296984   -0.071102
     34          6           0       -8.322957   -2.194207   -0.436000
     35          6           0       -7.890589   -3.576427   -0.449402
     36          6           0       -6.536754   -3.507582   -0.006724
     37          6           0       -6.297947   -2.184948    0.178936
     38          6           0       -8.713659   -4.793231   -0.754481
     39          6           0       -5.339544   -4.377965    0.190438
     40          8           0       -5.229477   -5.574542   -0.050827
     41          6           0       -4.191736   -3.340894    0.446334
     42          6           0       -3.595467   -3.723038    1.858115
     43          8           0       -3.835612   -3.217164    2.951845
     44          8           0       -2.693089   -4.752351    1.719429
     45          6           0       -2.177658   -5.226869    2.929980
     46          6           0        2.850177   -0.873373   -0.987406
     47          6           0        4.133719   -0.584425   -0.419730
     48          6           0        5.097533    0.223263   -0.974758
     49          6           0        5.135142    0.829217   -2.366299
     50          6           0        6.412999    0.447025   -0.140167
     51          6           0        7.685892   -0.154720   -0.964817
     52          6           0        9.005002   -0.088138   -0.133075
     53          6           0       10.264505   -0.558308   -0.960533
     54          6           0       10.061091   -2.020220   -1.227220
     55          6           0       11.410037   -0.208987   -0.040973
     56          6           0       12.780982   -0.441733   -0.691566
     57          6           0       13.986239   -0.077137    0.272727
     58          6           0       15.378581   -0.159754   -0.436369
     59          6           0       15.798192   -1.594539   -0.844410
     60          6           0       16.435794    0.527395    0.329893
     61          6           0       17.910919    0.465634   -0.222375
     62          6           0       18.817682    1.327962    0.713031
     63          6           0       20.239266    1.398789    0.283344
     64          6           0       20.364224    1.938741   -1.261019
     65          6           0       21.188917    2.125751    1.142521
     66          1           0       -4.104743    3.613776    1.470781
     67          1           0       -9.869336    4.075904   -0.635622
     68          1           0      -10.189676   -2.592864   -1.238114
     69          1           0       -2.330338   -0.967628    2.135819
     70          1           0       -2.260717    1.864458    1.109722
     71          1           0       -1.958637    1.202897    3.662834
     72          1           0       -3.158910    2.346593    3.550694
     73          1           0       -3.574294    0.333775    3.622113
     74          1           0       -2.039639   -1.729313   -0.122877
     75          1           0       -2.261046    0.000819   -0.721963
     76          1           0       -0.129180    0.651795    0.691967
     77          1           0       -0.114120   -0.967109    1.526918
     78          1           0       -5.814908    6.816346    0.862619
     79          1           0       -5.741088    5.865107    2.237795
     80          1           0       -4.507246    5.690865    0.918106
     81          1           0       -9.282078    5.879203   -0.631512
     82          1           0       -8.992099    8.115982    0.592664
     83          1           0       -7.637827    7.541429    1.433937
     84          1           0      -12.052916    3.141664   -2.276257
     85          1           0      -13.462802    2.037157   -1.839611
     86          1           0      -12.473497    3.143390   -0.819097
     87          1           0      -12.347786   -1.554041   -1.137313
     88          1           0      -13.397517   -0.087845   -1.551039
     89          1           0      -13.175633   -1.790363   -3.533805
     90          1           0      -12.502124   -0.254475   -3.879480
     91          1           0      -11.556032   -1.612043   -3.588036
     92          1           0       -9.063750   -4.846755   -1.756716
     93          1           0       -8.063151   -5.752791   -0.448407
     94          1           0       -9.494371   -4.832249    0.004218
     95          1           0       -3.589738   -3.300363   -0.371719
     96          1           0       -1.582255   -4.575418    3.365170
     97          1           0       -3.034249   -5.542252    3.726106
     98          1           0       -1.630492   -6.129164    2.732750
     99          1           0        2.728008   -1.991931   -1.304570
    100          1           0        2.666882   -0.114966   -1.824347
    101          1           0        4.362543   -0.985226    0.666593
    102          1           0        4.164328    0.843861   -2.656514
    103          1           0        5.594366    1.922518   -2.370536
    104          1           0        5.698509    0.467045   -3.201596
    105          1           0        6.597904    1.425390    0.060412
    106          1           0        6.477985    0.046510    0.865835
    107          1           0        7.522076   -1.317992   -1.338424
    108          1           0        7.892369    0.465340   -1.749928
    109          1           0        9.366745    0.967898    0.192800
    110          1           0        8.664390   -0.657882    0.931433
    111          1           0       10.134204   -0.058779   -2.097761
    112          1           0        9.169731   -2.116114   -2.042768
    113          1           0       10.978508   -2.433184   -1.672862
    114          1           0        9.969341   -2.497672   -0.088974
    115          1           0       11.202621    0.812896    0.396766
    116          1           0       11.368628   -1.115827    0.868640
    117          1           0       12.867445   -1.484146   -1.053705
    118          1           0       12.833402    0.383235   -1.575417
    119          1           0       13.866045    0.980844    0.519951
    120          1           0       13.782198   -0.673245    1.238724
    121          1           0       15.175189    0.262642   -1.547687
    122          1           0       16.034138   -2.191278   -0.130752
    123          1           0       15.005592   -1.943590   -1.484623
    124          1           0       16.733490   -1.829401   -1.406560
    125          1           0       16.187393    1.776992    0.541075
    126          1           0       16.490109    0.026459    1.310077
    127          1           0       18.052164   -0.685317   -0.099688
    128          1           0       17.919125    1.012479   -1.309647
    129          1           0       18.495226    2.211809    0.706023
    130          1           0       18.682155    0.753753    1.651016
    131          1           0       20.584011    0.430202    0.336374
    132          1           0       19.802432    3.050350   -1.160364
    133          1           0       21.390793    1.968420   -1.360610
    134          1           0       19.907647    1.285766   -1.894734
    135          1           0       20.925171    1.734187    2.241634
    136          1           0       22.228069    2.034618    0.833623
    137          1           0       20.855188    3.106294    1.311474
 ---------------------------------------------------------------------

 SCF Done:  E(RCAM-B3LYP) =  -2932.59731007     A.U. after   18 cycles

 Excitation energies and oscillator strengths:

 Excited State   1:      Singlet-A      1.9851 eV  624.58 nm  f=0.2878  <S**2>=0.000
     240 -> 243        0.23149
     241 -> 242        0.66172
 This state for optimization and/or second-order correction.
 Total Energy, E(TD-HF/TD-KS) =  -2932.52435966
 Copying the excited state density for this state as the 1-particle RhoCI density.

 The electronic state is 1-A.
 Alpha  occ. eigenvalues --  -46.84332 -19.26346 -19.24771 -19.21910 -19.21637
 Alpha  occ. eigenvalues --  -19.21038 -14.42512 -14.40481 -14.39431 -14.38962
 Alpha  occ. eigenvalues --  -10.40269 -10.39887 -10.35789 -10.31436 -10.31430
 Alpha  occ. eigenvalues --  -10.30947 -10.30497 -10.30174 -10.29803 -10.29497
 Alpha  occ. eigenvalues --  -10.29232 -10.29201 -10.29145 -10.29126 -10.28833
 Alpha  occ. eigenvalues --  -10.28810 -10.28733 -10.28730 -10.28211 -10.28204
 Alpha  occ. eigenvalues --  -10.27959 -10.27950 -10.27790 -10.27404 -10.27317
 Alpha  occ. eigenvalues --  -10.27052 -10.27049 -10.27027 -10.26990 -10.26946
 Alpha  occ. eigenvalues --  -10.26889 -10.26653 -10.26605 -10.26590 -10.26512
 Alpha  occ. eigenvalues --  -10.26502 -10.26450 -10.26414 -10.26272 -10.26247
 Alpha  occ. eigenvalues --  -10.26240 -10.26151 -10.26063 -10.25960 -10.25801
 Alpha  occ. eigenvalues --  -10.25778 -10.25280 -10.25168 -10.24864 -10.24556
 Alpha  occ. eigenvalues --  -10.24341 -10.24247 -10.24103 -10.23158 -10.22990
 Alpha  occ. eigenvalues --   -3.13515  -1.88200  -1.87764  -1.87705  -1.17933
 Alpha  occ. eigenvalues --   -1.16164  -1.10852  -1.08929  -1.08524  -1.05417
 Alpha  occ. eigenvalues --   -1.04626  -1.03462  -1.02410  -0.92193  -0.91259
 Alpha  occ. eigenvalues --   -0.90639  -0.90461  -0.90150  -0.89209  -0.89128
 Alpha  occ. eigenvalues --   -0.88900  -0.88444  -0.87081  -0.86892  -0.86272
 Alpha  occ. eigenvalues --   -0.84675  -0.84001  -0.83677  -0.82883  -0.82478
 Alpha  occ. eigenvalues --   -0.81298  -0.80993  -0.80543  -0.79743  -0.78694
 Alpha  occ. eigenvalues --   -0.78468  -0.77818  -0.76923  -0.76241  -0.75519
 Alpha  occ. eigenvalues --   -0.75431  -0.75334  -0.74547  -0.72928  -0.72479
 Alpha  occ. eigenvalues --   -0.72124  -0.71205  -0.70178  -0.68999  -0.68554
 Alpha  occ. eigenvalues --   -0.67422  -0.65944  -0.65217  -0.64591  -0.63986
 Alpha  occ. eigenvalues --   -0.63251  -0.62637  -0.62232  -0.61756  -0.61671
 Alpha  occ. eigenvalues --   -0.61172  -0.60410  -0.60186  -0.59666  -0.59279
 Alpha  occ. eigenvalues --   -0.58896  -0.58856  -0.58372  -0.57705  -0.57490
 Alpha  occ. eigenvalues --   -0.56596  -0.55548  -0.55082  -0.54924  -0.54621
 Alpha  occ. eigenvalues --   -0.54424  -0.54034  -0.53882  -0.53737  -0.53288
 Alpha  occ. eigenvalues --   -0.52804  -0.52652  -0.52449  -0.52071  -0.51838
 Alpha  occ. eigenvalues --   -0.51545  -0.51322  -0.51259  -0.50891  -0.50778
 Alpha  occ. eigenvalues --   -0.50539  -0.50432  -0.50288  -0.50169  -0.49921
 Alpha  occ. eigenvalues --   -0.49789  -0.49187  -0.48877  -0.48751  -0.48667
 Alpha  occ. eigenvalues --   -0.48349  -0.48160  -0.48115  -0.47579  -0.47178
 Alpha  occ. eigenvalues --   -0.46966  -0.46809  -0.46585  -0.46407  -0.46245
 Alpha  occ. eigenvalues --   -0.46127  -0.45740  -0.45653  -0.45488  -0.44891
 Alpha  occ. eigenvalues --   -0.44803  -0.44351  -0.44279  -0.44103  -0.44030
 Alpha  occ. eigenvalues --   -0.43865  -0.43650  -0.43614  -0.43306  -0.43129
 Alpha  occ. eigenvalues --   -0.42929  -0.42683  -0.42500  -0.42421  -0.42164
 Alpha  occ. eigenvalues --   -0.42057  -0.41846  -0.41446  -0.41324  -0.41145
 Alpha  occ. eigenvalues --   -0.41015  -0.40955  -0.40909  -0.40749  -0.40706
 Alpha  occ. eigenvalues --   -0.40212  -0.39947  -0.39509  -0.39053  -0.38912
 Alpha  occ. eigenvalues --   -0.38839  -0.38563  -0.38071  -0.37549  -0.37412
 Alpha  occ. eigenvalues --   -0.37320  -0.37258  -0.36724  -0.36612  -0.36267
 Alpha  occ. eigenvalues --   -0.36051  -0.35991  -0.35506  -0.35420  -0.35141
 Alpha  occ. eigenvalues --   -0.35115  -0.34893  -0.34239  -0.34223  -0.34042
 Alpha  occ. eigenvalues --   -0.33916  -0.33405  -0.32586  -0.30957  -0.30484
 Alpha  occ. eigenvalues --   -0.29959  -0.29280  -0.28838  -0.27656  -0.23075
 Alpha  occ. eigenvalues --   -0.21293
 Alpha virt. eigenvalues --   -0.07100  -0.02366   0.00982   0.03312   0.04753
 Alpha virt. eigenvalues --    0.05408   0.05792   0.06033   0.06510   0.07374
 Alpha virt. eigenvalues --    0.07777   0.10166   0.10703   0.10769   0.11501

 Mulliken charges:
               1
     1  Mg   0.838295
     2  C   -0.009021
     3  C   -0.198524
     4  C   -0.174960
     5  C   -0.192633
     6  N   -0.612165
     7  C    0.322327
     8  C   -0.167438
     9  C   -0.134412
    10  C    0.322504
    11  C   -0.299942
    12  C   -0.166362
    13  C   -0.244518
    14  C    0.613658
    15  O   -0.466027
    16  O   -0.518764
    17  N   -0.729135
    18  C    0.325534
    19  C   -0.015170
    20  C    0.011647
    21  C    0.320923
    22  C   -0.351195
    23  C   -0.103229
    24  C   -0.250528
    25  N   -0.690667
    26  C    0.352715
    27  C    0.015799
    28  C    0.101748
    29  C    0.240463
    30  C   -0.400785
    31  C   -0.234018
    32  C   -0.313706
    33  N   -0.733969
    34  C    0.228850
    35  C    0.001868
    36  C    0.004900
    37  C    0.338145
    38  C   -0.388251
    39  C    0.374532
    40  O   -0.451185
    41  C   -0.292549
    42  C    0.618569
    43  O   -0.464826
    44  O   -0.445369
    45  C   -0.073974
    46  C    0.040915
    47  C   -0.117394
    48  C    0.100586
    49  C   -0.359854
    50  C   -0.228129
    51  C   -0.178320
    52  C   -0.158357
    53  C   -0.047618
    54  C   -0.272297
    55  C   -0.154047
    56  C   -0.178894
    57  C   -0.168529
    58  C   -0.039541
    59  C   -0.328238
    60  C   -0.161827
    61  C   -0.183387
    62  C   -0.133570
    63  C   -0.071884
    64  C   -0.302030
    65  C   -0.300630
    66  H    0.076828
    67  H    0.068972
    68  H    0.096686
    69  H    0.079371
    70  H    0.100887
    71  H    0.116945
    72  H    0.114205
    73  H    0.123372
    74  H    0.085597
    75  H    0.105581
    76  H    0.161831
    77  H    0.150270
    78  H    0.127515
    79  H    0.140789
    80  H    0.113748
    81  H    0.104460
    82  H    0.109062
    83  H    0.102868
    84  H    0.110341
    85  H    0.088111
    86  H    0.125008
    87  H    0.115999
    88  H    0.100657
    89  H    0.103967
    90  H    0.116147
    91  H    0.124807
    92  H    0.131832
    93  H    0.135718
    94  H    0.133479
    95  H    0.175330
    96  H    0.128081
    97  H    0.105128
    98  H    0.122166
    99  H    0.107483
   100  H    0.106078
   101  H    0.091289
   102  H    0.115657
   103  H    0.094119
   104  H    0.135392
   105  H    0.109531
   106  H    0.093229
   107  H    0.085245
   108  H    0.105030
   109  H    0.069751
   110  H    0.063091
   111  H    0.066027
   112  H    0.091833
   113  H    0.097157
   114  H    0.080245
   115  H    0.095305
   116  H    0.055569
   117  H    0.104111
   118  H    0.071918
   119  H    0.099914
   120  H    0.082502
   121  H    0.067870
   122  H    0.110436
   123  H    0.100960
   124  H    0.097005
   125  H    0.041231
   126  H    0.091568
   127  H    0.087195
   128  H    0.081161
   129  H    0.093388
   130  H    0.082159
   131  H    0.089607
   132  H    0.067706
   133  H    0.105652
   134  H    0.119431
   135  H    0.071705
   136  H    0.106666
   137  H    0.103917
 Sum of Mulliken charges =   0.00000

 Dipole moment (field-independent basis, Debye):
    X=              0.8720    Y=              5.0269    Z=              0.1221  Tot=              5.1035
 Quadrupole moment (field-independent basis, Debye-Ang):
   XX=           -350.5210   YY=           -392.9220   ZZ=           -398.0321
   XY=            -28.5457   XZ=             16.9676   YZ=             -1.1675

 Normal termination of Gaussian 09 at Wed Jul  3 09:45:26 2019.
