 Gaussian 09, Revision D.01,
 Gaussian 09:  ES64L-G09RevD.01 24-Apr-2013

 -------------------------------------
 # td=(NStates=1) CAM-B3LYP/6-31G(d,p)
 -------------------------------------

 --
 TD
 --
 Symbolic Z-matrix:
 Charge =  0 Multiplicity = 1

                         Standard orientation:
 ---------------------------------------------------------------------
 Center     Atomic      Atomic             Coordinates (Angstroms)
 Number     Number       Type             X           Y           Z
 ---------------------------------------------------------------------
      1         12           0       -7.148933    0.626602    0.157456
      2          6           0       -4.878627   -1.957545    0.645714
      3          6           0       -4.832451    2.835008    1.116763
      4          6           0       -9.308323    3.097650   -0.540729
      5          6           0       -9.504428   -1.681637   -0.858470
      6          7           0       -5.082031    0.460554    0.687040
      7          6           0       -4.273137   -0.721974    0.845314
      8          6           0       -2.928776   -0.403684    1.226246
      9          6           0       -3.007265    1.171072    1.732904
     10          6           0       -4.367761    1.519444    1.139625
     11          6           0       -2.949735    1.388892    3.182716
     12          6           0       -1.873702   -0.586489    0.072126
     13          6           0       -0.413467   -0.411262    0.510545
     14          6           0        0.550951   -0.717483   -0.596432
     15          8           0        0.234201   -1.160196   -1.712529
     16          8           0        1.826226   -0.447699   -0.240809
     17          7           0       -7.147261    2.691662    0.430894
     18          6           0       -6.062132    3.438904    0.782827
     19          6           0       -6.361863    4.768165    0.703705
     20          6           0       -7.664295    4.890108    0.168741
     21          6           0       -8.133059    3.530310    0.123729
     22          6           0       -5.527814    5.876733    1.128993
     23          6           0       -8.461383    6.042237   -0.062120
     24          6           0       -8.433822    7.240392    0.530889
     25          7           0       -9.085889    0.648017   -0.570907
     26          6           0       -9.847276    1.776457   -0.641450
     27          6           0      -11.143674    1.437241   -1.070977
     28          6           0      -11.207626    0.106485   -1.303646
     29          6           0       -9.859936   -0.336314   -0.872866
     30          6           0      -12.288692    2.411847   -1.343982
     31          6           0      -12.253015   -0.790972   -1.660377
     32          6           0      -12.319844   -1.268373   -3.076895
     33          7           0       -7.296943   -1.340934    0.042462
     34          6           0       -8.322930   -2.148889   -0.449289
     35          6           0       -7.862908   -3.620027   -0.482989
     36          6           0       -6.567414   -3.651359    0.019124
     37          6           0       -6.234024   -2.215305    0.223986
     38          6           0       -8.674828   -4.837245   -0.894987
     39          6           0       -5.326304   -4.393204    0.191521
     40          8           0       -5.214264   -5.543051    0.161767
     41          6           0       -4.178968   -3.272745    0.489220
     42          6           0       -3.491686   -3.690452    1.811224
     43          8           0       -3.740461   -3.161504    2.848942
     44          8           0       -2.711109   -4.690357    1.491196
     45          6           0       -2.047478   -5.096914    2.748648
     46          6           0        2.845260   -0.936997   -1.044921
     47          6           0        4.177192   -0.541395   -0.474720
     48          6           0        5.177877    0.263684   -0.844723
     49          6           0        5.018468    1.150167   -2.121967
     50          6           0        6.360612    0.471236   -0.186551
     51          6           0        7.664766   -0.060882   -0.917677
     52          6           0        8.920149   -0.169985    0.010712
     53          6           0       10.140813   -0.591723   -0.793275
     54          6           0       10.028514   -2.050487   -1.106799
     55          6           0       11.476497   -0.299888    0.152998
     56          6           0       12.733000   -0.603640   -0.647635
     57          6           0       13.913087   -0.017583    0.138073
     58          6           0       15.222125   -0.215280   -0.493227
     59          6           0       15.694697   -1.708362   -0.839740
     60          6           0       16.331894    0.331315    0.355383
     61          6           0       17.822543    0.585162   -0.222172
     62          6           0       18.799322    1.178016    0.755516
     63          6           0       20.238021    1.461239    0.127800
     64          6           0       20.165366    2.253036   -1.234718
     65          6           0       21.126568    2.049931    1.110312
     66          1           0       -4.121968    3.572330    1.683003
     67          1           0       -9.925468    4.084598   -1.026968
     68          1           0      -10.236829   -2.544156   -1.007940
     69          1           0       -2.423396   -0.821396    2.024851
     70          1           0       -2.266156    1.714758    1.407394
     71          1           0       -1.914271    1.122696    3.464944
     72          1           0       -2.912655    2.498483    3.350497
     73          1           0       -3.779573    0.643603    3.761393
     74          1           0       -1.921753   -1.688743   -0.273477
     75          1           0       -2.317656   -0.008674   -0.724477
     76          1           0       -0.139131    0.522664    0.802354
     77          1           0       -0.242175   -1.017740    1.271164
     78          1           0       -5.806861    6.733625    0.542982
     79          1           0       -5.517094    6.250957    2.251569
     80          1           0       -4.446234    5.538516    0.876776
     81          1           0       -9.283732    5.990662   -0.850031
     82          1           0       -8.972513    8.211184    0.224259
     83          1           0       -7.654926    7.432399    1.411518
     84          1           0      -11.834027    3.315636   -2.023086
     85          1           0      -13.205689    1.999356   -2.022153
     86          1           0      -12.632869    2.623613   -0.227060
     87          1           0      -12.318140   -1.575264   -0.969636
     88          1           0      -13.397816   -0.485255   -1.589412
     89          1           0      -13.099385   -1.940071   -3.281428
     90          1           0      -12.680816   -0.413319   -3.729470
     91          1           0      -11.561744   -1.724047   -3.554090
     92          1           0       -8.997430   -4.783976   -1.836542
     93          1           0       -8.039808   -5.691022   -1.131827
     94          1           0       -9.476250   -5.192750   -0.222242
     95          1           0       -3.202854   -3.223845   -0.167091
     96          1           0       -1.486040   -4.188521    3.092761
     97          1           0       -2.767026   -5.351586    3.418170
     98          1           0       -1.482438   -5.766435    2.489995
     99          1           0        2.848940   -1.885317   -1.201067
    100          1           0        2.668420   -0.253523   -1.994746
    101          1           0        4.172048   -0.941949    0.592269
    102          1           0        4.089320    1.013427   -2.809657
    103          1           0        5.101285    2.190629   -1.999787
    104          1           0        5.865639    0.775510   -2.951901
    105          1           0        6.565724    1.612495    0.035933
    106          1           0        6.300762    0.059333    0.756782
    107          1           0        7.377180   -1.120275   -1.208802
    108          1           0        7.995673    0.559327   -1.895000
    109          1           0        8.843355    0.969645    0.300562
    110          1           0        8.791927   -0.804344    0.985471
    111          1           0       10.322779    0.167793   -1.525282
    112          1           0        9.167714   -2.386169   -1.705002
    113          1           0       11.043900   -2.414887   -1.639458
    114          1           0        9.924100   -2.667512   -0.283504
    115          1           0       11.166374    0.727282    0.415503
    116          1           0       11.293029   -1.021153    1.051942
    117          1           0       12.858713   -1.812620   -0.551079
    118          1           0       12.897089   -0.323045   -1.689999
    119          1           0       13.777710    0.961048    0.223247
    120          1           0       13.770189   -0.232134    1.186602
    121          1           0       15.384898    0.375209   -1.427319
    122          1           0       15.853145   -2.477238   -0.065397
    123          1           0       15.013077   -2.192097   -1.376064
    124          1           0       16.623609   -1.735589   -1.313557
    125          1           0       15.891256    1.285221    0.958255
    126          1           0       16.321261   -0.201971    1.241165
    127          1           0       18.050069   -0.489708   -0.473355
    128          1           0       17.760624    1.062780   -1.083157
    129          1           0       18.397208    2.104107    1.185662
    130          1           0       18.922607    0.481907    1.561748
    131          1           0       20.568307    0.362621   -0.082613
    132          1           0       19.769390    3.278587   -1.016518
    133          1           0       21.157152    2.437951   -1.600781
    134          1           0       19.640223    1.779898   -1.820015
    135          1           0       20.908136    1.575971    1.965931
    136          1           0       22.220191    1.946182    0.868179
    137          1           0       20.862539    3.022658    0.971552
 ---------------------------------------------------------------------

 SCF Done:  E(RCAM-B3LYP) =  -2932.57134053     A.U. after   17 cycles

 Excitation energies and oscillator strengths:

 Excited State   1:      Singlet-A      2.0203 eV  613.69 nm  f=0.2202  <S**2>=0.000
     240 -> 242        0.15356
     240 -> 243        0.24285
     241 -> 242        0.62549
     241 -> 243       -0.13667
 This state for optimization and/or second-order correction.
 Total Energy, E(TD-HF/TD-KS) =  -2932.49709570
 Copying the excited state density for this state as the 1-particle RhoCI density.

 The electronic state is 1-A.
 Alpha  occ. eigenvalues --  -46.84314 -19.27465 -19.26793 -19.21564 -19.21091
 Alpha  occ. eigenvalues --  -19.21046 -14.41337 -14.40006 -14.39084 -14.38267
 Alpha  occ. eigenvalues --  -10.39839 -10.38471 -10.35866 -10.31361 -10.30922
 Alpha  occ. eigenvalues --  -10.30288 -10.30175 -10.29905 -10.29781 -10.29402
 Alpha  occ. eigenvalues --  -10.28877 -10.28413 -10.28211 -10.28121 -10.28004
 Alpha  occ. eigenvalues --  -10.27999 -10.27936 -10.27648 -10.27642 -10.27527
 Alpha  occ. eigenvalues --  -10.27180 -10.27123 -10.27042 -10.27038 -10.26952
 Alpha  occ. eigenvalues --  -10.26872 -10.26853 -10.26610 -10.26593 -10.26454
 Alpha  occ. eigenvalues --  -10.26398 -10.26389 -10.26370 -10.26276 -10.26104
 Alpha  occ. eigenvalues --  -10.25936 -10.25916 -10.25884 -10.25871 -10.25786
 Alpha  occ. eigenvalues --  -10.25776 -10.25488 -10.25350 -10.25236 -10.25119
 Alpha  occ. eigenvalues --  -10.24984 -10.24675 -10.24612 -10.24587 -10.24570
 Alpha  occ. eigenvalues --  -10.23438 -10.23219 -10.22851 -10.22751 -10.22236
 Alpha  occ. eigenvalues --   -3.13334  -1.88038  -1.87564  -1.87528  -1.20121
 Alpha  occ. eigenvalues --   -1.19198  -1.15472  -1.11043  -1.08793  -1.05373
 Alpha  occ. eigenvalues --   -1.03990  -1.02654  -1.01639  -0.92332  -0.91958
 Alpha  occ. eigenvalues --   -0.91033  -0.90700  -0.89710  -0.89234  -0.88900
 Alpha  occ. eigenvalues --   -0.88648  -0.88192  -0.87890  -0.87251  -0.86937
 Alpha  occ. eigenvalues --   -0.85409  -0.84671  -0.84156  -0.83660  -0.82728
 Alpha  occ. eigenvalues --   -0.81875  -0.81576  -0.80574  -0.80090  -0.79181
 Alpha  occ. eigenvalues --   -0.77852  -0.77317  -0.76624  -0.76373  -0.75956
 Alpha  occ. eigenvalues --   -0.75935  -0.74739  -0.74475  -0.73591  -0.72344
 Alpha  occ. eigenvalues --   -0.71456  -0.70900  -0.70161  -0.69717  -0.68274
 Alpha  occ. eigenvalues --   -0.67328  -0.66447  -0.65382  -0.65043  -0.64659
 Alpha  occ. eigenvalues --   -0.64526  -0.64024  -0.63994  -0.62932  -0.61708
 Alpha  occ. eigenvalues --   -0.61686  -0.61060  -0.60445  -0.60108  -0.59195
 Alpha  occ. eigenvalues --   -0.58577  -0.58376  -0.58010  -0.57847  -0.57065
 Alpha  occ. eigenvalues --   -0.56762  -0.56415  -0.56080  -0.55453  -0.55224
 Alpha  occ. eigenvalues --   -0.55131  -0.54806  -0.54527  -0.54053  -0.53496
 Alpha  occ. eigenvalues --   -0.53164  -0.53003  -0.52835  -0.52672  -0.52114
 Alpha  occ. eigenvalues --   -0.51946  -0.51907  -0.51528  -0.51148  -0.50899
 Alpha  occ. eigenvalues --   -0.50353  -0.50272  -0.50184  -0.49943  -0.49717
 Alpha  occ. eigenvalues --   -0.49410  -0.49253  -0.49164  -0.48810  -0.48579
 Alpha  occ. eigenvalues --   -0.48400  -0.47980  -0.47744  -0.47698  -0.47410
 Alpha  occ. eigenvalues --   -0.47272  -0.46829  -0.46683  -0.46348  -0.46130
 Alpha  occ. eigenvalues --   -0.45889  -0.45424  -0.45407  -0.45284  -0.45186
 Alpha  occ. eigenvalues --   -0.44995  -0.44929  -0.44775  -0.44570  -0.44468
 Alpha  occ. eigenvalues --   -0.44104  -0.43986  -0.43720  -0.43440  -0.43280
 Alpha  occ. eigenvalues --   -0.43209  -0.43076  -0.42948  -0.42769  -0.42585
 Alpha  occ. eigenvalues --   -0.42234  -0.42168  -0.41792  -0.41718  -0.41458
 Alpha  occ. eigenvalues --   -0.41297  -0.41012  -0.40502  -0.40429  -0.40281
 Alpha  occ. eigenvalues --   -0.40163  -0.40115  -0.39805  -0.39327  -0.39072
 Alpha  occ. eigenvalues --   -0.38862  -0.38488  -0.38107  -0.37985  -0.37837
 Alpha  occ. eigenvalues --   -0.37783  -0.37196  -0.37161  -0.37012  -0.36837
 Alpha  occ. eigenvalues --   -0.36346  -0.36280  -0.36183  -0.35487  -0.35156
 Alpha  occ. eigenvalues --   -0.34933  -0.34479  -0.34286  -0.33748  -0.33481
 Alpha  occ. eigenvalues --   -0.33425  -0.32192  -0.31855  -0.30723  -0.30601
 Alpha  occ. eigenvalues --   -0.29868  -0.29732  -0.28454  -0.26414  -0.22536
 Alpha  occ. eigenvalues --   -0.20666
 Alpha virt. eigenvalues --   -0.06054  -0.03029   0.01412   0.04724   0.05275
 Alpha virt. eigenvalues --    0.05788   0.06133   0.06807   0.07516   0.08112
 Alpha virt. eigenvalues --    0.08315   0.10416   0.10826   0.11350   0.11500

 Mulliken charges:
               1
     1  Mg   0.831523
     2  C    0.096126
     3  C   -0.232225
     4  C   -0.171561
     5  C   -0.182973
     6  N   -0.643875
     7  C    0.318786
     8  C   -0.179890
     9  C   -0.121464
    10  C    0.357372
    11  C   -0.294706
    12  C   -0.178939
    13  C   -0.250282
    14  C    0.595689
    15  O   -0.483865
    16  O   -0.466859
    17  N   -0.686713
    18  C    0.348402
    19  C    0.026263
    20  C    0.021749
    21  C    0.274074
    22  C   -0.378754
    23  C   -0.078316
    24  C   -0.260997
    25  N   -0.658733
    26  C    0.273560
    27  C   -0.019191
    28  C    0.103398
    29  C    0.280213
    30  C   -0.342186
    31  C   -0.271724
    32  C   -0.315671
    33  N   -0.717124
    34  C    0.304864
    35  C   -0.020272
    36  C    0.049334
    37  C    0.218897
    38  C   -0.386179
    39  C    0.388004
    40  O   -0.401483
    41  C   -0.385001
    42  C    0.625399
    43  O   -0.466974
    44  O   -0.448510
    45  C   -0.068869
    46  C    0.059218
    47  C   -0.185194
    48  C    0.186799
    49  C   -0.366360
    50  C   -0.238110
    51  C   -0.177550
    52  C   -0.171584
    53  C   -0.060867
    54  C   -0.308714
    55  C   -0.187742
    56  C   -0.173111
    57  C   -0.174481
    58  C   -0.051192
    59  C   -0.330317
    60  C   -0.188364
    61  C   -0.178671
    62  C   -0.175850
    63  C   -0.078425
    64  C   -0.303263
    65  C   -0.280064
    66  H    0.060605
    67  H    0.084821
    68  H    0.101979
    69  H    0.111420
    70  H    0.103799
    71  H    0.097898
    72  H    0.113514
    73  H    0.110511
    74  H    0.106984
    75  H    0.126634
    76  H    0.142470
    77  H    0.143599
    78  H    0.124032
    79  H    0.106582
    80  H    0.096015
    81  H    0.085988
    82  H    0.106785
    83  H    0.087582
    84  H    0.100045
    85  H    0.101097
    86  H    0.119581
    87  H    0.116151
    88  H    0.089599
    89  H    0.102908
    90  H    0.095804
    91  H    0.115144
    92  H    0.134460
    93  H    0.137436
    94  H    0.133911
    95  H    0.147125
    96  H    0.120268
    97  H    0.151389
    98  H    0.120195
    99  H    0.130394
   100  H    0.100872
   101  H    0.072041
   102  H    0.104167
   103  H    0.129680
   104  H    0.086292
   105  H    0.087333
   106  H    0.108817
   107  H    0.092373
   108  H    0.089308
   109  H    0.072319
   110  H    0.082139
   111  H    0.095017
   112  H    0.104167
   113  H    0.085106
   114  H    0.113179
   115  H    0.097347
   116  H    0.086935
   117  H    0.081342
   118  H    0.101093
   119  H    0.109486
   120  H    0.092550
   121  H    0.083959
   122  H    0.091937
   123  H    0.102931
   124  H    0.105639
   125  H    0.034112
   126  H    0.098778
   127  H    0.089986
   128  H    0.104913
   129  H    0.088876
   130  H    0.096386
   131  H    0.060560
   132  H    0.088939
   133  H    0.102740
   134  H    0.112821
   135  H    0.105967
   136  H    0.090692
   137  H    0.106006
 Sum of Mulliken charges =   0.00000

 Dipole moment (field-independent basis, Debye):
    X=              3.0808    Y=              0.8756    Z=              0.8999  Tot=              3.3268
 Quadrupole moment (field-independent basis, Debye-Ang):
   XX=           -362.3785   YY=           -389.6168   ZZ=           -398.4109
   XY=             -0.8895   XZ=             12.8472   YZ=             -5.7192

 Normal termination of Gaussian 09 at Fri Jul  5 00:17:10 2019.
