 Gaussian 09, Revision D.01,
 Gaussian 09:  ES64L-G09RevD.01 24-Apr-2013

 -------------------------------------
 # td=(NStates=1) CAM-B3LYP/6-31G(d,p)
 -------------------------------------

 --
 TD
 --
 Symbolic Z-matrix:
 Charge =  0 Multiplicity = 1

                         Standard orientation:
 ---------------------------------------------------------------------
 Center     Atomic      Atomic             Coordinates (Angstroms)
 Number     Number       Type             X           Y           Z
 ---------------------------------------------------------------------
      1         12           0       -7.021848    0.694268    0.115310
      2          6           0       -4.821660   -1.986667    0.467195
      3          6           0       -4.781628    2.884768    1.198763
      4          6           0       -9.339295    3.222842   -0.420324
      5          6           0       -9.476044   -1.687034   -0.876376
      6          7           0       -5.048091    0.458616    0.764521
      7          6           0       -4.357590   -0.763720    0.782952
      8          6           0       -2.876355   -0.417344    1.237224
      9          6           0       -3.000436    1.072657    1.689900
     10          6           0       -4.373523    1.499044    1.119857
     11          6           0       -2.815468    1.394902    3.165632
     12          6           0       -1.842034   -0.660938    0.202438
     13          6           0       -0.384074   -0.373990    0.523456
     14          6           0        0.469267   -0.688596   -0.593290
     15          8           0        0.246647   -1.123692   -1.677739
     16          8           0        1.877352   -0.512473   -0.308292
     17          7           0       -7.070870    2.682599    0.326141
     18          6           0       -6.079820    3.406072    0.799237
     19          6           0       -6.345287    4.790967    0.732707
     20          6           0       -7.718511    4.896935    0.353473
     21          6           0       -8.127426    3.522391    0.018049
     22          6           0       -5.454798    5.882442    0.990843
     23          6           0       -8.520453    6.030044    0.181068
     24          6           0       -8.507953    7.227541    0.821847
     25          7           0       -9.020958    0.695130   -0.411194
     26          6           0       -9.775996    1.818727   -0.796034
     27          6           0      -11.128728    1.500512   -1.156607
     28          6           0      -11.205907    0.116481   -1.201087
     29          6           0       -9.904825   -0.354897   -0.925331
     30          6           0      -12.301374    2.408165   -1.262834
     31          6           0      -12.339075   -0.759314   -1.672367
     32          6           0      -12.387028   -1.070542   -3.116157
     33          7           0       -7.229024   -1.368138   -0.079267
     34          6           0       -8.306527   -2.241251   -0.448211
     35          6           0       -7.805343   -3.668106   -0.537749
     36          6           0       -6.496168   -3.614822   -0.120158
     37          6           0       -6.177176   -2.257431    0.091828
     38          6           0       -8.597769   -4.791070   -0.893681
     39          6           0       -5.247485   -4.346547    0.104454
     40          8           0       -5.159989   -5.518583    0.111594
     41          6           0       -4.090765   -3.269827    0.546275
     42          6           0       -3.595145   -3.706679    1.864173
     43          8           0       -3.943549   -3.136731    2.976517
     44          8           0       -2.855029   -4.829662    1.864964
     45          6           0       -2.450549   -5.315598    3.130188
     46          6           0        2.793189   -0.812771   -1.293179
     47          6           0        4.203239   -0.513682   -0.662761
     48          6           0        5.022206    0.315036   -1.106422
     49          6           0        5.104825    1.113732   -2.442126
     50          6           0        6.485955    0.322430   -0.349715
     51          6           0        7.639492   -0.149136   -1.064355
     52          6           0        8.907602   -0.060609   -0.273646
     53          6           0       10.159195   -0.655376   -0.980221
     54          6           0       10.020788   -2.091516   -1.318495
     55          6           0       11.390979   -0.295925    0.044254
     56          6           0       12.659781   -0.459578   -0.710222
     57          6           0       13.982079   -0.093097    0.137227
     58          6           0       15.285560   -0.210431   -0.492790
     59          6           0       15.641005   -1.660994   -0.704768
     60          6           0       16.337579    0.447523    0.467908
     61          6           0       17.759116    0.640104   -0.184301
     62          6           0       18.781125    1.413554    0.802611
     63          6           0       20.173910    1.321027    0.302154
     64          6           0       20.458053    2.068531   -1.027481
     65          6           0       21.086861    1.975376    1.473411
     66          1           0       -3.832424    3.364501    1.385950
     67          1           0      -10.244973    3.924800   -0.770383
     68          1           0      -10.236374   -2.509949   -1.108737
     69          1           0       -2.795811   -0.913371    2.325155
     70          1           0       -2.418542    1.712850    1.067110
     71          1           0       -1.667966    1.438024    3.434902
     72          1           0       -3.205856    2.535589    3.383274
     73          1           0       -3.355389    0.542926    3.775468
     74          1           0       -1.823892   -1.661453   -0.122256
     75          1           0       -2.235713   -0.146987   -0.578232
     76          1           0       -0.350938    0.700451    1.048024
     77          1           0       -0.027610   -0.998403    1.321821
     78          1           0       -5.823642    6.881398    0.490168
     79          1           0       -5.465310    6.212902    2.022316
     80          1           0       -4.477659    5.676259    0.659012
     81          1           0       -9.020699    5.930640   -0.734768
     82          1           0       -9.096693    8.069843    0.488327
     83          1           0       -8.015654    7.158542    1.873686
     84          1           0      -12.151219    3.171583   -1.924131
     85          1           0      -13.255369    1.909158   -1.601603
     86          1           0      -12.565120    2.914914   -0.245020
     87          1           0      -12.403433   -1.602647   -1.303477
     88          1           0      -13.374087   -0.228361   -1.475585
     89          1           0      -13.210435   -1.680739   -2.993612
     90          1           0      -12.270490   -0.286481   -4.020978
     91          1           0      -11.691698   -1.789560   -3.530507
     92          1           0       -9.284036   -4.691587   -1.720303
     93          1           0       -7.981674   -5.715940   -1.143830
     94          1           0       -9.180939   -4.967426   -0.005429
     95          1           0       -3.100021   -3.279956   -0.252870
     96          1           0       -1.804515   -4.844204    3.862755
     97          1           0       -3.603664   -5.576571    3.513169
     98          1           0       -1.914824   -6.206977    3.021053
     99          1           0        2.601539   -1.817802   -1.879746
    100          1           0        2.663706   -0.202116   -2.397620
    101          1           0        4.183160   -0.872737    0.445122
    102          1           0        4.092992    1.216091   -2.776945
    103          1           0        5.318058    2.205367   -2.316543
    104          1           0        6.005364    0.770440   -3.180959
    105          1           0        6.737569    1.366686   -0.140475
    106          1           0        6.267018   -0.169034    0.695165
    107          1           0        7.520721   -1.164604   -1.317742
    108          1           0        7.795790    0.373826   -1.943627
    109          1           0        9.103209    1.151613   -0.234909
    110          1           0        8.735437   -0.515964    0.615568
    111          1           0       10.426236   -0.126771   -1.688509
    112          1           0        9.053908   -2.260639   -1.836214
    113          1           0       11.006442   -2.403597   -1.911728
    114          1           0       10.094589   -2.701366   -0.391181
    115          1           0       11.286341    0.673168    0.291922
    116          1           0       11.325493   -1.078090    0.834958
    117          1           0       12.696155   -1.518281   -1.050093
    118          1           0       12.473123    0.214619   -1.455915
    119          1           0       13.782210    1.000789    0.490310
    120          1           0       13.918543   -0.645505    1.071275
    121          1           0       15.258226    0.399546   -1.274025
    122          1           0       15.618310   -1.973239    0.251041
    123          1           0       15.163791   -2.241269   -1.416307
    124          1           0       16.605712   -1.897324   -1.072231
    125          1           0       16.084927    1.469882    0.888308
    126          1           0       16.493362   -0.249201    1.229087
    127          1           0       18.339300   -0.232690   -0.583867
    128          1           0       17.699064    1.167422   -1.256939
    129          1           0       18.363222    2.430453    0.890537
    130          1           0       18.711715    0.864484    1.885615
    131          1           0       20.393124    0.303228    0.256396
    132          1           0       19.991610    3.050523   -1.077499
    133          1           0       21.625146    2.146978   -1.335063
    134          1           0       19.852051    1.333055   -1.742954
    135          1           0       21.047163    1.371593    2.418895
    136          1           0       22.137379    2.155046    1.086540
    137          1           0       20.558729    2.836224    1.757797
 ---------------------------------------------------------------------

 SCF Done:  E(RCAM-B3LYP) =  -2932.57934745     A.U. after   17 cycles

 Excitation energies and oscillator strengths:

 Excited State   1:      Singlet-A      2.2235 eV  557.61 nm  f=0.1605  <S**2>=0.000
     240 -> 243        0.29550
     241 -> 242        0.62385
 This state for optimization and/or second-order correction.
 Total Energy, E(TD-HF/TD-KS) =  -2932.49763526
 Copying the excited state density for this state as the 1-particle RhoCI density.

 The electronic state is 1-A.
 Alpha  occ. eigenvalues --  -46.84168 -19.27619 -19.24680 -19.22593 -19.21410
 Alpha  occ. eigenvalues --  -19.20136 -14.41321 -14.39739 -14.39526 -14.39437
 Alpha  occ. eigenvalues --  -10.40170 -10.39958 -10.36075 -10.32528 -10.31905
 Alpha  occ. eigenvalues --  -10.31069 -10.31044 -10.30830 -10.30739 -10.29509
 Alpha  occ. eigenvalues --  -10.29362 -10.29345 -10.29317 -10.29281 -10.28933
 Alpha  occ. eigenvalues --  -10.28749 -10.28407 -10.28300 -10.28134 -10.28056
 Alpha  occ. eigenvalues --  -10.27518 -10.27188 -10.27110 -10.26881 -10.26787
 Alpha  occ. eigenvalues --  -10.26670 -10.26617 -10.26480 -10.26428 -10.26190
 Alpha  occ. eigenvalues --  -10.26173 -10.26141 -10.26066 -10.25931 -10.25823
 Alpha  occ. eigenvalues --  -10.25750 -10.25685 -10.25653 -10.25571 -10.25569
 Alpha  occ. eigenvalues --  -10.25422 -10.25371 -10.25366 -10.25311 -10.25104
 Alpha  occ. eigenvalues --  -10.24985 -10.24745 -10.24734 -10.24150 -10.24069
 Alpha  occ. eigenvalues --  -10.23770 -10.23647 -10.23515 -10.22873 -10.22289
 Alpha  occ. eigenvalues --   -3.13210  -1.87920  -1.87426  -1.87412  -1.18352
 Alpha  occ. eigenvalues --   -1.18214  -1.14287  -1.09652  -1.05620  -1.05087
 Alpha  occ. eigenvalues --   -1.04160  -1.01947  -1.00080  -0.92963  -0.91832
 Alpha  occ. eigenvalues --   -0.91497  -0.90637  -0.90089  -0.89695  -0.89054
 Alpha  occ. eigenvalues --   -0.88664  -0.88338  -0.88230  -0.87049  -0.86646
 Alpha  occ. eigenvalues --   -0.85843  -0.85058  -0.84434  -0.83639  -0.82274
 Alpha  occ. eigenvalues --   -0.82089  -0.80885  -0.80490  -0.80220  -0.78479
 Alpha  occ. eigenvalues --   -0.77616  -0.77247  -0.76785  -0.76301  -0.75211
 Alpha  occ. eigenvalues --   -0.74790  -0.74594  -0.73766  -0.73137  -0.72399
 Alpha  occ. eigenvalues --   -0.71569  -0.70815  -0.69802  -0.69116  -0.68604
 Alpha  occ. eigenvalues --   -0.67548  -0.65928  -0.65723  -0.64864  -0.64622
 Alpha  occ. eigenvalues --   -0.64398  -0.64252  -0.63816  -0.62768  -0.62465
 Alpha  occ. eigenvalues --   -0.61911  -0.60821  -0.60699  -0.59812  -0.59049
 Alpha  occ. eigenvalues --   -0.58466  -0.58067  -0.57317  -0.57038  -0.56808
 Alpha  occ. eigenvalues --   -0.56507  -0.56184  -0.55993  -0.55849  -0.55031
 Alpha  occ. eigenvalues --   -0.54920  -0.54391  -0.54260  -0.53690  -0.53542
 Alpha  occ. eigenvalues --   -0.53320  -0.52595  -0.52332  -0.51906  -0.51784
 Alpha  occ. eigenvalues --   -0.51639  -0.51290  -0.50793  -0.50585  -0.50516
 Alpha  occ. eigenvalues --   -0.50424  -0.50294  -0.49994  -0.49632  -0.49539
 Alpha  occ. eigenvalues --   -0.48976  -0.48802  -0.48738  -0.48441  -0.48422
 Alpha  occ. eigenvalues --   -0.48266  -0.47840  -0.47651  -0.47378  -0.47014
 Alpha  occ. eigenvalues --   -0.46734  -0.46494  -0.46276  -0.46167  -0.45948
 Alpha  occ. eigenvalues --   -0.45872  -0.45754  -0.45507  -0.45358  -0.45177
 Alpha  occ. eigenvalues --   -0.45026  -0.44683  -0.44590  -0.44559  -0.44386
 Alpha  occ. eigenvalues --   -0.44194  -0.44079  -0.43922  -0.43528  -0.43352
 Alpha  occ. eigenvalues --   -0.42921  -0.42872  -0.42649  -0.42575  -0.42370
 Alpha  occ. eigenvalues --   -0.42039  -0.41942  -0.41777  -0.41703  -0.41348
 Alpha  occ. eigenvalues --   -0.41111  -0.40940  -0.40628  -0.40272  -0.40250
 Alpha  occ. eigenvalues --   -0.40158  -0.40093  -0.40039  -0.39783  -0.39027
 Alpha  occ. eigenvalues --   -0.38856  -0.38475  -0.38127  -0.38020  -0.37673
 Alpha  occ. eigenvalues --   -0.37588  -0.37189  -0.37000  -0.36999  -0.36708
 Alpha  occ. eigenvalues --   -0.36146  -0.35862  -0.35687  -0.35123  -0.34929
 Alpha  occ. eigenvalues --   -0.34873  -0.34778  -0.33728  -0.33278  -0.33139
 Alpha  occ. eigenvalues --   -0.32824  -0.32468  -0.31676  -0.30988  -0.30506
 Alpha  occ. eigenvalues --   -0.30010  -0.29513  -0.27683  -0.27162  -0.23239
 Alpha  occ. eigenvalues --   -0.21711
 Alpha virt. eigenvalues --   -0.05756  -0.03696   0.01450   0.03194   0.04381
 Alpha virt. eigenvalues --    0.04784   0.05834   0.06799   0.07191   0.07983
 Alpha virt. eigenvalues --    0.08354   0.09862   0.10987   0.11608   0.11671

 Mulliken charges:
               1
     1  Mg   0.813567
     2  C    0.131360
     3  C   -0.197214
     4  C   -0.192891
     5  C   -0.187739
     6  N   -0.649183
     7  C    0.261530
     8  C   -0.184426
     9  C   -0.148961
    10  C    0.324758
    11  C   -0.292491
    12  C   -0.154030
    13  C   -0.286077
    14  C    0.628760
    15  O   -0.436900
    16  O   -0.503771
    17  N   -0.732105
    18  C    0.349210
    19  C    0.038008
    20  C    0.002192
    21  C    0.346358
    22  C   -0.388782
    23  C   -0.083486
    24  C   -0.251373
    25  N   -0.621900
    26  C    0.240985
    27  C   -0.003136
    28  C    0.066574
    29  C    0.225802
    30  C   -0.378698
    31  C   -0.202269
    32  C   -0.302912
    33  N   -0.690042
    34  C    0.247452
    35  C    0.016388
    36  C    0.063066
    37  C    0.267959
    38  C   -0.401917
    39  C    0.353789
    40  O   -0.416580
    41  C   -0.352974
    42  C    0.637144
    43  O   -0.516509
    44  O   -0.430328
    45  C   -0.072281
    46  C    0.025396
    47  C   -0.131164
    48  C    0.131449
    49  C   -0.360444
    50  C   -0.213068
    51  C   -0.162608
    52  C   -0.164431
    53  C   -0.042471
    54  C   -0.311792
    55  C   -0.179792
    56  C   -0.183811
    57  C   -0.172858
    58  C   -0.049947
    59  C   -0.306829
    60  C   -0.176366
    61  C   -0.200831
    62  C   -0.161201
    63  C   -0.057657
    64  C   -0.292124
    65  C   -0.315964
    66  H    0.076279
    67  H    0.103778
    68  H    0.081720
    69  H    0.119604
    70  H    0.105397
    71  H    0.095342
    72  H    0.102282
    73  H    0.125002
    74  H    0.116047
    75  H    0.130282
    76  H    0.141784
    77  H    0.162385
    78  H    0.111629
    79  H    0.128841
    80  H    0.120176
    81  H    0.099254
    82  H    0.114896
    83  H    0.102370
    84  H    0.125608
    85  H    0.110222
    86  H    0.111034
    87  H    0.106908
    88  H    0.090075
    89  H    0.110477
    90  H    0.097533
    91  H    0.103030
    92  H    0.126873
    93  H    0.139894
    94  H    0.146756
    95  H    0.141536
    96  H    0.132230
    97  H    0.113316
    98  H    0.125410
    99  H    0.107431
   100  H    0.059464
   101  H    0.094801
   102  H    0.119099
   103  H    0.112059
   104  H    0.110774
   105  H    0.083229
   106  H    0.071151
   107  H    0.094136
   108  H    0.094402
   109  H    0.053680
   110  H    0.099167
   111  H    0.083248
   112  H    0.109364
   113  H    0.086369
   114  H    0.100732
   115  H    0.097527
   116  H    0.080847
   117  H    0.087534
   118  H    0.092947
   119  H    0.064659
   120  H    0.083123
   121  H    0.087515
   122  H    0.108031
   123  H    0.107765
   124  H    0.098692
   125  H    0.090128
   126  H    0.099455
   127  H    0.087384
   128  H    0.067740
   129  H    0.094311
   130  H    0.071455
   131  H    0.100921
   132  H    0.111253
   133  H    0.088439
   134  H    0.085169
   135  H    0.090022
   136  H    0.089826
   137  H    0.108765
 Sum of Mulliken charges =   0.00000

 Dipole moment (field-independent basis, Debye):
    X=             -0.7302    Y=              3.2648    Z=             -0.5703  Tot=              3.3938
 Quadrupole moment (field-independent basis, Debye-Ang):
   XX=           -357.3010   YY=           -383.5005   ZZ=           -399.1830
   XY=            -16.8327   XZ=             14.4342   YZ=             -2.7500

 Normal termination of Gaussian 09 at Tue Jul  2 17:29:03 2019.
