 Gaussian 16, Revision A.03,
 Gaussian 16:  ES64L-G16RevA.03 25-Dec-2016

 ----------------------------------------------------------------------
 # td=(NStates=1) iop(3/107=0140000000,3/108=0140000000) CAM-B3LYP/6-31
 G(d,p)
 ----------------------------------------------------------------------

 --
 TD
 --
 Symbolic Z-matrix:
 Charge =  0 Multiplicity = 1

                         Standard orientation:
 ---------------------------------------------------------------------
 Center     Atomic      Atomic             Coordinates (Angstroms)
 Number     Number       Type             X           Y           Z
 ---------------------------------------------------------------------
      1         12           0       -7.096831    0.608477    0.165678
      2          6           0       -4.849522   -1.913199    0.475590
      3          6           0       -4.902315    2.758199    1.232046
      4          6           0       -9.421197    3.181709   -0.507229
      5          6           0       -9.594495   -1.696565   -0.920002
      6          7           0       -5.091188    0.400915    0.782518
      7          6           0       -4.327734   -0.722789    0.840746
      8          6           0       -2.912529   -0.367431    1.286771
      9          6           0       -3.048710    1.078436    1.782190
     10          6           0       -4.498896    1.436991    1.185891
     11          6           0       -2.904602    1.115527    3.255980
     12          6           0       -1.905277   -0.656734    0.099181
     13          6           0       -0.479719   -0.594094    0.551127
     14          6           0        0.454615   -0.707851   -0.532965
     15          8           0        0.189423   -1.108146   -1.661883
     16          8           0        1.682243   -0.382812   -0.133920
     17          7           0       -7.146625    2.644479    0.366091
     18          6           0       -6.108882    3.399120    0.891495
     19          6           0       -6.431137    4.856326    0.856770
     20          6           0       -7.714120    4.915053    0.341102
     21          6           0       -8.103445    3.531714    0.088601
     22          6           0       -5.522941    5.935797    1.285732
     23          6           0       -8.487793    6.112420    0.113863
     24          6           0       -8.348880    7.223456    0.742239
     25          7           0       -9.086417    0.730232   -0.589572
     26          6           0       -9.876952    1.898691   -0.826333
     27          6           0      -11.156676    1.587570   -1.273720
     28          6           0      -11.190388    0.239791   -1.268525
     29          6           0      -10.006073   -0.313284   -0.858463
     30          6           0      -12.286475    2.526635   -1.678061
     31          6           0      -12.314281   -0.598578   -1.835756
     32          6           0      -12.028238   -1.040125   -3.358417
     33          7           0       -7.246875   -1.397569   -0.284431
     34          6           0       -8.316210   -2.204023   -0.618793
     35          6           0       -7.917775   -3.553412   -0.646743
     36          6           0       -6.569492   -3.556841   -0.165326
     37          6           0       -6.192795   -2.158073   -0.009060
     38          6           0       -8.834883   -4.838415   -0.789324
     39          6           0       -5.312067   -4.428857    0.239262
     40          8           0       -5.190631   -5.643384    0.227893
     41          6           0       -4.232403   -3.359691    0.571699
     42          6           0       -3.643079   -3.806790    1.910538
     43          8           0       -3.818886   -3.223959    2.974451
     44          8           0       -2.847074   -4.782798    1.818312
     45          6           0       -2.238581   -5.197607    3.078340
     46          6           0        2.749610   -0.773792   -1.123714
     47          6           0        4.030879   -0.430379   -0.457718
     48          6           0        5.217942    0.274023   -0.810664
     49          6           0        5.203196    1.123046   -2.103367
     50          6           0        6.525747    0.267883   -0.084285
     51          6           0        7.595931   -0.329006   -0.811836
     52          6           0        8.935408   -0.191242   -0.094446
     53          6           0       10.168209   -0.582238   -0.853278
     54          6           0       10.000819   -2.097356   -1.238145
     55          6           0       11.480484   -0.433164    0.001155
     56          6           0       12.773646   -0.512033   -0.801126
     57          6           0       14.029993   -0.141830    0.088347
     58          6           0       15.475633   -0.193596   -0.632932
     59          6           0       15.865632   -1.606087   -1.160730
     60          6           0       16.508973    0.510820    0.253163
     61          6           0       17.879337    0.618345   -0.325288
     62          6           0       18.777721    1.438414    0.688377
     63          6           0       20.254335    1.460420    0.246423
     64          6           0       20.482350    2.086255   -1.058088
     65          6           0       21.112015    2.103924    1.378364
     66          1           0       -4.075401    3.413177    1.585771
     67          1           0      -10.185552    4.024512   -0.287469
     68          1           0      -10.446775   -2.464366   -1.306074
     69          1           0       -2.747069   -1.208050    1.948454
     70          1           0       -2.321461    1.797289    1.161136
     71          1           0       -1.892345    0.675899    3.578333
     72          1           0       -2.986471    2.073398    3.668791
     73          1           0       -3.782069    0.397055    3.622909
     74          1           0       -1.995950   -1.677215   -0.069965
     75          1           0       -1.996017   -0.040440   -0.634698
     76          1           0       -0.600798    0.380136    1.156550
     77          1           0       -0.144544   -1.230707    1.281915
     78          1           0       -5.629147    6.879332    0.687960
     79          1           0       -5.544790    6.083814    2.348471
     80          1           0       -4.414267    5.585797    0.961022
     81          1           0       -9.272306    5.925940   -0.587175
     82          1           0       -9.084541    8.011876    0.493628
     83          1           0       -7.612938    7.402656    1.533672
     84          1           0      -11.913595    3.248779   -2.493654
     85          1           0      -13.216076    1.974701   -2.097757
     86          1           0      -12.511766    3.082182   -0.766269
     87          1           0      -12.317033   -1.507773   -1.339147
     88          1           0      -13.177106   -0.055525   -1.913317
     89          1           0      -12.703611   -1.999229   -3.706666
     90          1           0      -12.097817   -0.281766   -4.151262
     91          1           0      -11.060708   -1.499523   -3.283703
     92          1           0       -9.390226   -4.713015   -1.822647
     93          1           0       -8.230789   -5.640127   -0.774498
     94          1           0       -9.505878   -4.745377    0.081644
     95          1           0       -3.411498   -3.540164   -0.105074
     96          1           0       -1.590957   -4.341303    3.276919
     97          1           0       -3.025791   -5.188565    3.708585
     98          1           0       -1.516279   -5.880425    2.791926
     99          1           0        2.817263   -1.751098   -1.314575
    100          1           0        2.565703   -0.236494   -1.906551
    101          1           0        4.090811   -0.812595    0.685775
    102          1           0        3.999715    1.123613   -2.305100
    103          1           0        5.719542    2.129474   -1.918532
    104          1           0        5.714186    0.396402   -2.963625
    105          1           0        6.683782    1.301664   -0.032063
    106          1           0        6.203290    0.005974    1.043121
    107          1           0        7.424778   -1.415879   -0.992159
    108          1           0        7.725591    0.134416   -1.626592
    109          1           0        9.101195    0.998644    0.096515
    110          1           0        8.896421   -0.665980    0.959281
    111          1           0       10.312578   -0.101239   -1.815558
    112          1           0        9.046839   -2.072206   -1.996153
    113          1           0       10.851714   -2.404622   -1.648261
    114          1           0        9.750687   -2.698191   -0.334232
    115          1           0       11.220041    0.514804    0.741714
    116          1           0       11.717106   -1.319562    0.601967
    117          1           0       12.887515   -1.478846   -1.319835
    118          1           0       12.728099   -0.025375   -1.561941
    119          1           0       13.866009    0.968391    0.397609
    120          1           0       14.068196   -0.957282    0.939387
    121          1           0       15.193001    0.458604   -1.382476
    122          1           0       15.682004   -2.146143   -0.161772
    123          1           0       14.909634   -2.103264   -1.848244
    124          1           0       16.744961   -1.733900   -1.675129
    125          1           0       16.235588    1.667509    0.491501
    126          1           0       16.710760    0.021926    1.198192
    127          1           0       18.216401   -0.359638   -0.491530
    128          1           0       17.811675    1.239347   -1.333446
    129          1           0       18.511814    2.516641    0.933056
    130          1           0       18.611305    0.900469    1.805519
    131          1           0       20.588377    0.350625    0.318349
    132          1           0       19.983481    3.123304   -1.229729
    133          1           0       21.518081    2.151191   -1.406357
    134          1           0       20.095767    1.437898   -1.806743
    135          1           0       21.030613    1.590764    2.346888
    136          1           0       22.177303    2.205863    1.015687
    137          1           0       20.965377    3.229568    1.394575
 ---------------------------------------------------------------------

 SCF Done:  E(RCAM-B3LYP) =  -2933.45711244     A.U. after   16 cycles

 Excitation energies and oscillator strengths:

 Excited State   1:      Singlet-A      2.0459 eV  606.02 nm  f=0.2213  <S**2>=0.000
     240 -> 243        0.22267
     241 -> 242        0.66784
 This state for optimization and/or second-order correction.
 Total Energy, E(TD-HF/TD-DFT) =  -2933.38192749
 Copying the excited state density for this state as the 1-particle RhoCI density.

 The electronic state is 1-A.
 Alpha  occ. eigenvalues --  -46.80736 -19.22590 -19.21907 -19.16760 -19.16107
 Alpha  occ. eigenvalues --  -19.15145 -14.37485 -14.35497 -14.34867 -14.34244
 Alpha  occ. eigenvalues --  -10.33826 -10.33781 -10.31504 -10.26335 -10.26320
 Alpha  occ. eigenvalues --  -10.26127 -10.25841 -10.25789 -10.25310 -10.24720
 Alpha  occ. eigenvalues --  -10.24564 -10.24551 -10.24540 -10.24423 -10.24384
 Alpha  occ. eigenvalues --  -10.23877 -10.23872 -10.23724 -10.23435 -10.23369
 Alpha  occ. eigenvalues --  -10.23067 -10.22957 -10.22913 -10.22874 -10.22746
 Alpha  occ. eigenvalues --  -10.22743 -10.22708 -10.22615 -10.22455 -10.22388
 Alpha  occ. eigenvalues --  -10.22348 -10.22108 -10.22003 -10.21882 -10.21856
 Alpha  occ. eigenvalues --  -10.21839 -10.21721 -10.21718 -10.21660 -10.21556
 Alpha  occ. eigenvalues --  -10.21494 -10.21396 -10.21327 -10.21253 -10.21111
 Alpha  occ. eigenvalues --  -10.21084 -10.20728 -10.20471 -10.20422 -10.20397
 Alpha  occ. eigenvalues --  -10.20299 -10.20280 -10.20175 -10.20090 -10.19324
 Alpha  occ. eigenvalues --   -3.09131  -1.84086  -1.83570  -1.83553  -1.16242
 Alpha  occ. eigenvalues --   -1.12776  -1.06035  -1.03332  -1.03200  -1.01642
 Alpha  occ. eigenvalues --   -0.98549  -0.98426  -0.95971  -0.87356  -0.86979
 Alpha  occ. eigenvalues --   -0.86123  -0.85083  -0.85054  -0.84324  -0.83174
 Alpha  occ. eigenvalues --   -0.83067  -0.82572  -0.82367  -0.81895  -0.81118
 Alpha  occ. eigenvalues --   -0.80910  -0.80023  -0.79410  -0.79200  -0.77468
 Alpha  occ. eigenvalues --   -0.76987  -0.76461  -0.75762  -0.75481  -0.73569
 Alpha  occ. eigenvalues --   -0.73501  -0.72147  -0.71581  -0.71125  -0.70631
 Alpha  occ. eigenvalues --   -0.70411  -0.69734  -0.68837  -0.68523  -0.67757
 Alpha  occ. eigenvalues --   -0.67057  -0.66651  -0.65364  -0.64726  -0.63417
 Alpha  occ. eigenvalues --   -0.62839  -0.62512  -0.61979  -0.61112  -0.60453
 Alpha  occ. eigenvalues --   -0.59790  -0.59715  -0.59150  -0.58270  -0.58131
 Alpha  occ. eigenvalues --   -0.57278  -0.56628  -0.56359  -0.55743  -0.55238
 Alpha  occ. eigenvalues --   -0.54532  -0.54079  -0.54023  -0.53762  -0.53446
 Alpha  occ. eigenvalues --   -0.52900  -0.52218  -0.51760  -0.51566  -0.51016
 Alpha  occ. eigenvalues --   -0.50791  -0.50373  -0.50016  -0.49686  -0.49558
 Alpha  occ. eigenvalues --   -0.49330  -0.49094  -0.48845  -0.48776  -0.48312
 Alpha  occ. eigenvalues --   -0.48193  -0.47725  -0.47237  -0.46978  -0.46837
 Alpha  occ. eigenvalues --   -0.46615  -0.46491  -0.46300  -0.46237  -0.46021
 Alpha  occ. eigenvalues --   -0.45733  -0.45480  -0.45252  -0.45071  -0.45034
 Alpha  occ. eigenvalues --   -0.44650  -0.44470  -0.44432  -0.44092  -0.44008
 Alpha  occ. eigenvalues --   -0.43725  -0.43100  -0.43075  -0.42742  -0.42564
 Alpha  occ. eigenvalues --   -0.42466  -0.42299  -0.42177  -0.41859  -0.41720
 Alpha  occ. eigenvalues --   -0.41342  -0.41253  -0.40936  -0.40795  -0.40411
 Alpha  occ. eigenvalues --   -0.40350  -0.40068  -0.39760  -0.39688  -0.39606
 Alpha  occ. eigenvalues --   -0.39489  -0.39386  -0.39208  -0.39138  -0.39121
 Alpha  occ. eigenvalues --   -0.38620  -0.38575  -0.38434  -0.38145  -0.37981
 Alpha  occ. eigenvalues --   -0.37818  -0.37549  -0.37463  -0.37205  -0.37013
 Alpha  occ. eigenvalues --   -0.36968  -0.36724  -0.36495  -0.36323  -0.36052
 Alpha  occ. eigenvalues --   -0.36019  -0.35741  -0.34759  -0.34667  -0.34458
 Alpha  occ. eigenvalues --   -0.34368  -0.34279  -0.34092  -0.33942  -0.33432
 Alpha  occ. eigenvalues --   -0.33278  -0.33229  -0.33153  -0.32758  -0.32748
 Alpha  occ. eigenvalues --   -0.32413  -0.32290  -0.31697  -0.30393  -0.30173
 Alpha  occ. eigenvalues --   -0.30065  -0.29554  -0.29125  -0.28656  -0.26880
 Alpha  occ. eigenvalues --   -0.26247  -0.25678  -0.25506  -0.24719  -0.21801
 Alpha  occ. eigenvalues --   -0.19663
 Alpha virt. eigenvalues --   -0.06803  -0.03811   0.00143   0.02902   0.02969
 Alpha virt. eigenvalues --    0.03973   0.04332   0.05199   0.05613   0.05921
 Alpha virt. eigenvalues --    0.06802   0.08781   0.08966   0.09354   0.09821

 Mulliken charges:
               1
     1  Mg   0.806986
     2  C    0.074291
     3  C   -0.216788
     4  C   -0.202116
     5  C   -0.175226
     6  N   -0.641531
     7  C    0.293457
     8  C   -0.168688
     9  C   -0.151322
    10  C    0.366642
    11  C   -0.284684
    12  C   -0.132830
    13  C   -0.281625
    14  C    0.623527
    15  O   -0.497676
    16  O   -0.479278
    17  N   -0.690556
    18  C    0.301217
    19  C    0.049038
    20  C    0.009104
    21  C    0.301528
    22  C   -0.392957
    23  C   -0.041430
    24  C   -0.250298
    25  N   -0.673186
    26  C    0.272160
    27  C    0.061915
    28  C    0.014854
    29  C    0.291647
    30  C   -0.370821
    31  C   -0.226802
    32  C   -0.317131
    33  N   -0.729135
    34  C    0.299310
    35  C   -0.047751
    36  C   -0.035409
    37  C    0.298528
    38  C   -0.346094
    39  C    0.388470
    40  O   -0.453088
    41  C   -0.318047
    42  C    0.590061
    43  O   -0.517526
    44  O   -0.406304
    45  C   -0.074728
    46  C    0.041084
    47  C   -0.151231
    48  C    0.078734
    49  C   -0.338224
    50  C   -0.207353
    51  C   -0.140150
    52  C   -0.170248
    53  C   -0.058833
    54  C   -0.299485
    55  C   -0.161025
    56  C   -0.180295
    57  C   -0.181063
    58  C   -0.056855
    59  C   -0.302668
    60  C   -0.158703
    61  C   -0.168858
    62  C   -0.154300
    63  C   -0.037862
    64  C   -0.312432
    65  C   -0.311866
    66  H    0.065496
    67  H    0.087279
    68  H    0.090180
    69  H    0.119694
    70  H    0.086932
    71  H    0.106384
    72  H    0.114815
    73  H    0.115269
    74  H    0.114831
    75  H    0.116272
    76  H    0.121554
    77  H    0.139453
    78  H    0.127731
    79  H    0.137139
    80  H    0.094942
    81  H    0.086584
    82  H    0.095800
    83  H    0.103727
    84  H    0.118362
    85  H    0.108868
    86  H    0.129250
    87  H    0.107412
    88  H    0.099070
    89  H    0.069271
    90  H    0.113199
    91  H    0.115260
    92  H    0.104760
    93  H    0.150540
    94  H    0.134811
    95  H    0.167468
    96  H    0.122021
    97  H    0.158442
    98  H    0.136964
    99  H    0.149794
   100  H    0.126005
   101  H    0.065352
   102  H    0.096138
   103  H    0.116622
   104  H    0.102068
   105  H    0.104714
   106  H    0.081898
   107  H    0.105157
   108  H    0.107409
   109  H    0.053125
   110  H    0.089626
   111  H    0.086415
   112  H    0.073508
   113  H    0.105711
   114  H    0.100582
   115  H    0.063801
   116  H    0.097896
   117  H    0.083537
   118  H    0.094940
   119  H    0.091145
   120  H    0.070126
   121  H    0.094349
   122  H    0.101451
   123  H    0.066412
   124  H    0.122254
   125  H    0.068576
   126  H    0.088895
   127  H    0.102105
   128  H    0.078501
   129  H    0.088559
   130  H    0.052121
   131  H    0.075538
   132  H    0.091523
   133  H    0.102894
   134  H    0.113537
   135  H    0.104433
   136  H    0.087962
   137  H    0.087467
 Sum of Mulliken charges =  -0.00000

 Dipole moment (field-independent basis, Debye):
    X=              3.5740    Y=              3.7397    Z=              0.8800  Tot=              5.2472
 Quadrupole moment (field-independent basis, Debye-Ang):
   XX=           -353.0990   YY=           -391.9581   ZZ=           -398.5826
   XY=            -26.9464   XZ=             -8.4039   YZ=             -3.8574

 Normal termination of Gaussian 16 at Sun Sep 15 19:35:19 2019.
