 Gaussian 09, Revision D.01,
 Gaussian 09:  ES64L-G09RevD.01 24-Apr-2013

 -------------------------------------
 # td=(NStates=1) CAM-B3LYP/6-31G(d,p)
 -------------------------------------

 --
 TD
 --
 Symbolic Z-matrix:
 Charge =  0 Multiplicity = 1

                         Standard orientation:
 ---------------------------------------------------------------------
 Center     Atomic      Atomic             Coordinates (Angstroms)
 Number     Number       Type             X           Y           Z
 ---------------------------------------------------------------------
      1         12           0       -7.088402    0.537022    0.128447
      2          6           0       -4.876939   -2.020429    0.461063
      3          6           0       -4.751117    2.847540    1.223573
      4          6           0       -9.285410    3.067945   -0.440947
      5          6           0       -9.494363   -1.692523   -0.810788
      6          7           0       -5.129975    0.375161    0.831277
      7          6           0       -4.354297   -0.656610    0.772277
      8          6           0       -2.924218   -0.368672    1.328715
      9          6           0       -3.016683    1.025825    1.726524
     10          6           0       -4.350337    1.455610    1.235455
     11          6           0       -2.859969    1.219270    3.272533
     12          6           0       -1.902583   -0.645768    0.146541
     13          6           0       -0.455658   -0.509157    0.659971
     14          6           0        0.522690   -0.728641   -0.544047
     15          8           0        0.231434   -1.028748   -1.665589
     16          8           0        1.729646   -0.436821   -0.175567
     17          7           0       -7.025924    2.575165    0.305218
     18          6           0       -6.036713    3.405346    0.752516
     19          6           0       -6.316856    4.778606    0.699615
     20          6           0       -7.580521    4.820386    0.320529
     21          6           0       -8.076896    3.478095   -0.046857
     22          6           0       -5.354721    5.808901    1.010788
     23          6           0       -8.533394    5.947781    0.198331
     24          6           0       -8.348593    7.117296    0.916854
     25          7           0       -9.039162    0.670339   -0.600235
     26          6           0       -9.815334    1.804431   -0.801832
     27          6           0      -11.179135    1.508753   -1.054190
     28          6           0      -11.199285    0.109848   -1.249014
     29          6           0       -9.879544   -0.353752   -0.865131
     30          6           0      -12.238457    2.537042   -1.297109
     31          6           0      -12.349944   -0.706943   -1.637093
     32          6           0      -12.495636   -0.939611   -3.294437
     33          7           0       -7.123453   -1.321316   -0.146940
     34          6           0       -8.259238   -2.200030   -0.536957
     35          6           0       -7.810368   -3.585847   -0.452897
     36          6           0       -6.504819   -3.570364   -0.124484
     37          6           0       -6.179420   -2.260722    0.062467
     38          6           0       -8.667011   -4.745053   -1.001442
     39          6           0       -5.330623   -4.483332    0.081678
     40          8           0       -5.225200   -5.663738    0.175554
     41          6           0       -4.142593   -3.265747    0.431644
     42          6           0       -3.531311   -3.697362    1.773673
     43          8           0       -3.840576   -3.236202    2.869999
     44          8           0       -2.772582   -4.689526    1.683419
     45          6           0       -2.142921   -5.268304    2.853330
     46          6           0        2.804156   -0.583224   -1.305755
     47          6           0        4.048970   -0.244976   -0.596373
     48          6           0        5.043921    0.420307   -0.917592
     49          6           0        5.092197    1.297462   -2.150303
     50          6           0        6.351474    0.507558   -0.205982
     51          6           0        7.586981   -0.042962   -0.916860
     52          6           0        8.896367   -0.071415   -0.019481
     53          6           0       10.220101   -0.556054   -0.876373
     54          6           0       10.025092   -1.948308   -1.273485
     55          6           0       11.402036   -0.373520    0.057045
     56          6           0       12.718076   -0.577123   -0.678572
     57          6           0       13.895493   -0.207657    0.292415
     58          6           0       15.284074   -0.178914   -0.363464
     59          6           0       15.749039   -1.650607   -0.786599
     60          6           0       16.378379    0.388385    0.521996
     61          6           0       17.784589    0.515620   -0.125736
     62          6           0       18.750117    1.350229    0.634429
     63          6           0       20.206658    1.265325    0.132862
     64          6           0       20.167554    2.074197   -1.249998
     65          6           0       21.102434    1.912685    1.112499
     66          1           0       -3.922078    3.660336    1.299322
     67          1           0      -10.054690    3.888452   -0.782934
     68          1           0      -10.232613   -2.442741   -1.132046
     69          1           0       -2.712115   -1.189272    2.141007
     70          1           0       -2.270027    1.497709    1.399630
     71          1           0       -1.834211    0.948166    3.564303
     72          1           0       -2.791160    2.368026    3.477501
     73          1           0       -3.562283    0.777249    3.955489
     74          1           0       -1.960026   -1.552545   -0.064942
     75          1           0       -2.036248   -0.053963   -0.919306
     76          1           0       -0.401110    0.677309    0.760888
     77          1           0        0.010849   -1.093564    1.571939
     78          1           0       -5.612360    6.885733    0.751159
     79          1           0       -5.316190    6.117147    1.983498
     80          1           0       -4.283752    5.641269    0.797450
     81          1           0       -9.256856    5.952475   -0.499877
     82          1           0       -8.960261    8.117067    0.869151
     83          1           0       -7.612262    7.270693    1.652395
     84          1           0      -11.702604    3.353476   -1.998100
     85          1           0      -13.183663    2.020859   -1.768875
     86          1           0      -12.288665    3.102931   -0.278553
     87          1           0      -12.292176   -1.782461   -1.410413
     88          1           0      -13.335914   -0.382808   -1.286839
     89          1           0      -13.428569   -1.335305   -3.424451
     90          1           0      -12.321904    0.082773   -3.551832
     91          1           0      -11.510477   -1.259796   -3.510466
     92          1           0       -8.869449   -4.654016   -1.943532
     93          1           0       -8.014204   -5.683894   -0.962198
     94          1           0       -9.661837   -5.008665   -0.352664
     95          1           0       -3.534780   -3.632638   -0.459629
     96          1           0       -1.202685   -4.654882    3.264016
     97          1           0       -2.900945   -5.628624    3.651077
     98          1           0       -1.745985   -6.243239    2.435610
     99          1           0        2.669219   -1.602630   -1.521597
    100          1           0        2.717004    0.028445   -2.007025
    101          1           0        4.247835   -0.911366    0.266119
    102          1           0        3.894766    1.345701   -2.700211
    103          1           0        5.340379    2.400487   -2.136998
    104          1           0        5.751607    1.031615   -2.833376
    105          1           0        6.594189    1.458092    0.069021
    106          1           0        6.023959    0.146288    0.905001
    107          1           0        7.408552   -0.973859   -1.526662
    108          1           0        7.655845    0.573292   -1.951329
    109          1           0        8.973370    0.965407    0.370501
    110          1           0        8.632613   -0.653444    0.930399
    111          1           0       10.340412    0.169661   -1.672434
    112          1           0        9.100695   -2.382834   -1.914227
    113          1           0       10.905655   -2.561882   -1.927565
    114          1           0       10.200596   -2.685327   -0.455260
    115          1           0       11.487146    0.781526    0.280798
    116          1           0       11.429567   -1.095567    0.809105
    117          1           0       12.658834   -1.634871   -0.950534
    118          1           0       12.546304   -0.090924   -1.568601
    119          1           0       13.499894    0.770686    0.906762
    120          1           0       13.942793   -1.082949    1.079579
    121          1           0       15.382883    0.302638   -1.277049
    122          1           0       15.368154   -2.279898    0.072047
    123          1           0       14.991049   -1.966950   -1.404099
    124          1           0       16.544308   -1.779249   -1.323719
    125          1           0       16.000998    1.396995    0.887644
    126          1           0       16.469909   -0.288571    1.441164
    127          1           0       18.212022   -0.341291   -0.366628
    128          1           0       17.582896    1.139232   -1.039778
    129          1           0       18.438526    2.442141    0.520179
    130          1           0       18.500116    1.001498    1.778779
    131          1           0       20.484581    0.140923   -0.028170
    132          1           0       19.637210    3.094629   -0.990464
    133          1           0       21.233557    2.235815   -1.476422
    134          1           0       19.670427    1.452794   -2.095162
    135          1           0       21.130092    1.445253    2.264669
    136          1           0       22.050161    1.987937    0.425905
    137          1           0       20.678814    2.972951    1.229591
 ---------------------------------------------------------------------

 SCF Done:  E(RCAM-B3LYP) =  -2932.51564824     A.U. after   15 cycles

 Excitation energies and oscillator strengths:

 Excited State   1:      Singlet-A      2.0996 eV  590.51 nm  f=0.1919  <S**2>=0.000
     240 -> 243       -0.29297
     241 -> 242        0.62653
 This state for optimization and/or second-order correction.
 Total Energy, E(TD-HF/TD-KS) =  -2932.43848859
 Copying the excited state density for this state as the 1-particle RhoCI density.

 The electronic state is 1-A.
 Alpha  occ. eigenvalues --  -46.82581 -19.26712 -19.25465 -19.22913 -19.19506
 Alpha  occ. eigenvalues --  -19.18083 -14.41598 -14.39274 -14.38332 -14.38290
 Alpha  occ. eigenvalues --  -10.37746 -10.37650 -10.36905 -10.33682 -10.31260
 Alpha  occ. eigenvalues --  -10.31249 -10.30952 -10.29825 -10.28877 -10.28791
 Alpha  occ. eigenvalues --  -10.28695 -10.28301 -10.28196 -10.28089 -10.27950
 Alpha  occ. eigenvalues --  -10.27912 -10.27799 -10.27660 -10.27598 -10.27594
 Alpha  occ. eigenvalues --  -10.27544 -10.27389 -10.27362 -10.27274 -10.27051
 Alpha  occ. eigenvalues --  -10.27017 -10.26992 -10.26976 -10.26968 -10.26964
 Alpha  occ. eigenvalues --  -10.26812 -10.26792 -10.26762 -10.26583 -10.26514
 Alpha  occ. eigenvalues --  -10.26489 -10.25976 -10.25872 -10.25852 -10.25700
 Alpha  occ. eigenvalues --  -10.25617 -10.25564 -10.25446 -10.25415 -10.25366
 Alpha  occ. eigenvalues --  -10.25364 -10.25326 -10.25311 -10.25259 -10.25088
 Alpha  occ. eigenvalues --  -10.25049 -10.24290 -10.23839 -10.23501 -10.22771
 Alpha  occ. eigenvalues --   -3.11982  -1.86651  -1.86225  -1.86209  -1.20665
 Alpha  occ. eigenvalues --   -1.18204  -1.14062  -1.08215  -1.06777  -1.05476
 Alpha  occ. eigenvalues --   -1.02965  -1.02692  -1.01706  -0.93148  -0.91398
 Alpha  occ. eigenvalues --   -0.91364  -0.90623  -0.90205  -0.89476  -0.88361
 Alpha  occ. eigenvalues --   -0.88238  -0.87623  -0.87314  -0.86953  -0.86375
 Alpha  occ. eigenvalues --   -0.85368  -0.84012  -0.83457  -0.82910  -0.82203
 Alpha  occ. eigenvalues --   -0.81923  -0.81357  -0.80539  -0.79582  -0.78392
 Alpha  occ. eigenvalues --   -0.77643  -0.76880  -0.76555  -0.75779  -0.75340
 Alpha  occ. eigenvalues --   -0.74702  -0.74574  -0.74317  -0.73645  -0.72086
 Alpha  occ. eigenvalues --   -0.71623  -0.70472  -0.69457  -0.69198  -0.68154
 Alpha  occ. eigenvalues --   -0.66625  -0.66583  -0.65754  -0.65114  -0.64710
 Alpha  occ. eigenvalues --   -0.64589  -0.63185  -0.63110  -0.62894  -0.61544
 Alpha  occ. eigenvalues --   -0.61513  -0.60889  -0.60619  -0.59700  -0.59316
 Alpha  occ. eigenvalues --   -0.59022  -0.58157  -0.57685  -0.57370  -0.56491
 Alpha  occ. eigenvalues --   -0.56172  -0.55875  -0.55772  -0.55098  -0.54950
 Alpha  occ. eigenvalues --   -0.54301  -0.54172  -0.53590  -0.53408  -0.53038
 Alpha  occ. eigenvalues --   -0.52933  -0.52818  -0.52555  -0.52449  -0.51801
 Alpha  occ. eigenvalues --   -0.51417  -0.51080  -0.50816  -0.50677  -0.50378
 Alpha  occ. eigenvalues --   -0.50174  -0.50075  -0.49908  -0.49486  -0.49203
 Alpha  occ. eigenvalues --   -0.49020  -0.48856  -0.48602  -0.48462  -0.48200
 Alpha  occ. eigenvalues --   -0.48038  -0.47764  -0.47308  -0.47176  -0.47020
 Alpha  occ. eigenvalues --   -0.46968  -0.46769  -0.46448  -0.46277  -0.46089
 Alpha  occ. eigenvalues --   -0.45921  -0.45405  -0.45181  -0.45025  -0.44946
 Alpha  occ. eigenvalues --   -0.44200  -0.44011  -0.43979  -0.43949  -0.43755
 Alpha  occ. eigenvalues --   -0.43729  -0.43617  -0.43459  -0.43315  -0.42851
 Alpha  occ. eigenvalues --   -0.42734  -0.42566  -0.42272  -0.42103  -0.42055
 Alpha  occ. eigenvalues --   -0.41950  -0.41790  -0.41748  -0.41485  -0.41238
 Alpha  occ. eigenvalues --   -0.41209  -0.41043  -0.40812  -0.40796  -0.40152
 Alpha  occ. eigenvalues --   -0.39903  -0.39634  -0.39412  -0.39219  -0.38918
 Alpha  occ. eigenvalues --   -0.38790  -0.38556  -0.38388  -0.38049  -0.37629
 Alpha  occ. eigenvalues --   -0.37480  -0.37261  -0.37245  -0.36886  -0.36212
 Alpha  occ. eigenvalues --   -0.36131  -0.35867  -0.35814  -0.35564  -0.35261
 Alpha  occ. eigenvalues --   -0.35117  -0.34809  -0.34666  -0.33881  -0.33833
 Alpha  occ. eigenvalues --   -0.33249  -0.32280  -0.31679  -0.31507  -0.30959
 Alpha  occ. eigenvalues --   -0.29787  -0.28920  -0.27722  -0.26519  -0.22630
 Alpha  occ. eigenvalues --   -0.20528
 Alpha virt. eigenvalues --   -0.05308  -0.03196   0.01778   0.04401   0.06303
 Alpha virt. eigenvalues --    0.06386   0.06888   0.07437   0.07806   0.08598
 Alpha virt. eigenvalues --    0.08693   0.10840   0.10883   0.11372   0.11514

 Mulliken charges:
               1
     1  Mg   0.822686
     2  C    0.069467
     3  C   -0.208813
     4  C   -0.182477
     5  C   -0.198307
     6  N   -0.610843
     7  C    0.339147
     8  C   -0.184116
     9  C   -0.080191
    10  C    0.308134
    11  C   -0.316984
    12  C   -0.158268
    13  C   -0.278148
    14  C    0.592739
    15  O   -0.487853
    16  O   -0.480471
    17  N   -0.678922
    18  C    0.277464
    19  C    0.113467
    20  C   -0.010527
    21  C    0.290080
    22  C   -0.410785
    23  C   -0.064168
    24  C   -0.250838
    25  N   -0.668355
    26  C    0.249471
    27  C    0.034577
    28  C    0.033833
    29  C    0.309596
    30  C   -0.367237
    31  C   -0.298827
    32  C   -0.325248
    33  N   -0.764808
    34  C    0.263186
    35  C   -0.013964
    36  C    0.073332
    37  C    0.318254
    38  C   -0.372446
    39  C    0.360951
    40  O   -0.408904
    41  C   -0.395000
    42  C    0.610335
    43  O   -0.519224
    44  O   -0.394526
    45  C   -0.086686
    46  C    0.052268
    47  C   -0.145266
    48  C    0.160674
    49  C   -0.364936
    50  C   -0.217756
    51  C   -0.184806
    52  C   -0.176152
    53  C   -0.049542
    54  C   -0.309507
    55  C   -0.177461
    56  C   -0.180145
    57  C   -0.171324
    58  C   -0.062369
    59  C   -0.324557
    60  C   -0.160769
    61  C   -0.164749
    62  C   -0.151738
    63  C   -0.066863
    64  C   -0.304521
    65  C   -0.268404
    66  H    0.074792
    67  H    0.069124
    68  H    0.091155
    69  H    0.139077
    70  H    0.099306
    71  H    0.105819
    72  H    0.088786
    73  H    0.135260
    74  H    0.128143
    75  H    0.113756
    76  H    0.118022
    77  H    0.128586
    78  H    0.113513
    79  H    0.139580
    80  H    0.120638
    81  H    0.099486
    82  H    0.095555
    83  H    0.101553
    84  H    0.110201
    85  H    0.115585
    86  H    0.125290
    87  H    0.106439
    88  H    0.102879
    89  H    0.119031
    90  H    0.112509
    91  H    0.120579
    92  H    0.147900
    93  H    0.129606
    94  H    0.107986
    95  H    0.146359
    96  H    0.119183
    97  H    0.143017
    98  H    0.127919
    99  H    0.148342
   100  H    0.115993
   101  H    0.081205
   102  H    0.053508
   103  H    0.114775
   104  H    0.136353
   105  H    0.121493
   106  H    0.067608
   107  H    0.098136
   108  H    0.066502
   109  H    0.094230
   110  H    0.099586
   111  H    0.098261
   112  H    0.101174
   113  H    0.066562
   114  H    0.111802
   115  H    0.079528
   116  H    0.102499
   117  H    0.093154
   118  H    0.097258
   119  H    0.075982
   120  H    0.082573
   121  H    0.091394
   122  H    0.090060
   123  H    0.106457
   124  H    0.112981
   125  H    0.075560
   126  H    0.072296
   127  H    0.102343
   128  H    0.080584
   129  H    0.076290
   130  H    0.054769
   131  H    0.076775
   132  H    0.096686
   133  H    0.099343
   134  H    0.110023
   135  H    0.093951
   136  H    0.083900
   137  H    0.091570
 Sum of Mulliken charges =   0.00000

 Dipole moment (field-independent basis, Debye):
    X=              4.3909    Y=              2.7703    Z=             -0.6087  Tot=              5.2273
 Quadrupole moment (field-independent basis, Debye-Ang):
   XX=           -366.3249   YY=           -379.9203   ZZ=           -400.6664
   XY=            -18.4429   XZ=             -0.9624   YZ=              1.5887

 Normal termination of Gaussian 09 at Sat Jul  6 03:19:14 2019.
