 Gaussian 16, Revision A.03,
 Gaussian 16:  ES64L-G16RevA.03 25-Dec-2016

 ----------------------------------------------------------------------
 # td=(NStates=1) iop(3/107=0140000000,3/108=0140000000) CAM-B3LYP/6-31
 G(d,p)
 ----------------------------------------------------------------------

 --
 TD
 --
 Symbolic Z-matrix:
 Charge =  0 Multiplicity = 1

                         Standard orientation:
 ---------------------------------------------------------------------
 Center     Atomic      Atomic             Coordinates (Angstroms)
 Number     Number       Type             X           Y           Z
 ---------------------------------------------------------------------
      1         12           0       -7.147013    0.644894    0.007171
      2          6           0       -4.868866   -2.042813    0.484562
      3          6           0       -4.714003    2.820402    1.156817
      4          6           0       -9.352754    3.154571   -0.534710
      5          6           0       -9.482426   -1.716742   -1.052102
      6          7           0       -5.109372    0.439860    0.804338
      7          6           0       -4.300990   -0.729387    0.835956
      8          6           0       -2.934415   -0.403429    1.246121
      9          6           0       -3.011542    1.023799    1.759458
     10          6           0       -4.387905    1.510427    1.243050
     11          6           0       -2.909768    1.107309    3.251044
     12          6           0       -1.940049   -0.530952    0.124502
     13          6           0       -0.541726   -0.525838    0.584486
     14          6           0        0.486106   -0.662081   -0.562420
     15          8           0        0.155533   -1.021665   -1.626942
     16          8           0        1.715606   -0.404738   -0.100116
     17          7           0       -7.055436    2.638019    0.200985
     18          6           0       -5.979800    3.416925    0.671267
     19          6           0       -6.375443    4.749091    0.827814
     20          6           0       -7.739349    4.883059    0.501964
     21          6           0       -8.093669    3.469669   -0.066051
     22          6           0       -5.462861    5.846693    1.319444
     23          6           0       -8.560973    6.006651    0.252118
     24          6           0       -8.470558    7.270864    0.806971
     25          7           0       -9.068963    0.637589   -0.535663
     26          6           0       -9.754593    1.819926   -0.699015
     27          6           0      -11.106228    1.579205   -1.221417
     28          6           0      -11.205879    0.165192   -1.380605
     29          6           0       -9.914554   -0.362527   -0.993115
     30          6           0      -12.244219    2.503710   -1.522558
     31          6           0      -12.217309   -0.809813   -1.819024
     32          6           0      -12.153473   -1.143053   -3.293530
     33          7           0       -7.107271   -1.361006   -0.204610
     34          6           0       -8.273311   -2.235803   -0.559687
     35          6           0       -7.781750   -3.622336   -0.468151
     36          6           0       -6.489611   -3.623476   -0.182079
     37          6           0       -6.185882   -2.141452    0.116725
     38          6           0       -8.667136   -4.861236   -0.714035
     39          6           0       -5.293908   -4.328612    0.161248
     40          8           0       -5.040949   -5.515447    0.073633
     41          6           0       -4.220809   -3.308484    0.560741
     42          6           0       -3.563636   -3.671777    1.926803
     43          8           0       -3.816626   -3.151666    2.975460
     44          8           0       -2.698586   -4.678508    1.838806
     45          6           0       -2.251743   -5.295849    3.017594
     46          6           0        2.702184   -0.751064   -1.132864
     47          6           0        4.070078   -0.612438   -0.542249
     48          6           0        5.058995    0.272380   -0.787695
     49          6           0        5.032544    1.157537   -1.994366
     50          6           0        6.328986    0.195000   -0.037777
     51          6           0        7.628889   -0.277245   -0.815961
     52          6           0        8.864759   -0.078943   -0.061757
     53          6           0       10.243378   -0.491242   -0.912368
     54          6           0       10.048507   -1.921880   -1.439537
     55          6           0       11.420557   -0.204050   -0.073258
     56          6           0       12.698829   -0.366506   -0.738399
     57          6           0       13.915148   -0.122921    0.108493
     58          6           0       15.348725   -0.163279   -0.629543
     59          6           0       15.701418   -1.551359   -1.101003
     60          6           0       16.377606    0.509994    0.286067
     61          6           0       17.742977    0.563059   -0.272266
     62          6           0       18.647172    1.301411    0.620188
     63          6           0       20.210641    1.287185    0.236239
     64          6           0       20.465027    2.177621   -1.035231
     65          6           0       21.134858    1.787733    1.399894
     66          1           0       -3.892476    3.416513    1.647828
     67          1           0      -10.114044    3.995772   -0.610768
     68          1           0      -10.286536   -2.348578   -1.482253
     69          1           0       -2.642641   -1.062655    2.155077
     70          1           0       -2.313028    1.560769    1.174696
     71          1           0       -2.223417    0.696278    3.910129
     72          1           0       -2.950148    2.162477    3.490468
     73          1           0       -3.956272    0.783146    3.916636
     74          1           0       -2.207563   -1.387798   -0.646705
     75          1           0       -2.081788    0.444573   -0.555734
     76          1           0       -0.489032    0.434313    1.196007
     77          1           0       -0.329427   -1.360919    1.299073
     78          1           0       -5.569104    6.834580    0.749255
     79          1           0       -5.591914    5.930784    2.381014
     80          1           0       -4.477280    5.395904    0.978441
     81          1           0       -9.413800    6.041102   -0.488459
     82          1           0       -9.338878    7.997941    0.205638
     83          1           0       -7.829432    7.547010    1.461992
     84          1           0      -11.657378    3.223184   -2.174687
     85          1           0      -13.159253    2.064290   -2.010400
     86          1           0      -12.558124    3.121744   -0.474331
     87          1           0      -12.135076   -1.544692   -0.992348
     88          1           0      -13.288198   -0.261335   -1.806371
     89          1           0      -13.128040   -1.741085   -3.579970
     90          1           0      -12.063589   -0.284834   -4.044246
     91          1           0      -11.384645   -1.730125   -3.455608
     92          1           0       -8.833047   -4.825263   -1.934901
     93          1           0       -8.002858   -5.595653   -0.369928
     94          1           0       -9.686724   -4.828498   -0.240722
     95          1           0       -3.368912   -3.369424   -0.057424
     96          1           0       -1.837249   -4.568651    3.741632
     97          1           0       -3.011938   -5.988704    3.667456
     98          1           0       -1.406078   -6.001252    2.755220
     99          1           0        2.466830   -1.772769   -1.464642
    100          1           0        2.623685   -0.134273   -1.923030
    101          1           0        4.283125   -1.377991    0.349161
    102          1           0        3.840340    1.387523   -2.348444
    103          1           0        5.323328    2.240565   -1.658222
    104          1           0        5.537137    0.972539   -2.861268
    105          1           0        6.608113    1.184146    0.477188
    106          1           0        6.313993   -0.407475    1.058879
    107          1           0        7.677417   -1.374253   -1.250439
    108          1           0        7.663520    0.391142   -1.843126
    109          1           0        9.052202    0.928379    0.231873
    110          1           0        8.855245   -0.854769    0.957283
    111          1           0       10.073556    0.124371   -1.689088
    112          1           0        9.111792   -1.884707   -1.928777
    113          1           0       11.020902   -2.233053   -2.018626
    114          1           0        9.880728   -2.442346   -0.515202
    115          1           0       11.130089    0.915288    0.345591
    116          1           0       11.322666   -0.761495    0.917170
    117          1           0       12.781351   -1.307056   -1.099839
    118          1           0       12.739184    0.285087   -1.530000
    119          1           0       14.007533    0.772106    0.766171
    120          1           0       14.044227   -0.956677    0.916142
    121          1           0       15.222816    0.474932   -1.561729
    122          1           0       15.746603   -2.210660   -0.214558
    123          1           0       14.925133   -1.858844   -1.705564
    124          1           0       16.679205   -1.688367   -1.512072
    125          1           0       16.146399    1.501646    0.515101
    126          1           0       16.533641   -0.209025    1.044062
    127          1           0       18.309020   -0.310130   -0.567474
    128          1           0       17.698457    1.138224   -1.249216
    129          1           0       18.405864    2.352672    0.714525
    130          1           0       18.532742    0.870505    1.549906
    131          1           0       20.433986    0.248014    0.014643
    132          1           0       20.170178    3.297846   -0.714255
    133          1           0       21.573752    1.907230   -1.325369
    134          1           0       19.762485    1.844916   -1.896928
    135          1           0       21.103940    1.270779    2.323773
    136          1           0       22.233906    1.761010    1.027258
    137          1           0       20.966948    2.983329    1.494525
 ---------------------------------------------------------------------

 SCF Done:  E(RCAM-B3LYP) =  -2933.50258102     A.U. after   16 cycles

 Excitation energies and oscillator strengths:

 Excited State   1:      Singlet-A      1.9876 eV  623.79 nm  f=0.2484  <S**2>=0.000
     240 -> 243       -0.24882
     241 -> 242        0.65362
 This state for optimization and/or second-order correction.
 Total Energy, E(TD-HF/TD-DFT) =  -2933.42953790
 Copying the excited state density for this state as the 1-particle RhoCI density.

 The electronic state is 1-A.
 Alpha  occ. eigenvalues --  -46.79392 -19.22532 -19.22478 -19.17293 -19.16319
 Alpha  occ. eigenvalues --  -19.15710 -14.37229 -14.35781 -14.35547 -14.35103
 Alpha  occ. eigenvalues --  -10.34354 -10.34327 -10.30129 -10.28126 -10.27051
 Alpha  occ. eigenvalues --  -10.26886 -10.26102 -10.26012 -10.25449 -10.24842
 Alpha  occ. eigenvalues --  -10.24691 -10.24494 -10.24362 -10.24272 -10.24245
 Alpha  occ. eigenvalues --  -10.24090 -10.23900 -10.23895 -10.23582 -10.23457
 Alpha  occ. eigenvalues --  -10.23287 -10.23157 -10.23129 -10.23107 -10.23027
 Alpha  occ. eigenvalues --  -10.22980 -10.22952 -10.22926 -10.22849 -10.22657
 Alpha  occ. eigenvalues --  -10.22645 -10.22606 -10.22465 -10.22347 -10.22287
 Alpha  occ. eigenvalues --  -10.22252 -10.22097 -10.22035 -10.22008 -10.21954
 Alpha  occ. eigenvalues --  -10.21912 -10.21640 -10.21569 -10.21547 -10.21272
 Alpha  occ. eigenvalues --  -10.21220 -10.21218 -10.21037 -10.20748 -10.20413
 Alpha  occ. eigenvalues --  -10.19591 -10.19444 -10.19347 -10.19181 -10.19075
 Alpha  occ. eigenvalues --   -3.08125  -1.83056  -1.82598  -1.82544  -1.14485
 Alpha  occ. eigenvalues --   -1.14481  -1.06625  -1.06012  -1.04935  -0.99297
 Alpha  occ. eigenvalues --   -0.97765  -0.97314  -0.96429  -0.88113  -0.86722
 Alpha  occ. eigenvalues --   -0.86125  -0.85775  -0.85319  -0.84463  -0.83707
 Alpha  occ. eigenvalues --   -0.83329  -0.82921  -0.82718  -0.82019  -0.81187
 Alpha  occ. eigenvalues --   -0.80616  -0.79561  -0.78693  -0.78467  -0.77699
 Alpha  occ. eigenvalues --   -0.77424  -0.76743  -0.76005  -0.74921  -0.73379
 Alpha  occ. eigenvalues --   -0.72868  -0.71923  -0.71460  -0.71364  -0.71289
 Alpha  occ. eigenvalues --   -0.70623  -0.70290  -0.69012  -0.68526  -0.68112
 Alpha  occ. eigenvalues --   -0.67118  -0.65923  -0.65475  -0.64808  -0.64043
 Alpha  occ. eigenvalues --   -0.62552  -0.61663  -0.61525  -0.60587  -0.60148
 Alpha  occ. eigenvalues --   -0.59638  -0.59275  -0.58987  -0.58449  -0.57943
 Alpha  occ. eigenvalues --   -0.57573  -0.56764  -0.56192  -0.55702  -0.55258
 Alpha  occ. eigenvalues --   -0.54663  -0.53908  -0.53659  -0.53492  -0.52906
 Alpha  occ. eigenvalues --   -0.52087  -0.52025  -0.51676  -0.50936  -0.50879
 Alpha  occ. eigenvalues --   -0.50743  -0.50555  -0.50161  -0.49863  -0.49650
 Alpha  occ. eigenvalues --   -0.49311  -0.49159  -0.48918  -0.48782  -0.48257
 Alpha  occ. eigenvalues --   -0.48078  -0.47810  -0.47539  -0.47263  -0.47160
 Alpha  occ. eigenvalues --   -0.46908  -0.46534  -0.46396  -0.46302  -0.46057
 Alpha  occ. eigenvalues --   -0.45645  -0.45221  -0.45121  -0.44890  -0.44748
 Alpha  occ. eigenvalues --   -0.44531  -0.44152  -0.44119  -0.43846  -0.43758
 Alpha  occ. eigenvalues --   -0.43501  -0.43457  -0.43292  -0.42884  -0.42707
 Alpha  occ. eigenvalues --   -0.42434  -0.42175  -0.42117  -0.41994  -0.41812
 Alpha  occ. eigenvalues --   -0.41606  -0.41489  -0.41253  -0.41127  -0.41095
 Alpha  occ. eigenvalues --   -0.40633  -0.40549  -0.40220  -0.40192  -0.40064
 Alpha  occ. eigenvalues --   -0.39911  -0.39462  -0.38789  -0.38583  -0.38480
 Alpha  occ. eigenvalues --   -0.38445  -0.38397  -0.38100  -0.37922  -0.37676
 Alpha  occ. eigenvalues --   -0.37501  -0.37347  -0.37304  -0.37196  -0.36983
 Alpha  occ. eigenvalues --   -0.36972  -0.36689  -0.36581  -0.36320  -0.35908
 Alpha  occ. eigenvalues --   -0.35608  -0.35577  -0.35214  -0.34690  -0.34578
 Alpha  occ. eigenvalues --   -0.34238  -0.34208  -0.33881  -0.33599  -0.33372
 Alpha  occ. eigenvalues --   -0.33136  -0.32954  -0.32804  -0.32775  -0.32633
 Alpha  occ. eigenvalues --   -0.32370  -0.32291  -0.31766  -0.31230  -0.30686
 Alpha  occ. eigenvalues --   -0.30502  -0.30069  -0.29370  -0.28843  -0.27614
 Alpha  occ. eigenvalues --   -0.27520  -0.26677  -0.25035  -0.24356  -0.21475
 Alpha  occ. eigenvalues --   -0.19696
 Alpha virt. eigenvalues --   -0.06987  -0.04333  -0.00133   0.02320   0.02522
 Alpha virt. eigenvalues --    0.04106   0.04597   0.05252   0.05365   0.06095
 Alpha virt. eigenvalues --    0.06195   0.08761   0.08989   0.09473   0.09571

 Mulliken charges:
               1
     1  Mg   0.812554
     2  C    0.100222
     3  C   -0.192935
     4  C   -0.154329
     5  C   -0.201033
     6  N   -0.625942
     7  C    0.306852
     8  C   -0.162936
     9  C   -0.134191
    10  C    0.334271
    11  C   -0.314790
    12  C   -0.174047
    13  C   -0.259133
    14  C    0.615182
    15  O   -0.442105
    16  O   -0.462379
    17  N   -0.705603
    18  C    0.309642
    19  C    0.004705
    20  C    0.016707
    21  C    0.285139
    22  C   -0.368732
    23  C   -0.094501
    24  C   -0.211738
    25  N   -0.715130
    26  C    0.319801
    27  C    0.005572
    28  C    0.048786
    29  C    0.282090
    30  C   -0.362920
    31  C   -0.258847
    32  C   -0.297324
    33  N   -0.707424
    34  C    0.248988
    35  C   -0.040232
    36  C    0.072061
    37  C    0.329437
    38  C   -0.347721
    39  C    0.358164
    40  O   -0.466072
    41  C   -0.321405
    42  C    0.586047
    43  O   -0.457368
    44  O   -0.412557
    45  C   -0.088347
    46  C    0.010982
    47  C   -0.127713
    48  C    0.162130
    49  C   -0.368878
    50  C   -0.228868
    51  C   -0.157661
    52  C   -0.167538
    53  C   -0.070101
    54  C   -0.306513
    55  C   -0.149916
    56  C   -0.155513
    57  C   -0.185849
    58  C   -0.070378
    59  C   -0.310617
    60  C   -0.155007
    61  C   -0.185841
    62  C   -0.163254
    63  C   -0.069339
    64  C   -0.289618
    65  C   -0.298642
    66  H    0.081938
    67  H    0.099166
    68  H    0.088418
    69  H    0.122652
    70  H    0.110720
    71  H    0.131294
    72  H    0.107162
    73  H    0.087137
    74  H    0.110795
    75  H    0.089923
    76  H    0.118809
    77  H    0.129080
    78  H    0.116144
    79  H    0.135632
    80  H    0.109890
    81  H    0.092848
    82  H    0.068098
    83  H    0.086658
    84  H    0.121709
    85  H    0.121308
    86  H    0.095613
    87  H    0.120169
    88  H    0.077397
    89  H    0.088114
    90  H    0.110886
    91  H    0.123245
    92  H    0.108635
    93  H    0.151545
    94  H    0.126023
    95  H    0.156046
    96  H    0.126268
    97  H    0.109384
    98  H    0.120232
    99  H    0.131167
   100  H    0.120046
   101  H    0.076264
   102  H    0.080772
   103  H    0.101986
   104  H    0.146038
   105  H    0.100537
   106  H    0.075410
   107  H    0.095326
   108  H    0.064907
   109  H    0.097968
   110  H    0.048956
   111  H    0.096683
   112  H    0.107728
   113  H    0.090493
   114  H    0.107675
   115  H    0.055547
   116  H    0.081988
   117  H    0.107292
   118  H    0.104001
   119  H    0.086965
   120  H    0.067164
   121  H    0.064789
   122  H    0.090759
   123  H    0.108860
   124  H    0.108665
   125  H    0.100586
   126  H    0.095814
   127  H    0.089947
   128  H    0.072144
   129  H    0.081024
   130  H    0.088978
   131  H    0.083629
   132  H    0.090108
   133  H    0.094503
   134  H    0.097228
   135  H    0.111512
   136  H    0.087247
   137  H    0.078015
 Sum of Mulliken charges =  -0.00000

 Dipole moment (field-independent basis, Debye):
    X=              2.3352    Y=              2.8832    Z=             -0.2647  Tot=              3.7197
 Quadrupole moment (field-independent basis, Debye-Ang):
   XX=           -352.2933   YY=           -402.5633   ZZ=           -395.8361
   XY=            -16.9408   XZ=             12.5245   YZ=             -4.4305

 Normal termination of Gaussian 16 at Thu Sep 12 20:45:31 2019.
