 Gaussian 16, Revision A.03,
 Gaussian 16:  ES64L-G16RevA.03 25-Dec-2016

 ----------------------------------------------------------------------
 # td=(NStates=1) iop(3/107=0140000000,3/108=0140000000) CAM-B3LYP/6-31
 G(d,p)
 ----------------------------------------------------------------------

 --
 TD
 --
 Symbolic Z-matrix:
 Charge =  0 Multiplicity = 1

                         Standard orientation:
 ---------------------------------------------------------------------
 Center     Atomic      Atomic             Coordinates (Angstroms)
 Number     Number       Type             X           Y           Z
 ---------------------------------------------------------------------
      1         12           0       -7.109017    0.588281    0.150983
      2          6           0       -4.830696   -1.992661    0.324337
      3          6           0       -4.744449    2.742279    1.175445
      4          6           0       -9.380488    3.128178   -0.301101
      5          6           0       -9.696777   -1.720443   -0.713309
      6          7           0       -5.041488    0.385069    0.699331
      7          6           0       -4.316273   -0.804467    0.678206
      8          6           0       -2.911623   -0.544339    1.162729
      9          6           0       -3.014287    0.870121    1.737190
     10          6           0       -4.331032    1.408187    1.213643
     11          6           0       -2.877794    0.960149    3.259318
     12          6           0       -1.853120   -0.605233   -0.040990
     13          6           0       -0.391195   -0.478957    0.534811
     14          6           0        0.617626   -0.672176   -0.600046
     15          8           0        0.266062   -1.112281   -1.741594
     16          8           0        1.910379   -0.383554   -0.219034
     17          7           0       -7.037040    2.574611    0.285357
     18          6           0       -5.963722    3.361974    0.699022
     19          6           0       -6.329104    4.762894    0.781535
     20          6           0       -7.599643    4.873105    0.295998
     21          6           0       -8.036700    3.485882    0.074427
     22          6           0       -5.358215    5.938776    1.199944
     23          6           0       -8.509721    6.045178    0.112725
     24          6           0       -8.220775    7.269809    0.686921
     25          7           0       -9.053323    0.701706   -0.435679
     26          6           0       -9.822439    1.908452   -0.573592
     27          6           0      -11.233681    1.590401   -0.971031
     28          6           0      -11.269584    0.314094   -1.155273
     29          6           0       -9.983145   -0.358705   -0.756583
     30          6           0      -12.294586    2.580222   -1.306195
     31          6           0      -12.410470   -0.617807   -1.579298
     32          6           0      -12.178990   -0.978800   -3.098768
     33          7           0       -7.300951   -1.395367   -0.174437
     34          6           0       -8.416781   -2.170008   -0.466556
     35          6           0       -7.957852   -3.572560   -0.426509
     36          6           0       -6.588794   -3.588543   -0.173918
     37          6           0       -6.191952   -2.178418    0.009339
     38          6           0       -8.814224   -4.765185   -0.803633
     39          6           0       -5.331322   -4.439205    0.040695
     40          8           0       -5.222915   -5.649772   -0.034025
     41          6           0       -4.213517   -3.407546    0.317051
     42          6           0       -3.582791   -3.760087    1.708045
     43          8           0       -3.945945   -3.186710    2.778858
     44          8           0       -2.836768   -4.852555    1.663383
     45          6           0       -2.430274   -5.410783    2.896654
     46          6           0        2.878721   -0.592573   -1.202007
     47          6           0        4.086213   -0.310202   -0.508603
     48          6           0        5.241100    0.416984   -0.916581
     49          6           0        5.068732    1.198948   -2.205925
     50          6           0        6.413080    0.564366   -0.104284
     51          6           0        7.627591    0.038143   -0.930195
     52          6           0        8.915192   -0.106655   -0.147406
     53          6           0       10.166192   -0.455889   -0.895890
     54          6           0       10.017556   -1.898977   -1.269218
     55          6           0       11.342427   -0.288454    0.005633
     56          6           0       12.738190   -0.588135   -0.645624
     57          6           0       13.975442   -0.088178    0.212658
     58          6           0       15.352724   -0.154211   -0.466934
     59          6           0       15.764543   -1.560747   -0.978767
     60          6           0       16.371254    0.400780    0.482836
     61          6           0       17.757581    0.549622   -0.278282
     62          6           0       18.741263    1.272945    0.727581
     63          6           0       20.170728    1.236667    0.285696
     64          6           0       20.300842    2.060840   -1.014908
     65          6           0       21.088493    1.701719    1.380495
     66          1           0       -3.977194    3.614514    1.674308
     67          1           0      -10.051455    3.965752   -0.482327
     68          1           0      -10.474465   -2.366592   -1.094331
     69          1           0       -2.255955   -1.022541    2.045419
     70          1           0       -2.195337    1.524565    1.216820
     71          1           0       -1.778798    0.583050    3.301607
     72          1           0       -2.907178    1.888419    3.688188
     73          1           0       -3.733681    0.351855    3.832395
     74          1           0       -1.959563   -1.638929   -0.598804
     75          1           0       -2.103664    0.041409   -0.856582
     76          1           0       -0.261309    0.502570    0.987399
     77          1           0       -0.015710   -1.347444    1.366310
     78          1           0       -5.328486    6.641428    0.486988
     79          1           0       -5.620940    6.411376    2.178676
     80          1           0       -4.411362    5.617383    1.282575
     81          1           0       -9.419438    5.951168   -0.448953
     82          1           0       -8.903647    8.036723    0.460791
     83          1           0       -7.473253    7.649067    1.371922
     84          1           0      -12.106511    3.192449   -2.337890
     85          1           0      -13.241884    2.094246   -1.761195
     86          1           0      -12.320238    3.455319   -0.654181
     87          1           0      -12.344693   -1.518974   -1.030526
     88          1           0      -13.362904   -0.028550   -1.409640
     89          1           0      -12.876097   -1.839186   -3.350008
     90          1           0      -12.352165   -0.048490   -3.900326
     91          1           0      -11.144545   -1.105775   -3.270565
     92          1           0       -9.027845   -4.665070   -1.869546
     93          1           0       -8.407599   -5.641564   -0.559711
     94          1           0       -9.835843   -4.819214   -0.212642
     95          1           0       -3.350576   -3.541176   -0.394769
     96          1           0       -1.612238   -4.646991    3.317661
     97          1           0       -3.215572   -5.400181    3.594440
     98          1           0       -1.962280   -6.400649    2.902102
     99          1           0        2.834430   -1.495952   -1.791865
    100          1           0        2.643634    0.070497   -2.090564
    101          1           0        4.390678   -0.861531    0.379233
    102          1           0        4.019465    1.242877   -2.657984
    103          1           0        5.366035    2.069197   -2.183604
    104          1           0        5.490380    0.711983   -3.099004
    105          1           0        6.612285    1.703403   -0.034012
    106          1           0        6.362477    0.052863    0.879076
    107          1           0        7.396342   -1.033662   -1.404099
    108          1           0        7.794744    0.666350   -1.772295
    109          1           0        9.013427    0.939694    0.312620
    110          1           0        8.880769   -0.754470    0.662057
    111          1           0       10.399494    0.293217   -1.783946
    112          1           0        9.083923   -2.064560   -1.779978
    113          1           0       10.820190   -2.246928   -2.123474
    114          1           0       10.189386   -2.580243   -0.438907
    115          1           0       11.484940    0.774589    0.197804
    116          1           0       11.316073   -0.763806    1.058510
    117          1           0       12.860905   -1.622353   -1.053489
    118          1           0       12.621114   -0.102893   -1.556618
    119          1           0       13.936842    1.083665    0.476541
    120          1           0       13.738152   -0.678660    1.163875
    121          1           0       15.351166    0.674583   -1.173127
    122          1           0       15.766610   -2.222836   -0.154276
    123          1           0       15.049677   -2.137614   -1.554799
    124          1           0       16.812674   -1.547410   -1.411236
    125          1           0       16.089615    1.416017    1.010655
    126          1           0       16.634004   -0.217504    1.352330
    127          1           0       18.215684   -0.523790   -0.290410
    128          1           0       17.579048    1.016275   -1.354629
    129          1           0       18.638810    2.516642    0.880583
    130          1           0       18.786028    0.860474    1.787915
    131          1           0       20.473547    0.118979   -0.051124
    132          1           0       19.781186    3.055621   -0.803093
    133          1           0       21.439132    2.324027   -1.259789
    134          1           0       19.959080    1.395649   -1.858165
    135          1           0       20.872684    1.099513    2.221955
    136          1           0       22.225504    1.839317    1.200500
    137          1           0       20.776743    2.571649    1.777687
 ---------------------------------------------------------------------

 SCF Done:  E(RCAM-B3LYP) =  -2933.55197052     A.U. after   16 cycles

 Excitation energies and oscillator strengths:

 Excited State   1:      Singlet-A      1.9349 eV  640.77 nm  f=0.3125  <S**2>=0.000
     240 -> 243       -0.20048
     241 -> 242        0.67890
 This state for optimization and/or second-order correction.
 Total Energy, E(TD-HF/TD-DFT) =  -2933.48086375
 Copying the excited state density for this state as the 1-particle RhoCI density.

 The electronic state is 1-A.
 Alpha  occ. eigenvalues --  -46.78977 -19.23425 -19.23001 -19.17175 -19.16573
 Alpha  occ. eigenvalues --  -19.16065 -14.37602 -14.35410 -14.35294 -14.35121
 Alpha  occ. eigenvalues --  -10.35456 -10.35111 -10.31279 -10.27539 -10.26901
 Alpha  occ. eigenvalues --  -10.26081 -10.25961 -10.25673 -10.25655 -10.25381
 Alpha  occ. eigenvalues --  -10.25037 -10.24986 -10.24935 -10.24579 -10.24436
 Alpha  occ. eigenvalues --  -10.23803 -10.23777 -10.23705 -10.23547 -10.23397
 Alpha  occ. eigenvalues --  -10.23395 -10.23388 -10.23301 -10.23272 -10.23065
 Alpha  occ. eigenvalues --  -10.22869 -10.22786 -10.22686 -10.22487 -10.22425
 Alpha  occ. eigenvalues --  -10.22356 -10.22337 -10.22311 -10.22239 -10.22149
 Alpha  occ. eigenvalues --  -10.21974 -10.21826 -10.21713 -10.21702 -10.21701
 Alpha  occ. eigenvalues --  -10.21688 -10.21307 -10.21241 -10.21238 -10.21190
 Alpha  occ. eigenvalues --  -10.20975 -10.20917 -10.20901 -10.20782 -10.20526
 Alpha  occ. eigenvalues --  -10.20444 -10.20311 -10.20233 -10.19891 -10.18996
 Alpha  occ. eigenvalues --   -3.07710  -1.82642  -1.82181  -1.82126  -1.14038
 Alpha  occ. eigenvalues --   -1.12913  -1.06144  -1.02873  -1.02047  -0.98842
 Alpha  occ. eigenvalues --   -0.97605  -0.97057  -0.94614  -0.87177  -0.86951
 Alpha  occ. eigenvalues --   -0.85568  -0.85047  -0.84125  -0.83606  -0.83594
 Alpha  occ. eigenvalues --   -0.83269  -0.82967  -0.81890  -0.81373  -0.81063
 Alpha  occ. eigenvalues --   -0.79684  -0.79139  -0.78427  -0.77947  -0.77496
 Alpha  occ. eigenvalues --   -0.76852  -0.76417  -0.75334  -0.75009  -0.73622
 Alpha  occ. eigenvalues --   -0.73126  -0.72357  -0.72172  -0.71652  -0.71348
 Alpha  occ. eigenvalues --   -0.70739  -0.70459  -0.69299  -0.68467  -0.67971
 Alpha  occ. eigenvalues --   -0.66571  -0.66067  -0.64904  -0.64565  -0.63626
 Alpha  occ. eigenvalues --   -0.62881  -0.62072  -0.61126  -0.60668  -0.60428
 Alpha  occ. eigenvalues --   -0.60106  -0.59497  -0.58982  -0.58308  -0.58190
 Alpha  occ. eigenvalues --   -0.56741  -0.56434  -0.56065  -0.55711  -0.55298
 Alpha  occ. eigenvalues --   -0.54498  -0.53939  -0.53472  -0.52663  -0.52404
 Alpha  occ. eigenvalues --   -0.52090  -0.51700  -0.51242  -0.51003  -0.50665
 Alpha  occ. eigenvalues --   -0.50628  -0.50381  -0.49744  -0.49647  -0.49123
 Alpha  occ. eigenvalues --   -0.49010  -0.48844  -0.48552  -0.48439  -0.47600
 Alpha  occ. eigenvalues --   -0.47559  -0.47123  -0.46927  -0.46687  -0.46353
 Alpha  occ. eigenvalues --   -0.46260  -0.46150  -0.46040  -0.45874  -0.45693
 Alpha  occ. eigenvalues --   -0.45483  -0.45429  -0.45105  -0.45063  -0.44866
 Alpha  occ. eigenvalues --   -0.44589  -0.44317  -0.44221  -0.44064  -0.43846
 Alpha  occ. eigenvalues --   -0.43227  -0.43165  -0.43089  -0.42723  -0.42402
 Alpha  occ. eigenvalues --   -0.42357  -0.42079  -0.41790  -0.41329  -0.41248
 Alpha  occ. eigenvalues --   -0.41144  -0.41025  -0.40989  -0.40598  -0.40437
 Alpha  occ. eigenvalues --   -0.39961  -0.39940  -0.39777  -0.39562  -0.39466
 Alpha  occ. eigenvalues --   -0.39360  -0.39311  -0.39058  -0.38803  -0.38772
 Alpha  occ. eigenvalues --   -0.38492  -0.38445  -0.38075  -0.37966  -0.37803
 Alpha  occ. eigenvalues --   -0.37663  -0.37519  -0.37311  -0.37133  -0.36871
 Alpha  occ. eigenvalues --   -0.36700  -0.36396  -0.36174  -0.36156  -0.36065
 Alpha  occ. eigenvalues --   -0.35904  -0.35338  -0.35253  -0.34634  -0.34619
 Alpha  occ. eigenvalues --   -0.34501  -0.34149  -0.33779  -0.33766  -0.33626
 Alpha  occ. eigenvalues --   -0.33541  -0.33237  -0.32795  -0.32723  -0.32654
 Alpha  occ. eigenvalues --   -0.32508  -0.32311  -0.32053  -0.30840  -0.30293
 Alpha  occ. eigenvalues --   -0.30036  -0.29619  -0.29209  -0.28609  -0.27057
 Alpha  occ. eigenvalues --   -0.26630  -0.26041  -0.25302  -0.25217  -0.21906
 Alpha  occ. eigenvalues --   -0.19341
 Alpha virt. eigenvalues --   -0.07193  -0.02930  -0.00375   0.01775   0.02141
 Alpha virt. eigenvalues --    0.03348   0.03411   0.05113   0.05324   0.05790
 Alpha virt. eigenvalues --    0.06485   0.08938   0.09143   0.09653   0.09974

 Mulliken charges:
               1
     1  Mg   0.805248
     2  C    0.125961
     3  C   -0.208701
     4  C   -0.173796
     5  C   -0.171248
     6  N   -0.640656
     7  C    0.302668
     8  C   -0.139871
     9  C   -0.159503
    10  C    0.357829
    11  C   -0.287998
    12  C   -0.174117
    13  C   -0.261347
    14  C    0.608502
    15  O   -0.489710
    16  O   -0.450020
    17  N   -0.698052
    18  C    0.289657
    19  C   -0.011375
    20  C    0.046210
    21  C    0.277623
    22  C   -0.364059
    23  C   -0.090337
    24  C   -0.235174
    25  N   -0.690069
    26  C    0.303499
    27  C    0.085391
    28  C    0.014240
    29  C    0.286506
    30  C   -0.390795
    31  C   -0.236180
    32  C   -0.307117
    33  N   -0.751372
    34  C    0.319848
    35  C   -0.054836
    36  C    0.022144
    37  C    0.277247
    38  C   -0.366494
    39  C    0.400288
    40  O   -0.452312
    41  C   -0.319172
    42  C    0.604156
    43  O   -0.495743
    44  O   -0.408200
    45  C   -0.087743
    46  C    0.012766
    47  C   -0.134815
    48  C    0.143720
    49  C   -0.364707
    50  C   -0.240781
    51  C   -0.179675
    52  C   -0.153346
    53  C   -0.051477
    54  C   -0.298925
    55  C   -0.173765
    56  C   -0.195888
    57  C   -0.164551
    58  C   -0.037970
    59  C   -0.328955
    60  C   -0.168582
    61  C   -0.185011
    62  C   -0.148824
    63  C   -0.046236
    64  C   -0.285244
    65  C   -0.310347
    66  H    0.063802
    67  H    0.068887
    68  H    0.095311
    69  H    0.104361
    70  H    0.090551
    71  H    0.091009
    72  H    0.122853
    73  H    0.119669
    74  H    0.109031
    75  H    0.129072
    76  H    0.139830
    77  H    0.119622
    78  H    0.137401
    79  H    0.115474
    80  H    0.112276
    81  H    0.100780
    82  H    0.093603
    83  H    0.109833
    84  H    0.096619
    85  H    0.119569
    86  H    0.126434
    87  H    0.117520
    88  H    0.097404
    89  H    0.102182
    90  H    0.076583
    91  H    0.130819
    92  H    0.130745
    93  H    0.145066
    94  H    0.094755
    95  H    0.155779
    96  H    0.099045
    97  H    0.148587
    98  H    0.134190
    99  H    0.139222
   100  H    0.106915
   101  H    0.074779
   102  H    0.098598
   103  H    0.117142
   104  H    0.115427
   105  H    0.100550
   106  H    0.105620
   107  H    0.076523
   108  H    0.107765
   109  H    0.069664
   110  H    0.097350
   111  H    0.070977
   112  H    0.105743
   113  H    0.070572
   114  H    0.112541
   115  H    0.093806
   116  H    0.071245
   117  H    0.084956
   118  H    0.092501
   119  H    0.065558
   120  H    0.084693
   121  H    0.093077
   122  H    0.111825
   123  H    0.105284
   124  H    0.102019
   125  H    0.078993
   126  H    0.091834
   127  H    0.099267
   128  H    0.095557
   129  H    0.054331
   130  H    0.085462
   131  H    0.054014
   132  H    0.090305
   133  H    0.075884
   134  H    0.103636
   135  H    0.098760
   136  H    0.092784
   137  H    0.107751
 Sum of Mulliken charges =  -0.00000

 Dipole moment (field-independent basis, Debye):
    X=              2.0499    Y=              3.8720    Z=              0.8075  Tot=              4.4550
 Quadrupole moment (field-independent basis, Debye-Ang):
   XX=           -359.7146   YY=           -388.4405   ZZ=           -397.1184
   XY=            -25.4086   XZ=             14.4467   YZ=             -4.2309

 Normal termination of Gaussian 16 at Mon Sep 23 21:55:55 2019.
