 Gaussian 09, Revision D.01,
 Gaussian 09:  ES64L-G09RevD.01 24-Apr-2013

 -------------------------------------
 # td=(NStates=1) CAM-B3LYP/6-31G(d,p)
 -------------------------------------

 --
 TD
 --
 Symbolic Z-matrix:
 Charge =  0 Multiplicity = 1

                         Standard orientation:
 ---------------------------------------------------------------------
 Center     Atomic      Atomic             Coordinates (Angstroms)
 Number     Number       Type             X           Y           Z
 ---------------------------------------------------------------------
      1         12           0       -7.137348    0.618638    0.084522
      2          6           0       -4.840031   -1.895895    0.463321
      3          6           0       -4.747757    2.819741    1.095265
      4          6           0       -9.313823    3.088728   -0.437397
      5          6           0       -9.459280   -1.692430   -0.865740
      6          7           0       -5.078980    0.404076    0.672156
      7          6           0       -4.311840   -0.703017    0.731319
      8          6           0       -2.855183   -0.336723    1.164101
      9          6           0       -2.978767    1.128103    1.601687
     10          6           0       -4.347669    1.504256    1.096716
     11          6           0       -2.874896    1.192200    3.165526
     12          6           0       -1.893029   -0.517048    0.086610
     13          6           0       -0.445984   -0.557963    0.537799
     14          6           0        0.533669   -0.716354   -0.538392
     15          8           0        0.317887   -1.042908   -1.686747
     16          8           0        1.803052   -0.472109   -0.083259
     17          7           0       -7.057991    2.620309    0.332657
     18          6           0       -5.963638    3.373492    0.802339
     19          6           0       -6.344487    4.818123    0.740120
     20          6           0       -7.701191    4.805274    0.364628
     21          6           0       -8.102759    3.508238   -0.016374
     22          6           0       -5.470383    5.869183    1.186531
     23          6           0       -8.449987    6.060525    0.167420
     24          6           0       -8.425536    7.184196    0.891329
     25          7           0       -9.014601    0.667460   -0.624181
     26          6           0       -9.816425    1.788857   -0.627609
     27          6           0      -11.211136    1.446951   -1.017189
     28          6           0      -11.255898    0.094019   -1.186661
     29          6           0       -9.925930   -0.380011   -0.901982
     30          6           0      -12.341865    2.549054   -1.341629
     31          6           0      -12.414664   -0.819536   -1.517912
     32          6           0      -12.451849   -1.162891   -3.049771
     33          7           0       -7.180999   -1.417428   -0.289100
     34          6           0       -8.203290   -2.263516   -0.638270
     35          6           0       -7.756029   -3.625418   -0.674246
     36          6           0       -6.461443   -3.649698   -0.181363
     37          6           0       -6.079366   -2.187018    0.053479
     38          6           0       -8.685183   -4.775774   -0.782146
     39          6           0       -5.251232   -4.392662    0.281812
     40          8           0       -5.197247   -5.586231    0.385723
     41          6           0       -4.176750   -3.368180    0.472782
     42          6           0       -3.553748   -3.732326    1.854082
     43          8           0       -3.755799   -3.258028    2.919740
     44          8           0       -2.665757   -4.740734    1.742692
     45          6           0       -2.117001   -5.274975    2.933212
     46          6           0        2.812871   -0.588981   -1.169119
     47          6           0        4.113455   -0.349278   -0.623447
     48          6           0        5.064525    0.456700   -0.962506
     49          6           0        4.900541    1.509263   -2.108782
     50          6           0        6.367190    0.473263   -0.240467
     51          6           0        7.668674   -0.041243   -1.114006
     52          6           0        8.856828   -0.005465   -0.174829
     53          6           0       10.141850   -0.495411   -0.973693
     54          6           0       10.067195   -1.929906   -1.270207
     55          6           0       11.342441   -0.277175   -0.130388
     56          6           0       12.753296   -0.546738   -0.765600
     57          6           0       13.936196   -0.189114    0.174637
     58          6           0       15.287326   -0.179932   -0.552482
     59          6           0       15.591137   -1.703089   -1.052558
     60          6           0       16.335047    0.263159    0.428304
     61          6           0       17.759322    0.427804   -0.123806
     62          6           0       18.698252    1.108964    0.737601
     63          6           0       20.207218    1.315330    0.378938
     64          6           0       20.179184    2.362985   -0.888548
     65          6           0       21.152179    1.810908    1.354248
     66          1           0       -4.066172    3.560910    1.381613
     67          1           0       -9.874073    4.074510   -0.478904
     68          1           0       -9.930535   -2.765309   -1.242209
     69          1           0       -2.358579   -1.025134    1.884745
     70          1           0       -2.125494    1.699247    1.299818
     71          1           0       -1.830941    0.908900    3.464443
     72          1           0       -3.010121    2.169930    3.392018
     73          1           0       -3.707336    0.657464    3.757341
     74          1           0       -2.024517   -1.600654   -0.289432
     75          1           0       -2.111456    0.091959   -0.817586
     76          1           0       -0.269026    0.383554    0.965818
     77          1           0       -0.168914   -1.497854    1.295482
     78          1           0       -6.005988    6.736908    0.736457
     79          1           0       -5.873258    6.012537    2.223091
     80          1           0       -4.427193    5.795089    1.027243
     81          1           0       -9.335264    6.037606   -0.629627
     82          1           0       -8.786178    8.115332    0.427169
     83          1           0       -7.704716    7.320832    1.762768
     84          1           0      -12.177999    2.988303   -2.258485
     85          1           0      -13.280663    1.853077   -1.271354
     86          1           0      -12.416968    3.265274   -0.553431
     87          1           0      -12.331312   -1.863547   -1.061519
     88          1           0      -13.380615   -0.396742   -1.176544
     89          1           0      -13.098752   -1.922654   -3.408281
     90          1           0      -12.420485   -0.222638   -3.732432
     91          1           0      -11.480844   -1.451338   -3.446571
     92          1           0       -9.262899   -4.687553   -1.701012
     93          1           0       -8.104672   -5.778046   -0.862283
     94          1           0       -9.597967   -4.917201   -0.160050
     95          1           0       -3.361502   -3.529704   -0.245522
     96          1           0       -1.309311   -4.541242    3.218880
     97          1           0       -2.874613   -5.292255    3.723776
     98          1           0       -1.580314   -6.129491    2.643348
     99          1           0        2.878424   -1.650387   -1.512174
    100          1           0        2.564985   -0.015060   -1.913059
    101          1           0        4.328761   -1.097051    0.208064
    102          1           0        3.942526    1.304284   -2.626523
    103          1           0        4.760559    2.596689   -1.706186
    104          1           0        5.800114    1.433314   -2.624512
    105          1           0        6.635312    1.561744   -0.194725
    106          1           0        6.333225    0.163731    0.650011
    107          1           0        7.433726   -1.072101   -1.363945
    108          1           0        7.710955    0.400377   -2.020526
    109          1           0        8.938857    0.978050    0.082682
    110          1           0        8.720831   -0.625271    0.540658
    111          1           0       10.040582    0.068434   -1.757001
    112          1           0        9.299608   -2.087291   -2.263807
    113          1           0       10.886704   -2.482341   -1.681455
    114          1           0        9.712203   -2.546266   -0.363526
    115          1           0       11.282192    0.736633    0.407652
    116          1           0       11.141224   -0.678288    0.849167
    117          1           0       12.800393   -1.660354   -0.953279
    118          1           0       12.733759    0.002465   -1.769026
    119          1           0       13.857637    0.834193    0.432524
    120          1           0       13.853198   -0.853510    1.032962
    121          1           0       15.388539    0.293284   -1.551790
    122          1           0       15.433411   -2.427652   -0.169268
    123          1           0       14.956905   -1.723822   -1.873963
    124          1           0       16.786937   -1.722336   -1.329903
    125          1           0       15.985897    1.207089    0.550006
    126          1           0       16.410369   -0.432717    1.364662
    127          1           0       18.254306   -0.540647   -0.642313
    128          1           0       17.885721    1.197649   -0.886951
    129          1           0       18.429671    2.060413    1.087388
    130          1           0       18.903988    0.562788    1.733400
    131          1           0       20.603391    0.340799   -0.020688
    132          1           0       19.855251    3.273469   -0.391953
    133          1           0       21.185363    2.669106   -1.275853
    134          1           0       19.438282    2.125504   -1.805161
    135          1           0       21.051712    1.221188    2.224448
    136          1           0       22.065569    1.690098    1.021750
    137          1           0       20.714604    2.689946    1.743127
 ---------------------------------------------------------------------

 SCF Done:  E(RCAM-B3LYP) =  -2932.66069854     A.U. after   16 cycles

 Excitation energies and oscillator strengths:

 Excited State   1:      Singlet-A      2.0698 eV  599.03 nm  f=0.2453  <S**2>=0.000
     240 -> 243        0.26075
     241 -> 242        0.64771
 This state for optimization and/or second-order correction.
 Total Energy, E(TD-HF/TD-KS) =  -2932.58463614
 Copying the excited state density for this state as the 1-particle RhoCI density.

 The electronic state is 1-A.
 Alpha  occ. eigenvalues --  -46.83826 -19.25652 -19.24957 -19.20753 -19.20592
 Alpha  occ. eigenvalues --  -19.20366 -14.42162 -14.39921 -14.38982 -14.38660
 Alpha  occ. eigenvalues --  -10.38809 -10.38720 -10.35145 -10.31319 -10.30662
 Alpha  occ. eigenvalues --  -10.30472 -10.30144 -10.29872 -10.29638 -10.29453
 Alpha  occ. eigenvalues --  -10.29437 -10.28763 -10.28646 -10.28623 -10.28559
 Alpha  occ. eigenvalues --  -10.28423 -10.28240 -10.28229 -10.27899 -10.27612
 Alpha  occ. eigenvalues --  -10.27597 -10.27227 -10.27198 -10.27190 -10.27069
 Alpha  occ. eigenvalues --  -10.26898 -10.26705 -10.26684 -10.26680 -10.26505
 Alpha  occ. eigenvalues --  -10.26505 -10.26415 -10.26335 -10.26306 -10.26292
 Alpha  occ. eigenvalues --  -10.26141 -10.25902 -10.25860 -10.25801 -10.25765
 Alpha  occ. eigenvalues --  -10.25427 -10.25374 -10.25280 -10.25138 -10.25077
 Alpha  occ. eigenvalues --  -10.25016 -10.24928 -10.24892 -10.24814 -10.24742
 Alpha  occ. eigenvalues --  -10.24624 -10.24396 -10.24206 -10.23320 -10.22469
 Alpha  occ. eigenvalues --   -3.12907  -1.87609  -1.87179  -1.87058  -1.18830
 Alpha  occ. eigenvalues --   -1.17178  -1.12147  -1.09418  -1.08357  -1.04477
 Alpha  occ. eigenvalues --   -1.02634  -1.01948  -1.01052  -0.92766  -0.92145
 Alpha  occ. eigenvalues --   -0.91792  -0.91067  -0.90650  -0.89620  -0.89527
 Alpha  occ. eigenvalues --   -0.89057  -0.87999  -0.87516  -0.86887  -0.86318
 Alpha  occ. eigenvalues --   -0.85550  -0.84897  -0.84158  -0.83530  -0.82513
 Alpha  occ. eigenvalues --   -0.82063  -0.81532  -0.80883  -0.80100  -0.79113
 Alpha  occ. eigenvalues --   -0.78664  -0.77426  -0.76742  -0.76332  -0.76024
 Alpha  occ. eigenvalues --   -0.75423  -0.74713  -0.74452  -0.73521  -0.72652
 Alpha  occ. eigenvalues --   -0.72210  -0.70956  -0.70222  -0.69707  -0.68198
 Alpha  occ. eigenvalues --   -0.67923  -0.66447  -0.66281  -0.66040  -0.65182
 Alpha  occ. eigenvalues --   -0.65015  -0.63164  -0.62851  -0.62313  -0.61859
 Alpha  occ. eigenvalues --   -0.61703  -0.61379  -0.60696  -0.59832  -0.59455
 Alpha  occ. eigenvalues --   -0.58423  -0.58182  -0.58124  -0.57553  -0.57059
 Alpha  occ. eigenvalues --   -0.56431  -0.56243  -0.55888  -0.55654  -0.55357
 Alpha  occ. eigenvalues --   -0.54682  -0.54510  -0.54159  -0.53837  -0.53636
 Alpha  occ. eigenvalues --   -0.53367  -0.53036  -0.52337  -0.52041  -0.51975
 Alpha  occ. eigenvalues --   -0.51383  -0.51313  -0.51027  -0.50882  -0.50671
 Alpha  occ. eigenvalues --   -0.50585  -0.50481  -0.50367  -0.50012  -0.49870
 Alpha  occ. eigenvalues --   -0.49517  -0.49381  -0.49169  -0.49022  -0.48636
 Alpha  occ. eigenvalues --   -0.48436  -0.48269  -0.48006  -0.47722  -0.47547
 Alpha  occ. eigenvalues --   -0.47320  -0.46807  -0.46707  -0.46651  -0.46022
 Alpha  occ. eigenvalues --   -0.45841  -0.45695  -0.45375  -0.45081  -0.45026
 Alpha  occ. eigenvalues --   -0.44926  -0.44620  -0.44591  -0.44494  -0.44360
 Alpha  occ. eigenvalues --   -0.44270  -0.43990  -0.43907  -0.43652  -0.43334
 Alpha  occ. eigenvalues --   -0.43262  -0.43028  -0.42994  -0.42912  -0.42627
 Alpha  occ. eigenvalues --   -0.42469  -0.42345  -0.41866  -0.41629  -0.41559
 Alpha  occ. eigenvalues --   -0.41421  -0.41181  -0.40916  -0.40728  -0.40605
 Alpha  occ. eigenvalues --   -0.40536  -0.40037  -0.40020  -0.39248  -0.39153
 Alpha  occ. eigenvalues --   -0.38796  -0.38726  -0.38513  -0.38142  -0.38125
 Alpha  occ. eigenvalues --   -0.37557  -0.37302  -0.36797  -0.36446  -0.36406
 Alpha  occ. eigenvalues --   -0.36179  -0.36005  -0.35743  -0.35431  -0.35387
 Alpha  occ. eigenvalues --   -0.35060  -0.34278  -0.33844  -0.33615  -0.33397
 Alpha  occ. eigenvalues --   -0.33325  -0.32996  -0.32355  -0.31456  -0.30057
 Alpha  occ. eigenvalues --   -0.29565  -0.29538  -0.28660  -0.27192  -0.23508
 Alpha  occ. eigenvalues --   -0.21095
 Alpha virt. eigenvalues --   -0.06264  -0.03396   0.01354   0.03777   0.05868
 Alpha virt. eigenvalues --    0.06168   0.06609   0.07201   0.07307   0.07483
 Alpha virt. eigenvalues --    0.08285   0.10884   0.11105   0.11581   0.12313

 Mulliken charges:
               1
     1  Mg   0.809574
     2  C    0.084286
     3  C   -0.193609
     4  C   -0.165162
     5  C   -0.162573
     6  N   -0.657193
     7  C    0.319828
     8  C   -0.123422
     9  C   -0.155301
    10  C    0.358228
    11  C   -0.303474
    12  C   -0.180912
    13  C   -0.259401
    14  C    0.618229
    15  O   -0.478807
    16  O   -0.507111
    17  N   -0.741804
    18  C    0.317267
    19  C    0.021175
    20  C    0.000409
    21  C    0.316430
    22  C   -0.388227
    23  C   -0.083426
    24  C   -0.259225
    25  N   -0.669085
    26  C    0.300833
    27  C   -0.040354
    28  C    0.080496
    29  C    0.258298
    30  C   -0.345431
    31  C   -0.231089
    32  C   -0.326184
    33  N   -0.705733
    34  C    0.265395
    35  C   -0.001450
    36  C    0.019515
    37  C    0.230348
    38  C   -0.392183
    39  C    0.396476
    40  O   -0.445262
    41  C   -0.316405
    42  C    0.594204
    43  O   -0.458359
    44  O   -0.454658
    45  C   -0.076583
    46  C    0.043553
    47  C   -0.142795
    48  C    0.121986
    49  C   -0.354767
    50  C   -0.220201
    51  C   -0.212692
    52  C   -0.163560
    53  C   -0.043520
    54  C   -0.294101
    55  C   -0.179895
    56  C   -0.187179
    57  C   -0.160386
    58  C   -0.094516
    59  C   -0.305707
    60  C   -0.136654
    61  C   -0.177648
    62  C   -0.165374
    63  C   -0.074450
    64  C   -0.322771
    65  C   -0.289775
    66  H    0.068353
    67  H    0.080130
    68  H    0.070810
    69  H    0.114075
    70  H    0.108331
    71  H    0.104171
    72  H    0.113127
    73  H    0.122286
    74  H    0.102834
    75  H    0.119428
    76  H    0.137319
    77  H    0.129550
    78  H    0.127425
    79  H    0.141291
    80  H    0.128215
    81  H    0.088467
    82  H    0.110970
    83  H    0.092202
    84  H    0.140777
    85  H    0.102841
    86  H    0.126966
    87  H    0.109887
    88  H    0.107653
    89  H    0.112196
    90  H    0.091809
    91  H    0.116255
    92  H    0.117960
    93  H    0.134638
    94  H    0.136485
    95  H    0.174834
    96  H    0.101259
    97  H    0.143227
    98  H    0.132001
    99  H    0.123864
   100  H    0.115405
   101  H    0.075179
   102  H    0.108621
   103  H    0.107056
   104  H    0.123036
   105  H    0.089561
   106  H    0.098454
   107  H    0.106067
   108  H    0.099820
   109  H    0.100949
   110  H    0.101426
   111  H    0.089959
   112  H    0.054533
   113  H    0.116365
   114  H    0.092009
   115  H    0.061595
   116  H    0.084542
   117  H    0.099806
   118  H    0.086172
   119  H    0.096766
   120  H    0.103506
   121  H    0.092983
   122  H    0.088955
   123  H    0.114348
   124  H    0.072529
   125  H    0.101389
   126  H    0.087383
   127  H    0.076990
   128  H    0.094709
   129  H    0.091637
   130  H    0.054012
   131  H    0.074343
   132  H    0.097356
   133  H    0.090380
   134  H    0.087307
   135  H    0.101984
   136  H    0.120452
   137  H    0.102663
 Sum of Mulliken charges =   0.00000

 Dipole moment (field-independent basis, Debye):
    X=              2.3807    Y=              5.1937    Z=              0.9007  Tot=              5.7839
 Quadrupole moment (field-independent basis, Debye-Ang):
   XX=           -359.6103   YY=           -391.1052   ZZ=           -399.0492
   XY=            -16.5007   XZ=             15.5823   YZ=              0.1826

 Normal termination of Gaussian 09 at Tue Jul  2 20:34:05 2019.
