 Gaussian 16, Revision A.03,
 Gaussian 16:  ES64L-G16RevA.03 25-Dec-2016

 ----------------------------------------------------------------------
 # td=(NStates=1) iop(3/107=0140000000,3/108=0140000000) CAM-B3LYP/6-31
 G(d,p)
 ----------------------------------------------------------------------

 --
 TD
 --
 Symbolic Z-matrix:
 Charge =  0 Multiplicity = 1

                         Standard orientation:
 ---------------------------------------------------------------------
 Center     Atomic      Atomic             Coordinates (Angstroms)
 Number     Number       Type             X           Y           Z
 ---------------------------------------------------------------------
      1         12           0       -7.152112    0.642601   -0.009308
      2          6           0       -4.817985   -1.992703    0.442753
      3          6           0       -4.753956    2.835218    1.155562
      4          6           0       -9.379577    3.123192   -0.376523
      5          6           0       -9.488168   -1.660572   -0.846929
      6          7           0       -5.114583    0.399592    0.631029
      7          6           0       -4.290660   -0.714084    0.711647
      8          6           0       -2.838140   -0.453325    1.177539
      9          6           0       -3.012607    0.972695    1.666116
     10          6           0       -4.368329    1.522874    1.074134
     11          6           0       -3.029729    1.061118    3.158372
     12          6           0       -1.845787   -0.575785    0.072159
     13          6           0       -0.497140   -0.312674    0.455785
     14          6           0        0.447084   -0.736200   -0.657863
     15          8           0        0.130059   -1.114289   -1.742347
     16          8           0        1.731589   -0.412533   -0.321070
     17          7           0       -7.044535    2.589010    0.374232
     18          6           0       -6.063423    3.351967    0.777150
     19          6           0       -6.345486    4.738045    0.781221
     20          6           0       -7.694482    4.875754    0.342725
     21          6           0       -8.098452    3.485492    0.090679
     22          6           0       -5.391745    5.872474    1.179867
     23          6           0       -8.417178    6.048856    0.094883
     24          6           0       -8.276194    7.304125    0.638495
     25          7           0       -8.994049    0.780383   -0.468793
     26          6           0       -9.872772    1.781572   -0.507954
     27          6           0      -11.224978    1.576064   -0.905595
     28          6           0      -11.209744    0.158728   -1.146945
     29          6           0       -9.886376   -0.302039   -0.918305
     30          6           0      -12.270709    2.614872   -1.178576
     31          6           0      -12.384519   -0.599637   -1.665713
     32          6           0      -12.266106   -1.208576   -3.075221
     33          7           0       -7.256701   -1.421987   -0.226490
     34          6           0       -8.285556   -2.204460   -0.590612
     35          6           0       -7.838730   -3.618028   -0.593455
     36          6           0       -6.566125   -3.545722   -0.127996
     37          6           0       -6.200532   -2.173569    0.078207
     38          6           0       -8.618264   -4.907276   -0.847602
     39          6           0       -5.454456   -4.395127    0.236751
     40          8           0       -5.227472   -5.554076    0.192490
     41          6           0       -4.141921   -3.354880    0.508154
     42          6           0       -3.590555   -3.679547    1.854805
     43          8           0       -3.800921   -3.103173    2.950314
     44          8           0       -2.716011   -4.763968    1.695670
     45          6           0       -2.236916   -5.277514    2.969034
     46          6           0        2.767827   -0.617751   -1.379019
     47          6           0        4.003057   -0.411847   -0.598939
     48          6           0        5.047952    0.390356   -0.962787
     49          6           0        4.983756    1.322930   -2.066589
     50          6           0        6.336420    0.311060   -0.155523
     51          6           0        7.584368   -0.088165   -0.978516
     52          6           0        8.860743   -0.269588   -0.189370
     53          6           0       10.153537   -0.643007   -0.954506
     54          6           0       10.126697   -2.159077   -1.298652
     55          6           0       11.353370   -0.340595   -0.073340
     56          6           0       12.793897   -0.531224   -0.657238
     57          6           0       13.917679   -0.150380    0.256684
     58          6           0       15.313341   -0.133176   -0.429518
     59          6           0       15.753129   -1.617715   -0.783685
     60          6           0       16.454823    0.542875    0.467959
     61          6           0       17.799097    0.508612   -0.185794
     62          6           0       18.745740    1.274090    0.811948
     63          6           0       20.238652    1.363002    0.225702
     64          6           0       20.430434    2.185423   -1.133064
     65          6           0       21.120276    2.032047    1.331717
     66          1           0       -3.912986    3.584131    1.497095
     67          1           0      -10.124050    3.854606   -0.656581
     68          1           0      -10.408215   -2.349362   -1.185946
     69          1           0       -2.865489   -1.136119    2.032356
     70          1           0       -2.033507    1.457280    1.365870
     71          1           0       -2.135955    0.657496    3.611401
     72          1           0       -3.002821    2.096390    3.626729
     73          1           0       -3.827708    0.419725    3.734058
     74          1           0       -1.766221   -1.524311   -0.340264
     75          1           0       -2.241609    0.212959   -0.719758
     76          1           0       -0.335548    0.565120    0.808830
     77          1           0       -0.123569   -1.030530    1.206908
     78          1           0       -5.785936    6.763962    0.781653
     79          1           0       -5.256319    5.742242    2.329398
     80          1           0       -4.315569    5.627552    0.994272
     81          1           0       -9.027623    5.969763   -0.902992
     82          1           0       -8.729490    8.301602    0.294034
     83          1           0       -7.645400    7.174305    1.544431
     84          1           0      -12.016796    3.339380   -2.017125
     85          1           0      -13.123006    2.068944   -1.415083
     86          1           0      -12.524316    3.158937   -0.389245
     87          1           0      -12.503756   -1.427233   -0.884839
     88          1           0      -13.188155    0.269733   -1.579123
     89          1           0      -13.027093   -1.863888   -3.428975
     90          1           0      -12.593869   -0.517958   -3.751769
     91          1           0      -11.372368   -1.750260   -3.296657
     92          1           0       -8.982026   -4.767201   -1.774190
     93          1           0       -8.019472   -5.903563   -0.673364
     94          1           0       -9.471393   -5.130632   -0.317255
     95          1           0       -3.334801   -3.655134   -0.149388
     96          1           0       -1.589127   -4.378959    3.516464
     97          1           0       -2.957947   -5.718284    3.606952
     98          1           0       -1.661234   -6.110161    2.655700
     99          1           0        2.641612   -1.763838   -1.678825
    100          1           0        2.525951    0.093072   -2.317630
    101          1           0        3.790834   -0.936389    0.262099
    102          1           0        4.068355    1.180343   -2.619094
    103          1           0        5.323750    2.264179   -1.873351
    104          1           0        5.697343    0.913455   -2.779162
    105          1           0        6.388665    1.258507    0.273214
    106          1           0        6.333278   -0.293841    0.703102
    107          1           0        7.137065   -0.993321   -1.638222
    108          1           0        7.911932    0.897978   -1.638765
    109          1           0        9.195538    0.838512    0.003099
    110          1           0        8.901575   -0.865159    0.675051
    111          1           0       10.153515    0.009663   -1.884387
    112          1           0        9.275746   -2.350253   -1.768930
    113          1           0       11.083156   -2.234089   -2.028036
    114          1           0       10.415480   -2.749078   -0.312340
    115          1           0       11.283908    0.734228    0.233537
    116          1           0       11.394317   -0.868235    0.824770
    117          1           0       12.951540   -1.747051   -0.722820
    118          1           0       12.944901   -0.186455   -1.783627
    119          1           0       13.750620    0.804173    0.827145
    120          1           0       13.847285   -0.867517    1.157217
    121          1           0       15.211919    0.244022   -1.496513
    122          1           0       16.108164   -2.135744    0.165320
    123          1           0       14.710656   -2.344140   -1.073111
    124          1           0       16.625348   -1.833175   -1.610627
    125          1           0       16.137001    1.640580    0.614617
    126          1           0       16.591186    0.202837    1.359158
    127          1           0       18.182527   -0.460418   -0.046476
    128          1           0       17.792000    1.039763   -1.226186
    129          1           0       18.465512    2.202380    1.061906
    130          1           0       18.801867    0.513015    1.611700
    131          1           0       20.738602    0.350732    0.057432
    132          1           0       20.372805    3.280613   -1.257696
    133          1           0       21.409199    1.946419   -1.220764
    134          1           0       19.732771    1.758192   -2.030904
    135          1           0       21.342989    1.383063    2.319020
    136          1           0       22.127257    2.097646    1.065226
    137          1           0       20.846160    2.943700    1.766314
 ---------------------------------------------------------------------

 SCF Done:  E(RCAM-B3LYP) =  -2933.48275289     A.U. after   15 cycles

 Excitation energies and oscillator strengths:

 Excited State   1:      Singlet-A      2.1095 eV  587.73 nm  f=0.2070  <S**2>=0.000
     240 -> 242       -0.11389
     240 -> 243        0.26259
     241 -> 242        0.63745
 This state for optimization and/or second-order correction.
 Total Energy, E(TD-HF/TD-DFT) =  -2933.40522911
 Copying the excited state density for this state as the 1-particle RhoCI density.

 The electronic state is 1-A.
 Alpha  occ. eigenvalues --  -46.78834 -19.21447 -19.20813 -19.16985 -19.16547
 Alpha  occ. eigenvalues --  -19.16215 -14.37111 -14.35527 -14.34926 -14.34909
 Alpha  occ. eigenvalues --  -10.33871 -10.33621 -10.30842 -10.28502 -10.26506
 Alpha  occ. eigenvalues --  -10.26231 -10.25925 -10.25264 -10.25126 -10.24551
 Alpha  occ. eigenvalues --  -10.24468 -10.24457 -10.24302 -10.24036 -10.23823
 Alpha  occ. eigenvalues --  -10.23633 -10.23600 -10.23582 -10.23309 -10.23168
 Alpha  occ. eigenvalues --  -10.23059 -10.23048 -10.23019 -10.22995 -10.22958
 Alpha  occ. eigenvalues --  -10.22741 -10.22673 -10.22641 -10.22521 -10.22359
 Alpha  occ. eigenvalues --  -10.22332 -10.22253 -10.22154 -10.22044 -10.21919
 Alpha  occ. eigenvalues --  -10.21772 -10.21638 -10.21275 -10.21246 -10.21219
 Alpha  occ. eigenvalues --  -10.21125 -10.21101 -10.20999 -10.20807 -10.20793
 Alpha  occ. eigenvalues --  -10.20705 -10.20678 -10.20567 -10.20529 -10.20422
 Alpha  occ. eigenvalues --  -10.20324 -10.20011 -10.19963 -10.19924 -10.19911
 Alpha  occ. eigenvalues --   -3.07753  -1.82658  -1.82247  -1.82184  -1.12120
 Alpha  occ. eigenvalues --   -1.10069  -1.08396  -1.04073  -1.01862  -0.99897
 Alpha  occ. eigenvalues --   -0.99254  -0.96995  -0.96162  -0.86866  -0.86355
 Alpha  occ. eigenvalues --   -0.86245  -0.85104  -0.84456  -0.84319  -0.84058
 Alpha  occ. eigenvalues --   -0.82723  -0.82377  -0.82084  -0.81582  -0.81313
 Alpha  occ. eigenvalues --   -0.80013  -0.79347  -0.78989  -0.78473  -0.77731
 Alpha  occ. eigenvalues --   -0.77035  -0.76167  -0.75113  -0.74877  -0.74186
 Alpha  occ. eigenvalues --   -0.73644  -0.72756  -0.71915  -0.70862  -0.70786
 Alpha  occ. eigenvalues --   -0.70559  -0.70142  -0.68916  -0.68620  -0.67886
 Alpha  occ. eigenvalues --   -0.67207  -0.66033  -0.65406  -0.64282  -0.63722
 Alpha  occ. eigenvalues --   -0.63298  -0.61847  -0.60379  -0.59676  -0.59512
 Alpha  occ. eigenvalues --   -0.59123  -0.58756  -0.58380  -0.57965  -0.57782
 Alpha  occ. eigenvalues --   -0.57508  -0.56829  -0.55981  -0.55461  -0.54928
 Alpha  occ. eigenvalues --   -0.54635  -0.53857  -0.53245  -0.53007  -0.52164
 Alpha  occ. eigenvalues --   -0.51773  -0.51648  -0.51562  -0.51133  -0.50690
 Alpha  occ. eigenvalues --   -0.50399  -0.50047  -0.49467  -0.49386  -0.49123
 Alpha  occ. eigenvalues --   -0.48912  -0.48404  -0.48105  -0.47746  -0.47589
 Alpha  occ. eigenvalues --   -0.47512  -0.47330  -0.47226  -0.46981  -0.46849
 Alpha  occ. eigenvalues --   -0.46484  -0.46253  -0.46089  -0.45794  -0.45561
 Alpha  occ. eigenvalues --   -0.45556  -0.45324  -0.45130  -0.44976  -0.44815
 Alpha  occ. eigenvalues --   -0.44595  -0.44509  -0.43915  -0.43657  -0.43613
 Alpha  occ. eigenvalues --   -0.43446  -0.43298  -0.43136  -0.42926  -0.42474
 Alpha  occ. eigenvalues --   -0.42357  -0.42169  -0.42073  -0.41588  -0.41499
 Alpha  occ. eigenvalues --   -0.41423  -0.41272  -0.41150  -0.40903  -0.40628
 Alpha  occ. eigenvalues --   -0.40563  -0.40435  -0.40059  -0.39916  -0.39781
 Alpha  occ. eigenvalues --   -0.39703  -0.39564  -0.39479  -0.39436  -0.39090
 Alpha  occ. eigenvalues --   -0.38627  -0.38549  -0.38229  -0.38178  -0.37911
 Alpha  occ. eigenvalues --   -0.37676  -0.37622  -0.37305  -0.37195  -0.37114
 Alpha  occ. eigenvalues --   -0.36639  -0.36548  -0.36136  -0.36076  -0.35860
 Alpha  occ. eigenvalues --   -0.35531  -0.35331  -0.35289  -0.34882  -0.34788
 Alpha  occ. eigenvalues --   -0.34611  -0.34388  -0.33991  -0.33653  -0.33556
 Alpha  occ. eigenvalues --   -0.33331  -0.33268  -0.32505  -0.32394  -0.31988
 Alpha  occ. eigenvalues --   -0.31969  -0.31776  -0.30748  -0.30686  -0.29978
 Alpha  occ. eigenvalues --   -0.29911  -0.29555  -0.29244  -0.28233  -0.27600
 Alpha  occ. eigenvalues --   -0.26479  -0.25791  -0.25779  -0.24660  -0.21313
 Alpha  occ. eigenvalues --   -0.20074
 Alpha virt. eigenvalues --   -0.06595  -0.04174   0.00499   0.02004   0.03382
 Alpha virt. eigenvalues --    0.03865   0.04702   0.05011   0.05424   0.06106
 Alpha virt. eigenvalues --    0.07017   0.08821   0.09024   0.09243   0.09622

 Mulliken charges:
               1
     1  Mg   0.833165
     2  C    0.066289
     3  C   -0.210834
     4  C   -0.176942
     5  C   -0.198233
     6  N   -0.634295
     7  C    0.290409
     8  C   -0.143204
     9  C   -0.145986
    10  C    0.350910
    11  C   -0.314347
    12  C   -0.147558
    13  C   -0.244749
    14  C    0.587988
    15  O   -0.453638
    16  O   -0.498203
    17  N   -0.703232
    18  C    0.343540
    19  C    0.012924
    20  C    0.042948
    21  C    0.275866
    22  C   -0.369905
    23  C   -0.091058
    24  C   -0.266274
    25  N   -0.698629
    26  C    0.297735
    27  C    0.034042
    28  C    0.017752
    29  C    0.256798
    30  C   -0.365109
    31  C   -0.247674
    32  C   -0.315060
    33  N   -0.733000
    34  C    0.297988
    35  C    0.017258
    36  C    0.013737
    37  C    0.328790
    38  C   -0.376121
    39  C    0.354818
    40  O   -0.419823
    41  C   -0.339237
    42  C    0.624898
    43  O   -0.497323
    44  O   -0.464400
    45  C   -0.075583
    46  C   -0.001669
    47  C   -0.102141
    48  C    0.095936
    49  C   -0.357830
    50  C   -0.212087
    51  C   -0.160719
    52  C   -0.158616
    53  C   -0.072891
    54  C   -0.283889
    55  C   -0.161277
    56  C   -0.171520
    57  C   -0.167034
    58  C   -0.042809
    59  C   -0.301553
    60  C   -0.156502
    61  C   -0.176537
    62  C   -0.168467
    63  C   -0.067095
    64  C   -0.308797
    65  C   -0.323233
    66  H    0.076422
    67  H    0.080299
    68  H    0.073220
    69  H    0.139455
    70  H    0.084064
    71  H    0.108456
    72  H    0.096388
    73  H    0.116465
    74  H    0.121237
    75  H    0.102049
    76  H    0.134483
    77  H    0.131326
    78  H    0.125997
    79  H    0.116739
    80  H    0.115400
    81  H    0.080643
    82  H    0.118405
    83  H    0.106037
    84  H    0.121261
    85  H    0.111137
    86  H    0.141175
    87  H    0.107186
    88  H    0.085462
    89  H    0.104152
    90  H    0.119286
    91  H    0.119258
    92  H    0.132380
    93  H    0.134780
    94  H    0.136764
    95  H    0.157303
    96  H    0.103526
    97  H    0.137553
    98  H    0.123455
    99  H    0.118782
   100  H    0.109014
   101  H    0.098506
   102  H    0.105907
   103  H    0.129201
   104  H    0.124475
   105  H    0.105094
   106  H    0.105265
   107  H    0.080323
   108  H    0.068590
   109  H    0.079170
   110  H    0.092038
   111  H    0.074684
   112  H    0.111839
   113  H    0.087068
   114  H    0.087107
   115  H    0.079626
   116  H    0.097300
   117  H    0.071298
   118  H    0.076139
   119  H    0.083361
   120  H    0.081224
   121  H    0.089612
   122  H    0.093115
   123  H    0.059098
   124  H    0.090381
   125  H    0.073699
   126  H    0.097474
   127  H    0.105208
   128  H    0.083870
   129  H    0.099808
   130  H    0.089620
   131  H    0.085973
   132  H    0.104827
   133  H    0.119504
   134  H    0.077673
   135  H    0.066773
   136  H    0.103019
   137  H    0.113862
 Sum of Mulliken charges =  -0.00000

 Dipole moment (field-independent basis, Debye):
    X=              1.1642    Y=              4.1837    Z=             -0.2254  Tot=              4.3485
 Quadrupole moment (field-independent basis, Debye-Ang):
   XX=           -315.9519   YY=           -388.0318   ZZ=           -397.9839
   XY=            -11.0055   XZ=             27.6121   YZ=             -4.9617

 Normal termination of Gaussian 16 at Wed Sep 11 07:49:44 2019.
