 Gaussian 09, Revision D.01,
 Gaussian 09:  ES64L-G09RevD.01 24-Apr-2013

 -------------------------------------
 # td=(NStates=1) CAM-B3LYP/6-31G(d,p)
 -------------------------------------

 --
 TD
 --
 Symbolic Z-matrix:
 Charge =  0 Multiplicity = 1

                         Standard orientation:
 ---------------------------------------------------------------------
 Center     Atomic      Atomic             Coordinates (Angstroms)
 Number     Number       Type             X           Y           Z
 ---------------------------------------------------------------------
      1         12           0       -7.162492    0.646250    0.077729
      2          6           0       -4.811395   -1.964730    0.438869
      3          6           0       -4.771693    2.821314    1.038218
      4          6           0       -9.435168    3.057409   -0.475529
      5          6           0       -9.475183   -1.879223   -0.801090
      6          7           0       -5.086128    0.463059    0.666141
      7          6           0       -4.288220   -0.680422    0.743716
      8          6           0       -2.938942   -0.342250    1.148141
      9          6           0       -3.010806    1.166054    1.531421
     10          6           0       -4.361716    1.550354    1.006206
     11          6           0       -2.974878    1.444181    3.034753
     12          6           0       -1.931104   -0.588537    0.130658
     13          6           0       -0.421917   -0.337858    0.470185
     14          6           0        0.510783   -0.687293   -0.566391
     15          8           0        0.299663   -1.185908   -1.722669
     16          8           0        1.752826   -0.553692   -0.133521
     17          7           0       -7.122564    2.658098    0.314365
     18          6           0       -6.058439    3.389299    0.684047
     19          6           0       -6.429191    4.837730    0.669266
     20          6           0       -7.767467    4.897289    0.319379
     21          6           0       -8.243567    3.478585   -0.012755
     22          6           0       -5.465608    5.899282    1.032650
     23          6           0       -8.741938    5.948146    0.182886
     24          6           0       -8.704292    7.176624    0.850226
     25          7           0       -9.173511    0.604800   -0.557131
     26          6           0       -9.903880    1.801879   -0.642305
     27          6           0      -11.226346    1.404227   -1.121109
     28          6           0      -11.250415    0.007768   -1.165434
     29          6           0       -9.937122   -0.433464   -0.753809
     30          6           0      -12.281462    2.358967   -1.373763
     31          6           0      -12.414434   -0.890589   -1.613370
     32          6           0      -12.274583   -1.020383   -3.138379
     33          7           0       -7.136543   -1.403156   -0.186028
     34          6           0       -8.228095   -2.244478   -0.492311
     35          6           0       -7.772661   -3.699294   -0.512792
     36          6           0       -6.436697   -3.532023   -0.150538
     37          6           0       -6.084757   -2.200296   -0.050758
     38          6           0       -8.487984   -4.870669   -0.912227
     39          6           0       -5.328611   -4.270929    0.194918
     40          8           0       -5.181029   -5.477830    0.333493
     41          6           0       -4.164336   -3.313617    0.565986
     42          6           0       -3.477805   -3.674779    1.914545
     43          8           0       -3.796885   -3.150934    3.020153
     44          8           0       -2.677612   -4.691689    1.823679
     45          6           0       -2.057376   -5.042602    3.063610
     46          6           0        2.769416   -0.668540   -1.153813
     47          6           0        4.136748   -0.544612   -0.447939
     48          6           0        5.070676    0.359644   -0.848813
     49          6           0        5.057435    1.200372   -1.992854
     50          6           0        6.320536    0.321729   -0.088303
     51          6           0        7.550870   -0.161252   -0.866059
     52          6           0        8.863629   -0.067693   -0.065555
     53          6           0       10.130762   -0.641370   -0.943256
     54          6           0       10.002189   -2.138625   -1.203984
     55          6           0       11.378246   -0.260198   -0.099776
     56          6           0       12.771272   -0.445917   -0.728861
     57          6           0       14.023235   -0.104476    0.132423
     58          6           0       15.352137   -0.219157   -0.571468
     59          6           0       15.818208   -1.688556   -0.837309
     60          6           0       16.501125    0.433550    0.414040
     61          6           0       17.863222    0.721997   -0.222802
     62          6           0       18.822743    1.330770    0.677732
     63          6           0       20.141273    1.359984    0.252201
     64          6           0       20.487790    2.024142   -1.198905
     65          6           0       21.065137    2.052734    1.367304
     66          1           0       -3.934129    3.519890    1.310553
     67          1           0      -10.181956    3.767165   -0.705034
     68          1           0      -10.096725   -2.574943   -1.207436
     69          1           0       -2.575317   -0.969691    1.906641
     70          1           0       -2.203861    1.864106    1.199043
     71          1           0       -1.902670    1.219755    3.553648
     72          1           0       -3.364253    2.524550    3.386203
     73          1           0       -3.682318    0.720581    3.761341
     74          1           0       -2.062938   -1.645495   -0.332471
     75          1           0       -2.068188    0.065127   -0.798016
     76          1           0       -0.326632    0.548882    0.841714
     77          1           0       -0.239078   -1.205090    1.400736
     78          1           0       -5.999781    6.819874    0.594269
     79          1           0       -5.334035    6.086162    2.072828
     80          1           0       -4.370754    5.667302    0.665129
     81          1           0       -9.457078    5.934373   -0.390193
     82          1           0       -9.281222    8.003608    0.682303
     83          1           0       -7.882537    7.219086    1.562821
     84          1           0      -11.873572    3.003596   -2.163484
     85          1           0      -13.369711    1.785506   -1.933324
     86          1           0      -12.353192    3.189897   -0.669244
     87          1           0      -12.049099   -1.935902   -1.217477
     88          1           0      -13.389300   -0.514396   -1.100468
     89          1           0      -12.907919   -1.938497   -3.530920
     90          1           0      -12.477135   -0.148773   -3.782040
     91          1           0      -11.185732   -1.266973   -3.667728
     92          1           0       -8.852285   -4.749879   -1.839422
     93          1           0       -7.832170   -5.945805   -0.610895
     94          1           0       -9.410096   -4.756106   -0.396770
     95          1           0       -3.485782   -3.577957   -0.180178
     96          1           0       -1.290441   -4.219532    3.165910
     97          1           0       -2.922443   -5.126779    3.960868
     98          1           0       -1.570168   -6.028731    2.637646
     99          1           0        2.678859   -1.825927   -1.581977
    100          1           0        2.374564    0.015400   -2.025995
    101          1           0        4.281634   -1.219427    0.432233
    102          1           0        4.037867    1.259498   -2.599791
    103          1           0        5.170105    2.243295   -1.802186
    104          1           0        5.615831    0.816491   -2.813201
    105          1           0        6.352706    1.390232    0.206649
    106          1           0        6.540051   -0.392621    0.861543
    107          1           0        7.203192   -1.287663   -1.262146
    108          1           0        7.487927    0.404950   -1.821989
    109          1           0        9.068699    0.990897    0.148759
    110          1           0        8.883957   -0.646463    0.865684
    111          1           0       10.129729   -0.064044   -1.907299
    112          1           0        9.090563   -2.196116   -1.777694
    113          1           0       11.031822   -2.513601   -1.697796
    114          1           0        9.820133   -2.706608   -0.356629
    115          1           0       11.219638    0.857466    0.002311
    116          1           0       11.301877   -0.865431    0.890450
    117          1           0       12.945981   -1.537668   -0.850543
    118          1           0       12.876617    0.183518   -1.694462
    119          1           0       13.874509    0.928760    0.673252
    120          1           0       14.020871   -0.783598    0.927137
    121          1           0       15.438322    0.254892   -1.664771
    122          1           0       15.912740   -2.173646    0.218937
    123          1           0       14.980220   -2.357832   -1.432662
    124          1           0       16.811798   -1.733012   -1.475819
    125          1           0       16.046189    1.420033    0.780409
    126          1           0       16.457351   -0.150779    1.358069
    127          1           0       18.280755   -0.137713   -0.584369
    128          1           0       17.726120    1.243211   -1.081636
    129          1           0       18.555884    2.494205    0.640822
    130          1           0       18.980872    1.008006    1.661061
    131          1           0       20.653185    0.376996    0.244333
    132          1           0       20.107296    3.047673   -1.155925
    133          1           0       21.597355    2.041929   -1.333455
    134          1           0       20.146632    1.397148   -1.936316
    135          1           0       20.661263    1.961811    2.529934
    136          1           0       22.099213    1.694661    1.068737
    137          1           0       20.999523    3.110817    1.139822
 ---------------------------------------------------------------------

 SCF Done:  E(RCAM-B3LYP) =  -2932.59736199     A.U. after   16 cycles

 Excitation energies and oscillator strengths:

 Excited State   1:      Singlet-A      2.1338 eV  581.04 nm  f=0.2148  <S**2>=0.000
     240 -> 242        0.16781
     240 -> 243        0.23393
     241 -> 242        0.61366
     241 -> 243       -0.17302
 This state for optimization and/or second-order correction.
 Total Energy, E(TD-HF/TD-KS) =  -2932.51894564
 Copying the excited state density for this state as the 1-particle RhoCI density.

 The electronic state is 1-A.
 Alpha  occ. eigenvalues --  -46.84779 -19.27299 -19.26360 -19.20111 -19.19799
 Alpha  occ. eigenvalues --  -19.19562 -14.41332 -14.39982 -14.39647 -14.38891
 Alpha  occ. eigenvalues --  -10.39198 -10.39183 -10.33864 -10.33703 -10.33396
 Alpha  occ. eigenvalues --  -10.31747 -10.30531 -10.30239 -10.30017 -10.29808
 Alpha  occ. eigenvalues --  -10.29017 -10.28976 -10.28920 -10.28774 -10.28563
 Alpha  occ. eigenvalues --  -10.28328 -10.28289 -10.27604 -10.27541 -10.27534
 Alpha  occ. eigenvalues --  -10.27512 -10.27452 -10.27451 -10.27432 -10.27410
 Alpha  occ. eigenvalues --  -10.27301 -10.27272 -10.27223 -10.27221 -10.27107
 Alpha  occ. eigenvalues --  -10.26925 -10.26820 -10.26750 -10.26663 -10.26633
 Alpha  occ. eigenvalues --  -10.26550 -10.26459 -10.26372 -10.26357 -10.26084
 Alpha  occ. eigenvalues --  -10.25888 -10.25825 -10.25811 -10.25787 -10.25761
 Alpha  occ. eigenvalues --  -10.25601 -10.25477 -10.25395 -10.25254 -10.24930
 Alpha  occ. eigenvalues --  -10.24866 -10.24561 -10.24535 -10.23761 -10.23039
 Alpha  occ. eigenvalues --   -3.13646  -1.88375  -1.87861  -1.87824  -1.19989
 Alpha  occ. eigenvalues --   -1.18594  -1.10488  -1.06613  -1.05992  -1.04929
 Alpha  occ. eigenvalues --   -1.03878  -1.02950  -1.01669  -0.93651  -0.92415
 Alpha  occ. eigenvalues --   -0.91665  -0.91527  -0.89976  -0.89350  -0.89320
 Alpha  occ. eigenvalues --   -0.88706  -0.87948  -0.87780  -0.87391  -0.86750
 Alpha  occ. eigenvalues --   -0.85313  -0.84259  -0.84241  -0.82996  -0.82855
 Alpha  occ. eigenvalues --   -0.82174  -0.81471  -0.81119  -0.79980  -0.79595
 Alpha  occ. eigenvalues --   -0.77519  -0.76692  -0.76379  -0.75980  -0.75810
 Alpha  occ. eigenvalues --   -0.74983  -0.74680  -0.73763  -0.73320  -0.72640
 Alpha  occ. eigenvalues --   -0.71343  -0.70137  -0.69181  -0.68838  -0.68165
 Alpha  occ. eigenvalues --   -0.67892  -0.66891  -0.65508  -0.65378  -0.64531
 Alpha  occ. eigenvalues --   -0.64134  -0.62478  -0.62136  -0.61970  -0.61908
 Alpha  occ. eigenvalues --   -0.61400  -0.61180  -0.60801  -0.60295  -0.59472
 Alpha  occ. eigenvalues --   -0.59108  -0.58667  -0.58073  -0.57704  -0.57637
 Alpha  occ. eigenvalues --   -0.57072  -0.55852  -0.55693  -0.55051  -0.54971
 Alpha  occ. eigenvalues --   -0.54843  -0.54172  -0.53899  -0.53859  -0.53138
 Alpha  occ. eigenvalues --   -0.52992  -0.52683  -0.52214  -0.52029  -0.51881
 Alpha  occ. eigenvalues --   -0.51676  -0.51482  -0.51257  -0.51116  -0.50947
 Alpha  occ. eigenvalues --   -0.50165  -0.50059  -0.49928  -0.49730  -0.49684
 Alpha  occ. eigenvalues --   -0.49475  -0.49123  -0.48757  -0.48592  -0.48420
 Alpha  occ. eigenvalues --   -0.48331  -0.48108  -0.47726  -0.47489  -0.47074
 Alpha  occ. eigenvalues --   -0.46682  -0.46542  -0.46463  -0.46393  -0.46098
 Alpha  occ. eigenvalues --   -0.45721  -0.45610  -0.45431  -0.45226  -0.44893
 Alpha  occ. eigenvalues --   -0.44803  -0.44539  -0.44418  -0.44256  -0.44077
 Alpha  occ. eigenvalues --   -0.43857  -0.43770  -0.43394  -0.43086  -0.42950
 Alpha  occ. eigenvalues --   -0.42904  -0.42667  -0.42470  -0.42387  -0.42238
 Alpha  occ. eigenvalues --   -0.42025  -0.41829  -0.41741  -0.41580  -0.41340
 Alpha  occ. eigenvalues --   -0.41122  -0.40789  -0.40697  -0.40521  -0.40193
 Alpha  occ. eigenvalues --   -0.39887  -0.39747  -0.39339  -0.39088  -0.38629
 Alpha  occ. eigenvalues --   -0.38337  -0.38231  -0.38186  -0.37667  -0.37619
 Alpha  occ. eigenvalues --   -0.37548  -0.37354  -0.37135  -0.36530  -0.36357
 Alpha  occ. eigenvalues --   -0.36273  -0.35690  -0.35625  -0.35492  -0.35103
 Alpha  occ. eigenvalues --   -0.35030  -0.34479  -0.34325  -0.33246  -0.33203
 Alpha  occ. eigenvalues --   -0.33085  -0.32719  -0.32443  -0.30879  -0.29777
 Alpha  occ. eigenvalues --   -0.29751  -0.29292  -0.27139  -0.26728  -0.23446
 Alpha  occ. eigenvalues --   -0.21060
 Alpha virt. eigenvalues --   -0.06079  -0.03459   0.01354   0.03739   0.04077
 Alpha virt. eigenvalues --    0.05685   0.06012   0.06159   0.06609   0.07398
 Alpha virt. eigenvalues --    0.08318   0.09718   0.10822   0.11092   0.11364

 Mulliken charges:
               1
     1  Mg   0.818390
     2  C    0.061759
     3  C   -0.214790
     4  C   -0.143332
     5  C   -0.156750
     6  N   -0.673968
     7  C    0.335924
     8  C   -0.146165
     9  C   -0.147730
    10  C    0.402844
    11  C   -0.299741
    12  C   -0.190514
    13  C   -0.238339
    14  C    0.618542
    15  O   -0.520531
    16  O   -0.452725
    17  N   -0.724923
    18  C    0.331671
    19  C    0.009330
    20  C    0.024719
    21  C    0.272188
    22  C   -0.374837
    23  C   -0.058312
    24  C   -0.247490
    25  N   -0.679560
    26  C    0.263887
    27  C    0.078600
    28  C   -0.038211
    29  C    0.292894
    30  C   -0.392361
    31  C   -0.223357
    32  C   -0.297459
    33  N   -0.717493
    34  C    0.275630
    35  C    0.077583
    36  C    0.045217
    37  C    0.297605
    38  C   -0.384235
    39  C    0.301077
    40  O   -0.482443
    41  C   -0.300608
    42  C    0.609389
    43  O   -0.522134
    44  O   -0.406678
    45  C   -0.083747
    46  C    0.013597
    47  C   -0.135256
    48  C    0.139866
    49  C   -0.386793
    50  C   -0.203378
    51  C   -0.179813
    52  C   -0.175579
    53  C   -0.071851
    54  C   -0.300050
    55  C   -0.156601
    56  C   -0.176765
    57  C   -0.168922
    58  C   -0.058628
    59  C   -0.288371
    60  C   -0.180855
    61  C   -0.172284
    62  C   -0.115240
    63  C   -0.087729
    64  C   -0.324280
    65  C   -0.311474
    66  H    0.074203
    67  H    0.078443
    68  H    0.084140
    69  H    0.128470
    70  H    0.111349
    71  H    0.085789
    72  H    0.104824
    73  H    0.103193
    74  H    0.114531
    75  H    0.105428
    76  H    0.140179
    77  H    0.106887
    78  H    0.112832
    79  H    0.132872
    80  H    0.104542
    81  H    0.068392
    82  H    0.109475
    83  H    0.095526
    84  H    0.123032
    85  H    0.080294
    86  H    0.128679
    87  H    0.091033
    88  H    0.115478
    89  H    0.082808
    90  H    0.116559
    91  H    0.090076
    92  H    0.150647
    93  H    0.149831
    94  H    0.135042
    95  H    0.156216
    96  H    0.126910
    97  H    0.147712
    98  H    0.125398
    99  H    0.106785
   100  H    0.123821
   101  H    0.107303
   102  H    0.095680
   103  H    0.128543
   104  H    0.144454
   105  H    0.089332
   106  H    0.083280
   107  H    0.068876
   108  H    0.092195
   109  H    0.100698
   110  H    0.097637
   111  H    0.082673
   112  H    0.107847
   113  H    0.089566
   114  H    0.107134
   115  H    0.081650
   116  H    0.074185
   117  H    0.091707
   118  H    0.082063
   119  H    0.074144
   120  H    0.097546
   121  H    0.066184
   122  H    0.089447
   123  H    0.076722
   124  H    0.098116
   125  H    0.078012
   126  H    0.088041
   127  H    0.095374
   128  H    0.108208
   129  H    0.057939
   130  H    0.097925
   131  H    0.079492
   132  H    0.104307
   133  H    0.095919
   134  H    0.115477
   135  H    0.080193
   136  H    0.097498
   137  H    0.104825
 Sum of Mulliken charges =   0.00000

 Dipole moment (field-independent basis, Debye):
    X=              2.2022    Y=              3.5169    Z=             -0.5431  Tot=              4.1849
 Quadrupole moment (field-independent basis, Debye-Ang):
   XX=           -357.2056   YY=           -393.2401   ZZ=           -401.1493
   XY=            -12.6550   XZ=             12.3439   YZ=             -2.4806

 Normal termination of Gaussian 09 at Sun Jul  7 00:05:38 2019.
