 Gaussian 16, Revision A.03,
 Gaussian 16:  ES64L-G16RevA.03 25-Dec-2016

 ----------------------------------------------------------------------
 # td=(NStates=1) iop(3/107=0140000000,3/108=0140000000) CAM-B3LYP/6-31
 G(d,p)
 ----------------------------------------------------------------------

 --
 TD
 --
 Symbolic Z-matrix:
 Charge =  0 Multiplicity = 1

                         Standard orientation:
 ---------------------------------------------------------------------
 Center     Atomic      Atomic             Coordinates (Angstroms)
 Number     Number       Type             X           Y           Z
 ---------------------------------------------------------------------
      1         12           0       -7.184773    0.533795    0.064316
      2          6           0       -4.892813   -1.938868    0.476932
      3          6           0       -4.838692    2.814090    1.225871
      4          6           0       -9.407484    3.081700   -0.419217
      5          6           0       -9.582182   -1.715431   -0.874283
      6          7           0       -5.179254    0.430180    0.737352
      7          6           0       -4.304133   -0.697049    0.795840
      8          6           0       -2.974792   -0.332340    1.279142
      9          6           0       -3.037191    1.055848    1.742997
     10          6           0       -4.398150    1.470009    1.213898
     11          6           0       -3.067565    1.195848    3.252471
     12          6           0       -1.871324   -0.621395    0.107342
     13          6           0       -0.433587   -0.346272    0.485156
     14          6           0        0.574297   -0.665646   -0.596474
     15          8           0        0.339339   -0.956898   -1.723242
     16          8           0        1.835522   -0.454834   -0.155349
     17          7           0       -7.069354    2.629035    0.262928
     18          6           0       -6.010752    3.423064    0.627585
     19          6           0       -6.310058    4.779134    0.690307
     20          6           0       -7.657077    4.825635    0.475889
     21          6           0       -8.099331    3.470369    0.112849
     22          6           0       -5.395280    5.895383    1.076226
     23          6           0       -8.404166    6.092674    0.159304
     24          6           0       -8.342232    7.283195    0.799440
     25          7           0       -9.097855    0.614405   -0.492254
     26          6           0       -9.907919    1.792869   -0.731894
     27          6           0      -11.241452    1.553532   -1.142365
     28          6           0      -11.230713    0.140256   -1.286330
     29          6           0       -9.985264   -0.369366   -0.825577
     30          6           0      -12.259054    2.505745   -1.298808
     31          6           0      -12.367142   -0.732190   -1.751314
     32          6           0      -12.318035   -1.104981   -3.272679
     33          7           0       -7.259161   -1.362455   -0.098526
     34          6           0       -8.314027   -2.208582   -0.375999
     35          6           0       -7.902732   -3.617956   -0.474950
     36          6           0       -6.570634   -3.573213   -0.125089
     37          6           0       -6.228545   -2.185550    0.045353
     38          6           0       -8.811670   -4.854927   -0.723591
     39          6           0       -5.467153   -4.402310    0.068811
     40          8           0       -5.354147   -5.605918    0.109949
     41          6           0       -4.288619   -3.380914    0.540556
     42          6           0       -3.644912   -3.739981    1.794635
     43          8           0       -3.751380   -3.212718    2.922833
     44          8           0       -2.771104   -4.832139    1.691018
     45          6           0       -2.394316   -5.281022    2.949336
     46          6           0        2.807411   -0.592742   -1.248032
     47          6           0        4.260470   -0.496817   -0.565173
     48          6           0        5.151243    0.437801   -0.904749
     49          6           0        5.131307    1.162666   -2.191122
     50          6           0        6.499740    0.548117   -0.145763
     51          6           0        7.700612    0.028426   -1.014223
     52          6           0        9.027422   -0.119336   -0.145533
     53          6           0       10.233346   -0.444469   -0.912440
     54          6           0       10.313825   -1.874529   -1.470951
     55          6           0       11.488158   -0.169978   -0.094640
     56          6           0       12.902120   -0.362676   -0.722341
     57          6           0       13.993760   -0.162670    0.194402
     58          6           0       15.358927   -0.257190   -0.514427
     59          6           0       15.638694   -1.663974   -0.904104
     60          6           0       16.484855    0.256720    0.534497
     61          6           0       17.816350    0.555684   -0.208936
     62          6           0       18.792819    1.115892    0.838787
     63          6           0       20.183078    1.260084    0.291371
     64          6           0       20.342539    2.035072   -1.019994
     65          6           0       21.018300    1.915762    1.441188
     66          1           0       -4.043023    3.520167    1.507348
     67          1           0      -10.173350    3.998444   -0.529221
     68          1           0      -10.349915   -2.427946   -1.282753
     69          1           0       -2.688364   -1.087137    1.901950
     70          1           0       -2.248156    1.733879    1.395290
     71          1           0       -2.116515    1.050062    3.576995
     72          1           0       -3.375514    2.299640    3.598540
     73          1           0       -3.848463    0.629945    3.837008
     74          1           0       -2.063151   -1.433631   -0.402863
     75          1           0       -2.241504   -0.064043   -0.742110
     76          1           0       -0.105795    0.574658    0.872175
     77          1           0       -0.349684   -0.918314    1.211918
     78          1           0       -5.908783    6.677832    0.680509
     79          1           0       -5.111157    5.876944    2.262769
     80          1           0       -4.312938    5.608326    0.501335
     81          1           0       -9.149528    5.947549   -0.706614
     82          1           0       -8.781932    8.244532    0.372526
     83          1           0       -7.706982    7.453409    1.597382
     84          1           0      -12.084865    3.320323   -2.114401
     85          1           0      -13.013754    2.045462   -1.785785
     86          1           0      -12.712807    2.994071   -0.340118
     87          1           0      -12.172142   -1.530431   -1.188259
     88          1           0      -13.275309   -0.233260   -1.474096
     89          1           0      -13.161280   -1.760494   -3.577853
     90          1           0      -12.336030   -0.247217   -3.857488
     91          1           0      -11.426337   -1.689099   -3.307085
     92          1           0       -9.111629   -4.903019   -1.712583
     93          1           0       -8.168334   -5.752239   -0.393347
     94          1           0       -9.408101   -4.984450    0.102608
     95          1           0       -3.563868   -3.663668   -0.468762
     96          1           0       -2.029634   -4.297668    3.730271
     97          1           0       -3.339383   -5.749047    3.353129
     98          1           0       -1.428619   -5.931103    2.887726
     99          1           0        2.596627   -1.515705   -1.753845
    100          1           0        2.671618    0.061077   -2.051690
    101          1           0        4.344105   -0.918698    0.249729
    102          1           0        4.133365    1.262032   -2.542839
    103          1           0        5.582689    2.295891   -2.158200
    104          1           0        5.625456    0.493464   -3.081386
    105          1           0        6.539199    1.580133    0.067692
    106          1           0        6.286362   -0.097947    0.799129
    107          1           0        7.543583   -1.014119   -1.511654
    108          1           0        7.714834    0.955784   -1.784739
    109          1           0        9.264151    0.793722    0.395583
    110          1           0        8.879422   -0.705356    0.623997
    111          1           0       10.332346    0.300053   -1.734509
    112          1           0        9.586664   -2.327522   -2.201396
    113          1           0       11.346676   -2.109210   -1.917042
    114          1           0       10.088054   -2.529633   -0.648509
    115          1           0       11.419751    0.734167    0.403922
    116          1           0       11.474738   -0.809148    0.862493
    117          1           0       13.039331   -1.266853   -1.220327
    118          1           0       13.051285    0.139430   -1.542142
    119          1           0       13.813793    0.777457    0.601461
    120          1           0       13.990706   -0.778644    1.103329
    121          1           0       15.332162    0.460066   -1.272686
    122          1           0       15.235143   -2.144214    0.047297
    123          1           0       14.995641   -2.111481   -1.727305
    124          1           0       16.691519   -2.192761   -1.153560
    125          1           0       15.976315    1.043358    0.857742
    126          1           0       16.617430   -0.535914    1.306927
    127          1           0       18.272206   -0.592270   -0.697671
    128          1           0       17.847693    1.166975   -1.085110
    129          1           0       18.521798    2.179230    1.020759
    130          1           0       18.646939    0.500389    1.884440
    131          1           0       20.604504    0.249457    0.042028
    132          1           0       19.827586    2.952876   -1.027004
    133          1           0       21.452141    2.155120   -1.387730
    134          1           0       19.896186    1.316324   -1.885614
    135          1           0       20.927252    1.303132    2.325170
    136          1           0       22.156594    1.895353    0.950433
    137          1           0       20.990126    2.948653    1.381615
 ---------------------------------------------------------------------

 SCF Done:  E(RCAM-B3LYP) =  -2933.42734240     A.U. after   16 cycles

 Excitation energies and oscillator strengths:

 Excited State   1:      Singlet-A      1.9393 eV  639.32 nm  f=0.2022  <S**2>=0.000
     240 -> 243       -0.23248
     241 -> 242        0.66328
 This state for optimization and/or second-order correction.
 Total Energy, E(TD-HF/TD-DFT) =  -2933.35607340
 Copying the excited state density for this state as the 1-particle RhoCI density.

 The electronic state is 1-A.
 Alpha  occ. eigenvalues --  -46.79341 -19.21817 -19.21062 -19.16750 -19.16530
 Alpha  occ. eigenvalues --  -19.16382 -14.37978 -14.35880 -14.35128 -14.35089
 Alpha  occ. eigenvalues --  -10.34473 -10.34154 -10.30618 -10.27364 -10.26913
 Alpha  occ. eigenvalues --  -10.26775 -10.26460 -10.25731 -10.25657 -10.25321
 Alpha  occ. eigenvalues --  -10.25098 -10.24880 -10.24785 -10.24539 -10.24324
 Alpha  occ. eigenvalues --  -10.24080 -10.23939 -10.23821 -10.23645 -10.23639
 Alpha  occ. eigenvalues --  -10.23566 -10.23558 -10.23042 -10.22701 -10.22571
 Alpha  occ. eigenvalues --  -10.22565 -10.22255 -10.22163 -10.22117 -10.22082
 Alpha  occ. eigenvalues --  -10.22029 -10.21806 -10.21779 -10.21733 -10.21731
 Alpha  occ. eigenvalues --  -10.21727 -10.21724 -10.21560 -10.21493 -10.21473
 Alpha  occ. eigenvalues --  -10.21361 -10.21350 -10.21262 -10.21101 -10.20914
 Alpha  occ. eigenvalues --  -10.20843 -10.20691 -10.20401 -10.20377 -10.20356
 Alpha  occ. eigenvalues --  -10.20156 -10.20070 -10.19604 -10.19166 -10.18110
 Alpha  occ. eigenvalues --   -3.08222  -1.83131  -1.82709  -1.82654  -1.13626
 Alpha  occ. eigenvalues --   -1.11807  -1.06798  -1.04778  -1.02345  -1.00152
 Alpha  occ. eigenvalues --   -0.99218  -0.97908  -0.96863  -0.87052  -0.86638
 Alpha  occ. eigenvalues --   -0.86216  -0.85551  -0.84605  -0.84483  -0.84194
 Alpha  occ. eigenvalues --   -0.83784  -0.83644  -0.83052  -0.82431  -0.81617
 Alpha  occ. eigenvalues --   -0.79911  -0.79612  -0.78818  -0.77832  -0.77333
 Alpha  occ. eigenvalues --   -0.76358  -0.75834  -0.75137  -0.74846  -0.74176
 Alpha  occ. eigenvalues --   -0.73509  -0.72731  -0.71603  -0.71380  -0.70510
 Alpha  occ. eigenvalues --   -0.70462  -0.69938  -0.69671  -0.69648  -0.68527
 Alpha  occ. eigenvalues --   -0.68112  -0.67485  -0.65758  -0.65425  -0.64511
 Alpha  occ. eigenvalues --   -0.62880  -0.62223  -0.61738  -0.61396  -0.60874
 Alpha  occ. eigenvalues --   -0.60264  -0.60153  -0.59019  -0.58550  -0.57351
 Alpha  occ. eigenvalues --   -0.57314  -0.56994  -0.55919  -0.55869  -0.55458
 Alpha  occ. eigenvalues --   -0.54731  -0.54244  -0.53943  -0.53608  -0.52512
 Alpha  occ. eigenvalues --   -0.52125  -0.51871  -0.51139  -0.50721  -0.50642
 Alpha  occ. eigenvalues --   -0.50367  -0.50311  -0.50035  -0.49831  -0.49701
 Alpha  occ. eigenvalues --   -0.49569  -0.49057  -0.48758  -0.48296  -0.48252
 Alpha  occ. eigenvalues --   -0.47758  -0.47513  -0.47438  -0.47136  -0.47026
 Alpha  occ. eigenvalues --   -0.46774  -0.46514  -0.46461  -0.46283  -0.46033
 Alpha  occ. eigenvalues --   -0.45894  -0.45550  -0.45454  -0.45332  -0.45195
 Alpha  occ. eigenvalues --   -0.44923  -0.44471  -0.43916  -0.43721  -0.43575
 Alpha  occ. eigenvalues --   -0.43477  -0.43418  -0.43226  -0.43121  -0.42657
 Alpha  occ. eigenvalues --   -0.42268  -0.41962  -0.41898  -0.41667  -0.41254
 Alpha  occ. eigenvalues --   -0.41197  -0.40948  -0.40698  -0.40593  -0.40444
 Alpha  occ. eigenvalues --   -0.40361  -0.40341  -0.40133  -0.39960  -0.39917
 Alpha  occ. eigenvalues --   -0.39844  -0.39437  -0.39286  -0.39221  -0.39094
 Alpha  occ. eigenvalues --   -0.38792  -0.38607  -0.38607  -0.38576  -0.38159
 Alpha  occ. eigenvalues --   -0.38053  -0.38018  -0.37488  -0.37236  -0.37225
 Alpha  occ. eigenvalues --   -0.37136  -0.36478  -0.36044  -0.35966  -0.35743
 Alpha  occ. eigenvalues --   -0.35698  -0.35515  -0.35446  -0.34857  -0.34836
 Alpha  occ. eigenvalues --   -0.34745  -0.34662  -0.34193  -0.34138  -0.33795
 Alpha  occ. eigenvalues --   -0.33676  -0.33152  -0.33026  -0.32758  -0.32434
 Alpha  occ. eigenvalues --   -0.32201  -0.32003  -0.31407  -0.31089  -0.30800
 Alpha  occ. eigenvalues --   -0.29635  -0.29130  -0.29072  -0.28868  -0.28115
 Alpha  occ. eigenvalues --   -0.27112  -0.27036  -0.25833  -0.25272  -0.21395
 Alpha  occ. eigenvalues --   -0.20040
 Alpha virt. eigenvalues --   -0.07463  -0.04185  -0.00778   0.01717   0.02624
 Alpha virt. eigenvalues --    0.03902   0.04418   0.04655   0.05158   0.05368
 Alpha virt. eigenvalues --    0.06147   0.08757   0.09257   0.09392   0.09523

 Mulliken charges:
               1
     1  Mg   0.828991
     2  C    0.060586
     3  C   -0.195090
     4  C   -0.194417
     5  C   -0.177989
     6  N   -0.614023
     7  C    0.296628
     8  C   -0.135595
     9  C   -0.132314
    10  C    0.326274
    11  C   -0.302787
    12  C   -0.204357
    13  C   -0.241301
    14  C    0.596267
    15  O   -0.461617
    16  O   -0.479953
    17  N   -0.658391
    18  C    0.276894
    19  C    0.056058
    20  C   -0.032555
    21  C    0.303518
    22  C   -0.335157
    23  C   -0.078442
    24  C   -0.252949
    25  N   -0.692818
    26  C    0.260893
    27  C    0.113348
    28  C   -0.017756
    29  C    0.334611
    30  C   -0.403333
    31  C   -0.249117
    32  C   -0.306712
    33  N   -0.726470
    34  C    0.226220
    35  C   -0.000183
    36  C    0.086008
    37  C    0.284259
    38  C   -0.377026
    39  C    0.318955
    40  O   -0.448021
    41  C   -0.346749
    42  C    0.646010
    43  O   -0.492092
    44  O   -0.438676
    45  C   -0.065018
    46  C   -0.003380
    47  C   -0.087451
    48  C    0.111707
    49  C   -0.356711
    50  C   -0.222661
    51  C   -0.162529
    52  C   -0.168618
    53  C   -0.041620
    54  C   -0.316550
    55  C   -0.186677
    56  C   -0.161261
    57  C   -0.189904
    58  C   -0.081470
    59  C   -0.293211
    60  C   -0.162318
    61  C   -0.155537
    62  C   -0.142314
    63  C   -0.047402
    64  C   -0.317161
    65  C   -0.298319
    66  H    0.063919
    67  H    0.080858
    68  H    0.089396
    69  H    0.131609
    70  H    0.115090
    71  H    0.117282
    72  H    0.088405
    73  H    0.132267
    74  H    0.123322
    75  H    0.107219
    76  H    0.135274
    77  H    0.147179
    78  H    0.126184
    79  H    0.112526
    80  H    0.086605
    81  H    0.090491
    82  H    0.099988
    83  H    0.107085
    84  H    0.111170
    85  H    0.122917
    86  H    0.123607
    87  H    0.113775
    88  H    0.101928
    89  H    0.102509
    90  H    0.119991
    91  H    0.111480
    92  H    0.138337
    93  H    0.135836
    94  H    0.147351
    95  H    0.137957
    96  H    0.088125
    97  H    0.124643
    98  H    0.106647
    99  H    0.129366
   100  H    0.120402
   101  H    0.065927
   102  H    0.115804
   103  H    0.087265
   104  H    0.114616
   105  H    0.111711
   106  H    0.078760
   107  H    0.098098
   108  H    0.084813
   109  H    0.084608
   110  H    0.102232
   111  H    0.080379
   112  H    0.091157
   113  H    0.097704
   114  H    0.103344
   115  H    0.091736
   116  H    0.066435
   117  H    0.091315
   118  H    0.094897
   119  H    0.088945
   120  H    0.084089
   121  H    0.085998
   122  H    0.095457
   123  H    0.091487
   124  H    0.089434
   125  H    0.101096
   126  H    0.090722
   127  H    0.032952
   128  H    0.104608
   129  H    0.087271
   130  H    0.070842
   131  H    0.083138
   132  H    0.110446
   133  H    0.096534
   134  H    0.083518
   135  H    0.111532
   136  H    0.051998
   137  H    0.117165
 Sum of Mulliken charges =  -0.00000

 Dipole moment (field-independent basis, Debye):
    X=             -0.2623    Y=              4.7638    Z=             -0.7487  Tot=              4.8294
 Quadrupole moment (field-independent basis, Debye-Ang):
   XX=           -344.7437   YY=           -399.5183   ZZ=           -397.5537
   XY=             -5.3957   XZ=             15.0386   YZ=              0.9492

 Normal termination of Gaussian 16 at Tue Sep 10 06:13:59 2019.
