 Gaussian 16, Revision A.03,
 Gaussian 16:  ES64L-G16RevA.03 25-Dec-2016

 ----------------------------------------------------------------------
 # td=(NStates=1) iop(3/107=0140000000,3/108=0140000000) CAM-B3LYP/6-31
 G(d,p)
 ----------------------------------------------------------------------

 --
 TD
 --
 Symbolic Z-matrix:
 Charge =  0 Multiplicity = 1

                         Standard orientation:
 ---------------------------------------------------------------------
 Center     Atomic      Atomic             Coordinates (Angstroms)
 Number     Number       Type             X           Y           Z
 ---------------------------------------------------------------------
      1         12           0       -7.127898    0.594832    0.021974
      2          6           0       -4.874085   -1.955869    0.535610
      3          6           0       -4.901084    2.900073    1.150700
      4          6           0       -9.396512    3.159540   -0.435572
      5          6           0       -9.539546   -1.772889   -0.867536
      6          7           0       -5.255869    0.453921    0.690276
      7          6           0       -4.409581   -0.664244    0.748667
      8          6           0       -3.008563   -0.253426    1.230151
      9          6           0       -3.146126    1.196890    1.635643
     10          6           0       -4.551573    1.608475    1.130123
     11          6           0       -3.035245    1.379970    3.120251
     12          6           0       -1.895940   -0.542092    0.111126
     13          6           0       -0.438054   -0.536651    0.599270
     14          6           0        0.475808   -0.966381   -0.434294
     15          8           0        0.276699   -1.393503   -1.542452
     16          8           0        1.762631   -0.481778   -0.028448
     17          7           0       -7.095084    2.649047    0.161454
     18          6           0       -6.097785    3.407217    0.641637
     19          6           0       -6.400398    4.826977    0.703685
     20          6           0       -7.683784    4.883080    0.171353
     21          6           0       -8.076105    3.600798   -0.129923
     22          6           0       -5.465528    5.982454    0.969030
     23          6           0       -8.533963    6.087088    0.060527
     24          6           0       -8.280667    7.237393    0.714825
     25          7           0       -9.066146    0.679158   -0.554696
     26          6           0       -9.828974    1.870894   -0.621085
     27          6           0      -11.195029    1.486431   -1.017491
     28          6           0      -11.170124    0.088348   -1.096101
     29          6           0       -9.971818   -0.471948   -0.861012
     30          6           0      -12.283639    2.487779   -1.233999
     31          6           0      -12.393159   -0.747975   -1.533787
     32          6           0      -12.318280   -1.149179   -3.062309
     33          7           0       -7.257674   -1.411082   -0.104881
     34          6           0       -8.192193   -2.230153   -0.491601
     35          6           0       -7.834520   -3.590821   -0.536056
     36          6           0       -6.468736   -3.575120   -0.068023
     37          6           0       -6.220440   -2.170312    0.123827
     38          6           0       -8.576417   -4.852558   -0.880855
     39          6           0       -5.362098   -4.332279    0.184731
     40          8           0       -5.217093   -5.603462    0.178722
     41          6           0       -4.173509   -3.285249    0.625440
     42          6           0       -3.564270   -3.692968    1.893736
     43          8           0       -3.727388   -3.153569    2.971603
     44          8           0       -2.663255   -4.615500    1.761988
     45          6           0       -2.095126   -5.164615    2.953032
     46          6           0        2.701283   -0.835522   -1.096103
     47          6           0        4.148807   -0.666014   -0.505542
     48          6           0        5.105665    0.107001   -1.007398
     49          6           0        5.005698    0.998264   -2.161460
     50          6           0        6.412916    0.334022   -0.252920
     51          6           0        7.659899   -0.317232   -1.023987
     52          6           0        8.927828   -0.256565   -0.226279
     53          6           0       10.254576   -0.559174   -0.972398
     54          6           0       10.310016   -2.055908   -1.546008
     55          6           0       11.455445   -0.378784   -0.159309
     56          6           0       12.770024   -0.484025   -0.842430
     57          6           0       13.918053   -0.057503    0.192578
     58          6           0       15.320693   -0.119670   -0.392277
     59          6           0       15.598025   -1.654190   -0.758692
     60          6           0       16.366554    0.465054    0.517221
     61          6           0       17.774627    0.782332   -0.192001
     62          6           0       18.781192    1.412538    0.763721
     63          6           0       20.201611    1.462225    0.275562
     64          6           0       20.391489    2.285850   -1.034222
     65          6           0       21.135678    1.894868    1.397437
     66          1           0       -4.061635    3.683010    1.157437
     67          1           0      -10.087843    3.955280   -0.674393
     68          1           0      -10.362493   -2.438293   -0.836795
     69          1           0       -2.476845   -0.694406    1.885991
     70          1           0       -2.231546    1.760885    1.295783
     71          1           0       -2.067424    1.030059    3.454141
     72          1           0       -3.163286    2.533742    3.340003
     73          1           0       -3.843862    1.020554    3.779354
     74          1           0       -2.063432   -1.548956   -0.230117
     75          1           0       -1.883473    0.075699   -0.839627
     76          1           0       -0.254344    0.429245    0.922156
     77          1           0       -0.298531   -1.291597    1.443575
     78          1           0       -5.463083    6.868027    0.359889
     79          1           0       -5.251030    6.388837    1.974353
     80          1           0       -4.494748    5.637090    0.791440
     81          1           0       -9.380521    5.949163   -0.621605
     82          1           0       -9.063380    8.034725    0.450544
     83          1           0       -7.461874    7.441677    1.558339
     84          1           0      -11.999229    3.260590   -2.020910
     85          1           0      -12.962650    2.049546   -1.818571
     86          1           0      -12.557976    3.078701   -0.330500
     87          1           0      -12.306962   -1.568687   -0.928827
     88          1           0      -13.373012   -0.428438   -1.560507
     89          1           0      -13.210725   -1.767705   -3.179617
     90          1           0      -12.412951   -0.340515   -3.868722
     91          1           0      -11.491861   -1.463464   -3.348039
     92          1           0       -8.944893   -4.691907   -1.984041
     93          1           0       -7.891829   -5.764222   -1.123055
     94          1           0       -9.428074   -5.314113   -0.177840
     95          1           0       -3.606862   -3.581864   -0.257895
     96          1           0       -1.390598   -4.271423    3.174316
     97          1           0       -2.933021   -5.400123    3.780382
     98          1           0       -1.421250   -5.952868    2.661615
     99          1           0        2.565344   -1.999174   -1.155435
    100          1           0        2.579632   -0.322762   -2.021448
    101          1           0        4.368843   -1.258272    0.399462
    102          1           0        4.059365    1.188431   -2.605799
    103          1           0        5.640456    1.986535   -1.857744
    104          1           0        5.751382    0.661563   -2.846803
    105          1           0        6.624512    1.439220    0.038026
    106          1           0        6.494237   -0.169967    0.662150
    107          1           0        7.511041   -1.276197   -1.376363
    108          1           0        8.030274    0.401252   -1.805220
    109          1           0        8.887730    0.832361    0.137967
    110          1           0        8.811155   -0.967009    0.698939
    111          1           0       10.446108    0.117033   -1.905349
    112          1           0        9.280074   -2.317702   -1.833274
    113          1           0       11.091289   -2.043735   -2.465731
    114          1           0       10.627768   -2.682940   -0.711455
    115          1           0       11.268151    0.652927    0.265018
    116          1           0       11.466796   -1.007666    0.716837
    117          1           0       13.020002   -1.635112   -1.181046
    118          1           0       12.827949    0.181513   -1.624789
    119          1           0       13.693304    0.989986    0.603768
    120          1           0       13.818895   -0.738651    1.041133
    121          1           0       15.262652    0.402352   -1.439530
    122          1           0       15.457361   -2.286789    0.097174
    123          1           0       14.971432   -2.037525   -1.462612
    124          1           0       16.702046   -1.914700   -1.142172
    125          1           0       16.022364    1.653331    0.795460
    126          1           0       16.631400   -0.115061    1.351536
    127          1           0       18.298220   -0.130255   -0.697042
    128          1           0       17.726039    1.400307   -0.955042
    129          1           0       18.497548    2.421294    1.097562
    130          1           0       18.793548    0.995611    1.695070
    131          1           0       20.423372    0.355043   -0.091286
    132          1           0       20.018812    3.213446   -0.817301
    133          1           0       21.318389    2.197387   -1.323556
    134          1           0       19.626802    1.688250   -1.792758
    135          1           0       20.741242    1.435583    2.376976
    136          1           0       22.183709    1.531265    1.026548
    137          1           0       21.109340    3.090355    1.484517
 ---------------------------------------------------------------------

 SCF Done:  E(RCAM-B3LYP) =  -2933.50618663     A.U. after   16 cycles

 Excitation energies and oscillator strengths:

 Excited State   1:      Singlet-A      1.9707 eV  629.13 nm  f=0.3241  <S**2>=0.000
     240 -> 243        0.19573
     241 -> 242        0.67150
 This state for optimization and/or second-order correction.
 Total Energy, E(TD-HF/TD-DFT) =  -2933.43376403
 Copying the excited state density for this state as the 1-particle RhoCI density.

 The electronic state is 1-A.
 Alpha  occ. eigenvalues --  -46.78889 -19.21151 -19.20871 -19.18132 -19.14757
 Alpha  occ. eigenvalues --  -19.14289 -14.38219 -14.35572 -14.35536 -14.34972
 Alpha  occ. eigenvalues --  -10.34569 -10.32933 -10.29438 -10.27787 -10.27271
 Alpha  occ. eigenvalues --  -10.27058 -10.26773 -10.25465 -10.25276 -10.25193
 Alpha  occ. eigenvalues --  -10.25072 -10.24541 -10.24443 -10.24083 -10.23724
 Alpha  occ. eigenvalues --  -10.23687 -10.23682 -10.23476 -10.23474 -10.23270
 Alpha  occ. eigenvalues --  -10.23228 -10.23081 -10.23075 -10.22983 -10.22559
 Alpha  occ. eigenvalues --  -10.22506 -10.22329 -10.22314 -10.22307 -10.22203
 Alpha  occ. eigenvalues --  -10.22162 -10.22035 -10.22013 -10.21997 -10.21963
 Alpha  occ. eigenvalues --  -10.21906 -10.21878 -10.21733 -10.21722 -10.21462
 Alpha  occ. eigenvalues --  -10.21411 -10.21355 -10.21290 -10.21188 -10.21181
 Alpha  occ. eigenvalues --  -10.21127 -10.21016 -10.20779 -10.20376 -10.20041
 Alpha  occ. eigenvalues --  -10.20034 -10.19748 -10.19730 -10.19353 -10.18894
 Alpha  occ. eigenvalues --   -3.07786  -1.82708  -1.82264  -1.82215  -1.14162
 Alpha  occ. eigenvalues --   -1.11829  -1.03920  -1.02665  -1.02461  -1.01307
 Alpha  occ. eigenvalues --   -0.99635  -0.96929  -0.95157  -0.87773  -0.86100
 Alpha  occ. eigenvalues --   -0.85772  -0.85090  -0.85028  -0.84557  -0.84486
 Alpha  occ. eigenvalues --   -0.83378  -0.82935  -0.82420  -0.82348  -0.81856
 Alpha  occ. eigenvalues --   -0.80181  -0.79729  -0.79110  -0.78403  -0.77431
 Alpha  occ. eigenvalues --   -0.77208  -0.76662  -0.75491  -0.74595  -0.74409
 Alpha  occ. eigenvalues --   -0.73644  -0.73442  -0.71890  -0.71331  -0.70966
 Alpha  occ. eigenvalues --   -0.70706  -0.70147  -0.69326  -0.68960  -0.68006
 Alpha  occ. eigenvalues --   -0.67200  -0.66385  -0.65760  -0.65212  -0.64596
 Alpha  occ. eigenvalues --   -0.63164  -0.62603  -0.61476  -0.60778  -0.60313
 Alpha  occ. eigenvalues --   -0.60197  -0.58876  -0.58124  -0.57752  -0.57585
 Alpha  occ. eigenvalues --   -0.57184  -0.56814  -0.56556  -0.55925  -0.55408
 Alpha  occ. eigenvalues --   -0.54952  -0.54750  -0.54453  -0.53674  -0.53420
 Alpha  occ. eigenvalues --   -0.52513  -0.51955  -0.51631  -0.51262  -0.51016
 Alpha  occ. eigenvalues --   -0.50849  -0.50234  -0.50155  -0.49831  -0.49738
 Alpha  occ. eigenvalues --   -0.49575  -0.48780  -0.48595  -0.48155  -0.47593
 Alpha  occ. eigenvalues --   -0.47428  -0.47299  -0.47242  -0.46721  -0.46646
 Alpha  occ. eigenvalues --   -0.46394  -0.46367  -0.46030  -0.45874  -0.45764
 Alpha  occ. eigenvalues --   -0.45436  -0.45276  -0.45064  -0.44763  -0.44535
 Alpha  occ. eigenvalues --   -0.44435  -0.44331  -0.44200  -0.44062  -0.43838
 Alpha  occ. eigenvalues --   -0.43754  -0.43423  -0.43019  -0.42516  -0.42429
 Alpha  occ. eigenvalues --   -0.42280  -0.42085  -0.42068  -0.41970  -0.41898
 Alpha  occ. eigenvalues --   -0.41609  -0.41400  -0.41181  -0.41165  -0.40738
 Alpha  occ. eigenvalues --   -0.40626  -0.40266  -0.40226  -0.40022  -0.39978
 Alpha  occ. eigenvalues --   -0.39700  -0.39426  -0.39246  -0.39097  -0.38624
 Alpha  occ. eigenvalues --   -0.38461  -0.38317  -0.38258  -0.38072  -0.37817
 Alpha  occ. eigenvalues --   -0.37747  -0.37664  -0.37461  -0.37376  -0.36818
 Alpha  occ. eigenvalues --   -0.36732  -0.36575  -0.36370  -0.36139  -0.36039
 Alpha  occ. eigenvalues --   -0.35671  -0.35186  -0.34829  -0.34757  -0.34430
 Alpha  occ. eigenvalues --   -0.34344  -0.33986  -0.33884  -0.33747  -0.33645
 Alpha  occ. eigenvalues --   -0.33323  -0.33314  -0.32996  -0.32890  -0.32578
 Alpha  occ. eigenvalues --   -0.32075  -0.31814  -0.31365  -0.31328  -0.30792
 Alpha  occ. eigenvalues --   -0.30574  -0.29650  -0.29321  -0.28633  -0.27149
 Alpha  occ. eigenvalues --   -0.26386  -0.25759  -0.25704  -0.24927  -0.22266
 Alpha  occ. eigenvalues --   -0.20864
 Alpha virt. eigenvalues --   -0.08527  -0.04127  -0.00916   0.02023   0.02711
 Alpha virt. eigenvalues --    0.04060   0.04810   0.04916   0.05004   0.05672
 Alpha virt. eigenvalues --    0.06610   0.09034   0.09733   0.10014   0.10314

 Mulliken charges:
               1
     1  Mg   0.799520
     2  C    0.096459
     3  C   -0.183896
     4  C   -0.166606
     5  C   -0.164021
     6  N   -0.680045
     7  C    0.306015
     8  C   -0.071501
     9  C   -0.153665
    10  C    0.346810
    11  C   -0.303737
    12  C   -0.221588
    13  C   -0.271530
    14  C    0.611595
    15  O   -0.446803
    16  O   -0.498750
    17  N   -0.681877
    18  C    0.305626
    19  C    0.032518
    20  C    0.024025
    21  C    0.281291
    22  C   -0.405799
    23  C   -0.055563
    24  C   -0.247793
    25  N   -0.717906
    26  C    0.322963
    27  C    0.023707
    28  C   -0.009009
    29  C    0.315820
    30  C   -0.372564
    31  C   -0.229631
    32  C   -0.314059
    33  N   -0.688803
    34  C    0.253378
    35  C    0.053326
    36  C    0.118766
    37  C    0.281032
    38  C   -0.394088
    39  C    0.241976
    40  O   -0.507589
    41  C   -0.339520
    42  C    0.634498
    43  O   -0.503099
    44  O   -0.422485
    45  C   -0.074523
    46  C    0.026526
    47  C   -0.157287
    48  C    0.171746
    49  C   -0.364917
    50  C   -0.247562
    51  C   -0.172017
    52  C   -0.176857
    53  C   -0.054875
    54  C   -0.311299
    55  C   -0.147401
    56  C   -0.174718
    57  C   -0.171159
    58  C   -0.039437
    59  C   -0.326562
    60  C   -0.156245
    61  C   -0.182215
    62  C   -0.160495
    63  C   -0.065324
    64  C   -0.280630
    65  C   -0.294898
    66  H    0.089866
    67  H    0.078706
    68  H    0.100275
    69  H    0.098669
    70  H    0.098025
    71  H    0.107587
    72  H    0.085830
    73  H    0.128245
    74  H    0.123376
    75  H    0.105001
    76  H    0.150677
    77  H    0.134975
    78  H    0.137659
    79  H    0.119436
    80  H    0.115061
    81  H    0.092025
    82  H    0.093684
    83  H    0.114557
    84  H    0.107283
    85  H    0.123501
    86  H    0.131363
    87  H    0.108560
    88  H    0.111857
    89  H    0.102840
    90  H    0.087916
    91  H    0.121564
    92  H    0.107957
    93  H    0.145213
    94  H    0.121020
    95  H    0.170595
    96  H    0.108993
    97  H    0.137062
    98  H    0.131576
    99  H    0.110030
   100  H    0.117853
   101  H    0.080738
   102  H    0.115861
   103  H    0.089814
   104  H    0.135351
   105  H    0.094572
   106  H    0.105961
   107  H    0.107673
   108  H    0.089180
   109  H    0.079917
   110  H    0.069225
   111  H    0.065518
   112  H    0.096291
   113  H    0.092984
   114  H    0.105867
   115  H    0.074899
   116  H    0.087916
   117  H    0.078161
   118  H    0.100067
   119  H    0.078630
   120  H    0.090033
   121  H    0.071831
   122  H    0.102597
   123  H    0.116595
   124  H    0.078255
   125  H    0.057810
   126  H    0.105392
   127  H    0.070982
   128  H    0.111338
   129  H    0.074892
   130  H    0.088647
   131  H    0.059826
   132  H    0.109664
   133  H    0.111180
   134  H    0.070051
   135  H    0.097404
   136  H    0.095123
   137  H    0.083667
 Sum of Mulliken charges =  -0.00000

 Dipole moment (field-independent basis, Debye):
    X=             -0.3941    Y=              5.7123    Z=             -0.5700  Tot=              5.7541
 Quadrupole moment (field-independent basis, Debye-Ang):
   XX=           -342.1863   YY=           -392.8177   ZZ=           -399.6517
   XY=            -29.6234   XZ=             17.6303   YZ=             -2.1929

 Normal termination of Gaussian 16 at Mon Sep  9 13:28:16 2019.
