 Gaussian 16, Revision A.03,
 Gaussian 16:  ES64L-G16RevA.03 25-Dec-2016

 ----------------------------------------------------------------------
 # td=(NStates=1) iop(3/107=0140000000,3/108=0140000000) CAM-B3LYP/6-31
 G(d,p)
 ----------------------------------------------------------------------

 --
 TD
 --
 Symbolic Z-matrix:
 Charge =  0 Multiplicity = 1

                         Standard orientation:
 ---------------------------------------------------------------------
 Center     Atomic      Atomic             Coordinates (Angstroms)
 Number     Number       Type             X           Y           Z
 ---------------------------------------------------------------------
      1         12           0       -7.144372    0.631982    0.086793
      2          6           0       -4.806709   -1.934174    0.526543
      3          6           0       -4.835989    2.860794    1.091316
      4          6           0       -9.442681    3.155208   -0.262335
      5          6           0       -9.497150   -1.735962   -0.813644
      6          7           0       -5.062183    0.424111    0.689003
      7          6           0       -4.229599   -0.717899    0.849591
      8          6           0       -2.864256   -0.402321    1.273985
      9          6           0       -2.984894    1.084953    1.688388
     10          6           0       -4.397012    1.535991    1.047255
     11          6           0       -3.011348    1.322965    3.174620
     12          6           0       -1.916758   -0.744991    0.081286
     13          6           0       -0.495719   -0.418703    0.417892
     14          6           0        0.504682   -0.618031   -0.743987
     15          8           0        0.284576   -0.995649   -1.889077
     16          8           0        1.804780   -0.447283   -0.299226
     17          7           0       -7.077690    2.598578    0.233243
     18          6           0       -6.055886    3.393000    0.636734
     19          6           0       -6.346510    4.768265    0.745065
     20          6           0       -7.691767    4.888868    0.261975
     21          6           0       -8.122207    3.496268    0.085794
     22          6           0       -5.449074    5.807918    1.243376
     23          6           0       -8.491866    6.003842    0.120563
     24          6           0       -8.336575    7.213075    0.624128
     25          7           0       -9.122901    0.634981   -0.525704
     26          6           0       -9.831158    1.834202   -0.575357
     27          6           0      -11.131910    1.479763   -1.059766
     28          6           0      -11.292423    0.099368   -1.267499
     29          6           0       -9.998883   -0.384118   -0.867127
     30          6           0      -12.232432    2.516675   -1.260900
     31          6           0      -12.406632   -0.830979   -1.616803
     32          6           0      -12.127150   -1.349930   -3.133692
     33          7           0       -7.185765   -1.376363   -0.159107
     34          6           0       -8.284301   -2.135387   -0.547552
     35          6           0       -7.855878   -3.547073   -0.433285
     36          6           0       -6.479466   -3.517359   -0.123663
     37          6           0       -6.106280   -2.208727    0.055405
     38          6           0       -8.608920   -4.813634   -0.632676
     39          6           0       -5.258525   -4.357387    0.233225
     40          8           0       -5.292731   -5.533741    0.253653
     41          6           0       -4.072633   -3.341015    0.564850
     42          6           0       -3.544598   -3.613125    1.894322
     43          8           0       -3.806355   -3.193929    2.990284
     44          8           0       -2.685431   -4.589793    1.757120
     45          6           0       -2.154641   -5.110054    2.977190
     46          6           0        2.799765   -0.720060   -1.228075
     47          6           0        4.083310   -0.472466   -0.624542
     48          6           0        5.007890    0.366116   -1.137541
     49          6           0        5.195727    1.083042   -2.413678
     50          6           0        6.418373    0.313132   -0.340956
     51          6           0        7.607439   -0.136392   -1.036133
     52          6           0        8.885350   -0.156632   -0.152200
     53          6           0       10.073309   -0.553409   -0.980165
     54          6           0       10.110245   -2.015813   -1.566394
     55          6           0       11.375444   -0.372751   -0.092329
     56          6           0       12.773726   -0.594614   -0.619714
     57          6           0       13.882083   -0.087238    0.251680
     58          6           0       15.350475   -0.271600   -0.327726
     59          6           0       15.741852   -1.722735   -0.593817
     60          6           0       16.384041    0.379668    0.529001
     61          6           0       17.742056    0.513597    0.018365
     62          6           0       18.648781    1.288368    0.853951
     63          6           0       20.054007    1.449864    0.244068
     64          6           0       20.256952    2.272377   -1.103573
     65          6           0       21.079388    2.012178    1.298813
     66          1           0       -4.124122    3.677376    1.465830
     67          1           0      -10.314498    3.824832   -0.063225
     68          1           0      -10.196833   -2.612014   -0.993957
     69          1           0       -2.435141   -1.076415    2.026630
     70          1           0       -2.247083    1.751171    1.206106
     71          1           0       -2.093478    0.729339    3.534269
     72          1           0       -2.971513    2.492965    3.304762
     73          1           0       -3.910606    0.751383    3.557357
     74          1           0       -2.177477   -1.646899   -0.168154
     75          1           0       -2.306398    0.104205   -0.703834
     76          1           0       -0.408292    0.513733    0.909438
     77          1           0       -0.200257   -1.160010    1.203167
     78          1           0       -5.620946    6.836498    0.424935
     79          1           0       -5.701070    6.152872    2.290385
     80          1           0       -4.489553    5.763280    1.036874
     81          1           0       -9.338422    5.846497   -0.485400
     82          1           0       -9.166798    7.895405    0.508283
     83          1           0       -7.805998    7.677908    1.470761
     84          1           0      -12.172065    3.267670   -2.040362
     85          1           0      -13.191371    2.182351   -1.681023
     86          1           0      -12.365396    3.007536   -0.200838
     87          1           0      -12.369946   -1.670979   -1.020396
     88          1           0      -13.302127    0.030003   -1.785814
     89          1           0      -13.100763   -2.062811   -3.713583
     90          1           0      -12.106202   -0.539587   -4.017084
     91          1           0      -11.210522   -2.168115   -3.182872
     92          1           0       -9.073779   -4.919151   -1.594873
     93          1           0       -7.942709   -5.630042   -0.596552
     94          1           0       -9.341517   -4.720758    0.050843
     95          1           0       -3.234611   -3.415017   -0.097946
     96          1           0       -1.744785   -4.328830    3.471392
     97          1           0       -2.753240   -5.620608    3.744369
     98          1           0       -1.454767   -5.943449    2.504881
     99          1           0        2.804467   -1.880394   -1.637734
    100          1           0        2.618637   -0.291675   -2.167120
    101          1           0        4.131427   -0.880914    0.319726
    102          1           0        4.104280    1.113702   -2.776540
    103          1           0        5.569472    2.211184   -2.225515
    104          1           0        5.990824    0.704505   -3.217421
    105          1           0        6.612581    1.409039   -0.192891
    106          1           0        6.343472   -0.451490    0.537161
    107          1           0        7.357322   -1.134917   -1.467577
    108          1           0        8.030353    0.441016   -2.107175
    109          1           0        9.006815    0.875891    0.156718
    110          1           0        8.851368   -0.681907    0.850868
    111          1           0       10.117306    0.279609   -1.732064
    112          1           0        9.563688   -2.196841   -2.393826
    113          1           0       11.112385   -2.126140   -2.115359
    114          1           0       10.006895   -2.844809   -0.775028
    115          1           0       11.243687    0.607376    0.285809
    116          1           0       11.324945   -1.144865    0.971135
    117          1           0       12.936033   -1.724120   -0.947572
    118          1           0       12.854167   -0.008643   -1.543227
    119          1           0       13.842188    1.020834    0.489985
    120          1           0       13.935629   -0.708875    1.169501
    121          1           0       15.638724    0.376991   -1.270708
    122          1           0       15.637234   -2.163395    0.306965
    123          1           0       15.115842   -2.558243   -0.976065
    124          1           0       16.726504   -2.060828   -1.109421
    125          1           0       15.879287    1.479369    0.858984
    126          1           0       16.475537   -0.174021    1.287817
    127          1           0       18.117846   -0.472454   -0.160564
    128          1           0       17.886523    0.905213   -1.025480
    129          1           0       18.239462    2.335583    0.946311
    130          1           0       18.575916    0.793780    1.845343
    131          1           0       20.482060    0.453706   -0.047740
    132          1           0       19.749373    3.364497   -0.767074
    133          1           0       21.389088    2.442538   -1.318671
    134          1           0       19.711504    1.833855   -1.865239
    135          1           0       21.007491    1.629740    2.358806
    136          1           0       21.984131    2.114525    0.965721
    137          1           0       20.652953    3.121956    1.513676
 ---------------------------------------------------------------------

 SCF Done:  E(RCAM-B3LYP) =  -2933.42010363     A.U. after   16 cycles

 Excitation energies and oscillator strengths:

 Excited State   1:      Singlet-A      2.0790 eV  596.37 nm  f=0.1778  <S**2>=0.000
     240 -> 243       -0.27196
     241 -> 242        0.63450
 This state for optimization and/or second-order correction.
 Total Energy, E(TD-HF/TD-DFT) =  -2933.34370259
 Copying the excited state density for this state as the 1-particle RhoCI density.

 The electronic state is 1-A.
 Alpha  occ. eigenvalues --  -46.79284 -19.22382 -19.22293 -19.17797 -19.17599
 Alpha  occ. eigenvalues --  -19.16412 -14.37518 -14.35559 -14.34691 -14.34364
 Alpha  occ. eigenvalues --  -10.35680 -10.33865 -10.31806 -10.26885 -10.26858
 Alpha  occ. eigenvalues --  -10.26586 -10.26365 -10.25329 -10.25268 -10.24915
 Alpha  occ. eigenvalues --  -10.24746 -10.24446 -10.24436 -10.24422 -10.24208
 Alpha  occ. eigenvalues --  -10.24191 -10.24140 -10.24079 -10.24076 -10.23673
 Alpha  occ. eigenvalues --  -10.23619 -10.23380 -10.23249 -10.23207 -10.23105
 Alpha  occ. eigenvalues --  -10.23034 -10.23031 -10.22996 -10.22543 -10.22542
 Alpha  occ. eigenvalues --  -10.22433 -10.22384 -10.22283 -10.22282 -10.22199
 Alpha  occ. eigenvalues --  -10.22125 -10.22025 -10.21973 -10.21949 -10.21927
 Alpha  occ. eigenvalues --  -10.21873 -10.21818 -10.21725 -10.21469 -10.21279
 Alpha  occ. eigenvalues --  -10.21080 -10.21032 -10.20716 -10.20694 -10.20518
 Alpha  occ. eigenvalues --  -10.20056 -10.19943 -10.19929 -10.19609 -10.19334
 Alpha  occ. eigenvalues --   -3.07939  -1.82877  -1.82400  -1.82361  -1.15593
 Alpha  occ. eigenvalues --   -1.13460  -1.09488  -1.04744  -1.04712  -0.99019
 Alpha  occ. eigenvalues --   -0.98119  -0.97428  -0.96317  -0.87821  -0.86630
 Alpha  occ. eigenvalues --   -0.86495  -0.85820  -0.85144  -0.84344  -0.83872
 Alpha  occ. eigenvalues --   -0.83000  -0.82512  -0.82349  -0.82251  -0.81538
 Alpha  occ. eigenvalues --   -0.80847  -0.80268  -0.79705  -0.78848  -0.77686
 Alpha  occ. eigenvalues --   -0.77249  -0.76940  -0.75900  -0.75451  -0.74060
 Alpha  occ. eigenvalues --   -0.73516  -0.72393  -0.71569  -0.71360  -0.71265
 Alpha  occ. eigenvalues --   -0.70548  -0.70098  -0.69897  -0.69094  -0.67862
 Alpha  occ. eigenvalues --   -0.66904  -0.66311  -0.64761  -0.64337  -0.63685
 Alpha  occ. eigenvalues --   -0.63126  -0.61807  -0.61058  -0.60796  -0.60490
 Alpha  occ. eigenvalues --   -0.60265  -0.59619  -0.59132  -0.58190  -0.57920
 Alpha  occ. eigenvalues --   -0.57642  -0.57037  -0.56769  -0.56173  -0.55376
 Alpha  occ. eigenvalues --   -0.54961  -0.54746  -0.54378  -0.53805  -0.53008
 Alpha  occ. eigenvalues --   -0.52703  -0.51918  -0.51628  -0.51495  -0.51381
 Alpha  occ. eigenvalues --   -0.51019  -0.50895  -0.50774  -0.49862  -0.49537
 Alpha  occ. eigenvalues --   -0.49284  -0.48907  -0.48636  -0.48383  -0.48287
 Alpha  occ. eigenvalues --   -0.48234  -0.47902  -0.47783  -0.47612  -0.47493
 Alpha  occ. eigenvalues --   -0.47398  -0.47090  -0.46710  -0.46216  -0.45974
 Alpha  occ. eigenvalues --   -0.45640  -0.45460  -0.45357  -0.45239  -0.45103
 Alpha  occ. eigenvalues --   -0.44762  -0.44578  -0.44410  -0.44065  -0.43738
 Alpha  occ. eigenvalues --   -0.43650  -0.43381  -0.43181  -0.42837  -0.42600
 Alpha  occ. eigenvalues --   -0.42206  -0.42145  -0.42017  -0.41634  -0.41526
 Alpha  occ. eigenvalues --   -0.41365  -0.41205  -0.41062  -0.40722  -0.40641
 Alpha  occ. eigenvalues --   -0.40556  -0.40370  -0.40060  -0.39898  -0.39726
 Alpha  occ. eigenvalues --   -0.39400  -0.39272  -0.39259  -0.39021  -0.38922
 Alpha  occ. eigenvalues --   -0.38763  -0.38718  -0.38443  -0.38156  -0.37908
 Alpha  occ. eigenvalues --   -0.37822  -0.37589  -0.37331  -0.37163  -0.36974
 Alpha  occ. eigenvalues --   -0.36805  -0.36642  -0.36404  -0.36156  -0.35734
 Alpha  occ. eigenvalues --   -0.35723  -0.35547  -0.35059  -0.34550  -0.34328
 Alpha  occ. eigenvalues --   -0.34143  -0.33806  -0.33741  -0.33524  -0.33404
 Alpha  occ. eigenvalues --   -0.33334  -0.33116  -0.32778  -0.32429  -0.31951
 Alpha  occ. eigenvalues --   -0.31948  -0.31831  -0.31307  -0.31115  -0.30689
 Alpha  occ. eigenvalues --   -0.30502  -0.30096  -0.29939  -0.28496  -0.27582
 Alpha  occ. eigenvalues --   -0.26962  -0.26289  -0.25214  -0.24775  -0.21753
 Alpha  occ. eigenvalues --   -0.20090
 Alpha virt. eigenvalues --   -0.06811  -0.04746  -0.00032   0.02150   0.02671
 Alpha virt. eigenvalues --    0.03368   0.03858   0.04824   0.05380   0.05802
 Alpha virt. eigenvalues --    0.06565   0.07765   0.08813   0.09021   0.09250

 Mulliken charges:
               1
     1  Mg   0.805586
     2  C    0.034706
     3  C   -0.207190
     4  C   -0.176852
     5  C   -0.191004
     6  N   -0.629808
     7  C    0.319801
     8  C   -0.164635
     9  C   -0.152961
    10  C    0.338373
    11  C   -0.276752
    12  C   -0.133485
    13  C   -0.268293
    14  C    0.604774
    15  O   -0.461042
    16  O   -0.459872
    17  N   -0.723088
    18  C    0.331747
    19  C    0.044654
    20  C    0.053440
    21  C    0.291291
    22  C   -0.373536
    23  C   -0.097527
    24  C   -0.246747
    25  N   -0.709731
    26  C    0.343817
    27  C   -0.033978
    28  C    0.088274
    29  C    0.268732
    30  C   -0.389283
    31  C   -0.223809
    32  C   -0.280860
    33  N   -0.758315
    34  C    0.362254
    35  C   -0.046567
    36  C   -0.001318
    37  C    0.306616
    38  C   -0.371112
    39  C    0.391568
    40  O   -0.415061
    41  C   -0.339258
    42  C    0.621381
    43  O   -0.487134
    44  O   -0.425599
    45  C   -0.086194
    46  C    0.017374
    47  C   -0.109519
    48  C    0.119943
    49  C   -0.353161
    50  C   -0.208232
    51  C   -0.154497
    52  C   -0.161183
    53  C   -0.058184
    54  C   -0.307865
    55  C   -0.140121
    56  C   -0.164564
    57  C   -0.169626
    58  C   -0.057573
    59  C   -0.332992
    60  C   -0.125998
    61  C   -0.185423
    62  C   -0.145608
    63  C   -0.067797
    64  C   -0.295366
    65  C   -0.294048
    66  H    0.066577
    67  H    0.103417
    68  H    0.078910
    69  H    0.111031
    70  H    0.095689
    71  H    0.097192
    72  H    0.104172
    73  H    0.128906
    74  H    0.110330
    75  H    0.095929
    76  H    0.144702
    77  H    0.131814
    78  H    0.072752
    79  H    0.129937
    80  H    0.133633
    81  H    0.094337
    82  H    0.091045
    83  H    0.107682
    84  H    0.122050
    85  H    0.102704
    86  H    0.106486
    87  H    0.125947
    88  H    0.097968
    89  H    0.039977
    90  H    0.109845
    91  H    0.095310
    92  H    0.124054
    93  H    0.149335
    94  H    0.135317
    95  H    0.168301
    96  H    0.132315
    97  H    0.134621
    98  H    0.108578
    99  H    0.081969
   100  H    0.121726
   101  H    0.096603
   102  H    0.102630
   103  H    0.103165
   104  H    0.127363
   105  H    0.086510
   106  H    0.088748
   107  H    0.094784
   108  H    0.037943
   109  H    0.094895
   110  H    0.087564
   111  H    0.084134
   112  H    0.111264
   113  H    0.090884
   114  H    0.100999
   115  H    0.088728
   116  H    0.023688
   117  H    0.086879
   118  H    0.091920
   119  H    0.091097
   120  H    0.088697
   121  H    0.063833
   122  H    0.109408
   123  H    0.091709
   124  H    0.099489
   125  H    0.046183
   126  H    0.094161
   127  H    0.098233
   128  H    0.072377
   129  H    0.083627
   130  H    0.088905
   131  H    0.078484
   132  H    0.069503
   133  H    0.102554
   134  H    0.118909
   135  H    0.096290
   136  H    0.107963
   137  H    0.063752
 Sum of Mulliken charges =  -0.00000

 Dipole moment (field-independent basis, Debye):
    X=              1.2789    Y=              2.8795    Z=              1.1856  Tot=              3.3664
 Quadrupole moment (field-independent basis, Debye-Ang):
   XX=           -367.6073   YY=           -389.2391   ZZ=           -401.6696
   XY=            -29.1564   XZ=              0.2315   YZ=              0.7929

 Normal termination of Gaussian 16 at Wed Sep 18 12:10:57 2019.
