 Gaussian 16, Revision A.03,
 Gaussian 16:  ES64L-G16RevA.03 25-Dec-2016

 ----------------------------------------------------------------------
 # td=(NStates=1) iop(3/107=0140000000,3/108=0140000000) CAM-B3LYP/6-31
 G(d,p)
 ----------------------------------------------------------------------

 --
 TD
 --
 Symbolic Z-matrix:
 Charge =  0 Multiplicity = 1

                         Standard orientation:
 ---------------------------------------------------------------------
 Center     Atomic      Atomic             Coordinates (Angstroms)
 Number     Number       Type             X           Y           Z
 ---------------------------------------------------------------------
      1         12           0       -7.099975    0.638942   -0.099988
      2          6           0       -4.877836   -1.948045    0.404580
      3          6           0       -4.741920    2.882723    0.900681
      4          6           0       -9.420816    3.160698   -0.388886
      5          6           0       -9.660385   -1.710991   -0.758619
      6          7           0       -5.102051    0.516606    0.604532
      7          6           0       -4.354584   -0.715729    0.777948
      8          6           0       -2.954370   -0.317513    1.087634
      9          6           0       -3.009641    1.220653    1.574859
     10          6           0       -4.394857    1.502384    1.016395
     11          6           0       -3.081494    1.251630    3.207809
     12          6           0       -2.002718   -0.439436   -0.030582
     13          6           0       -0.529459   -0.382194    0.497588
     14          6           0        0.589362   -0.792891   -0.518841
     15          8           0        0.342601   -1.302913   -1.631763
     16          8           0        1.799045   -0.711324   -0.025016
     17          7           0       -7.141807    2.655970    0.327399
     18          6           0       -6.100114    3.427476    0.775341
     19          6           0       -6.398935    4.857796    0.762937
     20          6           0       -7.709230    4.977897    0.464507
     21          6           0       -8.167001    3.544480   -0.013571
     22          6           0       -5.443750    5.924834    1.170227
     23          6           0       -8.551356    6.023395    0.179347
     24          6           0       -8.431774    7.312794    0.622473
     25          7           0       -9.083111    0.658974   -0.518470
     26          6           0       -9.858718    1.833713   -0.731955
     27          6           0      -11.233772    1.478812   -1.037762
     28          6           0      -11.295737    0.139492   -1.144353
     29          6           0      -10.026642   -0.315520   -0.832599
     30          6           0      -12.157636    2.603106   -1.471062
     31          6           0      -12.430699   -0.708453   -1.649808
     32          6           0      -12.182297   -1.226102   -3.136645
     33          7           0       -7.315825   -1.336797   -0.167921
     34          6           0       -8.383986   -2.169045   -0.554939
     35          6           0       -7.908652   -3.604368   -0.465663
     36          6           0       -6.631955   -3.519767   -0.145745
     37          6           0       -6.264913   -2.162610   -0.011367
     38          6           0       -8.737468   -4.807762   -0.592108
     39          6           0       -5.401763   -4.355804    0.126724
     40          8           0       -5.301993   -5.584602    0.098969
     41          6           0       -4.173105   -3.317565    0.463030
     42          6           0       -3.611035   -3.708573    1.795189
     43          8           0       -3.807063   -3.149507    2.915024
     44          8           0       -2.834331   -4.778447    1.655526
     45          6           0       -2.018309   -5.165643    2.808939
     46          6           0        2.825794   -0.950354   -1.009632
     47          6           0        4.238790   -0.720800   -0.353755
     48          6           0        5.198638    0.134798   -0.759621
     49          6           0        4.952355    1.117727   -1.918756
     50          6           0        6.391863    0.129617   -0.085683
     51          6           0        7.668066   -0.387006   -0.761878
     52          6           0        8.968043   -0.207260    0.004942
     53          6           0       10.248653   -0.595189   -0.696485
     54          6           0       10.247851   -1.986546   -1.249545
     55          6           0       11.524527   -0.299770    0.084066
     56          6           0       12.869325   -0.497961   -0.635953
     57          6           0       14.092536    0.112452    0.146379
     58          6           0       15.395356   -0.162417   -0.553341
     59          6           0       15.708020   -1.634920   -0.734806
     60          6           0       16.507102    0.386009    0.389729
     61          6           0       17.815222    0.554830   -0.303778
     62          6           0       18.769368    1.348888    0.614071
     63          6           0       20.176635    1.525395    0.205859
     64          6           0       20.327224    2.133659   -1.243963
     65          6           0       21.081421    2.196379    1.042416
     66          1           0       -3.829852    3.367846    1.189027
     67          1           0      -10.206043    3.796024   -0.529520
     68          1           0      -10.454357   -2.460154   -1.180065
     69          1           0       -2.587136   -1.189666    1.899696
     70          1           0       -2.107913    1.949550    1.278870
     71          1           0       -2.000182    0.748106    3.514076
     72          1           0       -3.088329    2.212530    3.432610
     73          1           0       -3.929955    0.617798    3.425463
     74          1           0       -2.058550   -1.403803   -0.664538
     75          1           0       -2.135317    0.258081   -0.872686
     76          1           0       -0.401314    0.495591    0.847107
     77          1           0       -0.678159   -1.216514    1.383925
     78          1           0       -5.723862    6.905999    0.718475
     79          1           0       -5.181747    5.930295    2.349815
     80          1           0       -4.191152    5.702127    0.696859
     81          1           0       -9.385882    5.740178   -0.457170
     82          1           0       -8.962551    8.251535    0.245851
     83          1           0       -7.484292    7.575194    1.398396
     84          1           0      -11.764407    3.193027   -2.367328
     85          1           0      -13.241435    2.134949   -1.726670
     86          1           0      -12.463899    3.327085   -0.693339
     87          1           0      -12.795942   -1.656405   -1.020986
     88          1           0      -13.450783   -0.083169   -1.645253
     89          1           0      -13.199794   -1.740523   -3.327080
     90          1           0      -11.790468   -0.264935   -3.741733
     91          1           0      -11.342343   -2.015505   -3.166704
     92          1           0       -9.247722   -4.785718   -1.331480
     93          1           0       -7.998754   -5.553336   -0.523920
     94          1           0       -9.530054   -4.991850    0.241040
     95          1           0       -3.299805   -3.582987   -0.215631
     96          1           0       -1.229398   -4.480251    3.142011
     97          1           0       -2.602064   -5.468328    3.694199
     98          1           0       -1.541136   -6.058065    2.442422
     99          1           0        2.906672   -2.021134   -1.327488
    100          1           0        2.576145   -0.351398   -1.973998
    101          1           0        4.463140   -1.363363    0.533214
    102          1           0        3.763032    0.939988   -2.361145
    103          1           0        4.966282    2.202841   -1.582387
    104          1           0        5.831947    1.018982   -2.684471
    105          1           0        6.625155    1.114731    0.221774
    106          1           0        6.299888   -0.588660    0.783353
    107          1           0        7.462954   -1.333845   -1.254190
    108          1           0        7.761392    0.385859   -1.569866
    109          1           0        9.032652    0.869609    0.307952
    110          1           0        9.123750   -0.856547    0.973066
    111          1           0       10.349762   -0.045637   -1.561083
    112          1           0        9.277074   -2.252641   -1.749357
    113          1           0       11.085372   -2.147394   -2.074018
    114          1           0       10.364037   -2.699559   -0.397085
    115          1           0       11.411050    0.783201    0.506364
    116          1           0       11.510227   -1.031277    1.013438
    117          1           0       12.984127   -1.547896   -0.977308
    118          1           0       12.645104    0.058547   -1.517772
    119          1           0       13.988384    1.196038    0.462059
    120          1           0       14.135564   -0.450134    1.207560
    121          1           0       15.414085    0.397131   -1.541949
    122          1           0       15.562667   -2.233132    0.124495
    123          1           0       15.122987   -2.116935   -1.615069
    124          1           0       16.712791   -1.750737   -1.004260
    125          1           0       16.308341    1.541288    0.662932
    126          1           0       16.627079   -0.265507    1.284478
    127          1           0       18.297587   -0.355122   -0.417872
    128          1           0       18.013072    1.011971   -1.330711
    129          1           0       18.218393    2.287482    0.912635
    130          1           0       18.790284    1.103136    1.765753
    131          1           0       20.754418    0.490103   -0.041142
    132          1           0       19.665411    3.047970   -1.364469
    133          1           0       21.327860    2.199826   -1.456861
    134          1           0       19.853585    1.500709   -1.928712
    135          1           0       21.015954    1.904585    2.020739
    136          1           0       22.211149    1.995019    0.765442
    137          1           0       20.863056    3.362556    1.137547
 ---------------------------------------------------------------------

 SCF Done:  E(RCAM-B3LYP) =  -2933.48167194     A.U. after   16 cycles

 Excitation energies and oscillator strengths:

 Excited State   1:      Singlet-A      2.0402 eV  607.70 nm  f=0.2026  <S**2>=0.000
     240 -> 243        0.25071
     241 -> 242        0.65116
 This state for optimization and/or second-order correction.
 Total Energy, E(TD-HF/TD-DFT) =  -2933.40669488
 Copying the excited state density for this state as the 1-particle RhoCI density.

 The electronic state is 1-A.
 Alpha  occ. eigenvalues --  -46.79840 -19.23615 -19.22934 -19.17412 -19.16263
 Alpha  occ. eigenvalues --  -19.15973 -14.37458 -14.35859 -14.35760 -14.34861
 Alpha  occ. eigenvalues --  -10.35040 -10.34684 -10.32083 -10.28968 -10.27254
 Alpha  occ. eigenvalues --  -10.26787 -10.26441 -10.26002 -10.25526 -10.25310
 Alpha  occ. eigenvalues --  -10.25302 -10.25233 -10.25163 -10.24825 -10.24575
 Alpha  occ. eigenvalues --  -10.24397 -10.24128 -10.24076 -10.24054 -10.24027
 Alpha  occ. eigenvalues --  -10.23725 -10.23666 -10.23540 -10.23427 -10.23341
 Alpha  occ. eigenvalues --  -10.23065 -10.22890 -10.22767 -10.22672 -10.22665
 Alpha  occ. eigenvalues --  -10.22360 -10.22286 -10.22210 -10.22147 -10.22110
 Alpha  occ. eigenvalues --  -10.21927 -10.21871 -10.21866 -10.21841 -10.21657
 Alpha  occ. eigenvalues --  -10.21589 -10.21509 -10.21233 -10.21151 -10.21110
 Alpha  occ. eigenvalues --  -10.21101 -10.21088 -10.20922 -10.20797 -10.20489
 Alpha  occ. eigenvalues --  -10.20353 -10.20155 -10.19963 -10.19603 -10.18963
 Alpha  occ. eigenvalues --   -3.08506  -1.83431  -1.82994  -1.82905  -1.14776
 Alpha  occ. eigenvalues --   -1.12836  -1.05944  -1.02905  -1.01643  -0.99560
 Alpha  occ. eigenvalues --   -0.98578  -0.97302  -0.96265  -0.87743  -0.86770
 Alpha  occ. eigenvalues --   -0.86204  -0.85426  -0.85025  -0.84816  -0.84235
 Alpha  occ. eigenvalues --   -0.83934  -0.83113  -0.82581  -0.81405  -0.80738
 Alpha  occ. eigenvalues --   -0.80134  -0.79595  -0.78718  -0.78479  -0.77149
 Alpha  occ. eigenvalues --   -0.76796  -0.76537  -0.75548  -0.75349  -0.73707
 Alpha  occ. eigenvalues --   -0.72732  -0.72080  -0.71660  -0.71432  -0.71288
 Alpha  occ. eigenvalues --   -0.70712  -0.70118  -0.69610  -0.69016  -0.67796
 Alpha  occ. eigenvalues --   -0.66731  -0.66151  -0.64983  -0.63885  -0.63798
 Alpha  occ. eigenvalues --   -0.62694  -0.62651  -0.60706  -0.60559  -0.60212
 Alpha  occ. eigenvalues --   -0.60036  -0.59404  -0.58836  -0.58220  -0.57715
 Alpha  occ. eigenvalues --   -0.57469  -0.56524  -0.56018  -0.55487  -0.55042
 Alpha  occ. eigenvalues --   -0.54208  -0.54039  -0.52976  -0.52823  -0.52510
 Alpha  occ. eigenvalues --   -0.52219  -0.52150  -0.51335  -0.51297  -0.50936
 Alpha  occ. eigenvalues --   -0.50813  -0.50596  -0.50190  -0.50019  -0.49642
 Alpha  occ. eigenvalues --   -0.49360  -0.49084  -0.48523  -0.47893  -0.47718
 Alpha  occ. eigenvalues --   -0.47652  -0.47606  -0.47268  -0.46895  -0.46838
 Alpha  occ. eigenvalues --   -0.46814  -0.46410  -0.46210  -0.45885  -0.45722
 Alpha  occ. eigenvalues --   -0.45611  -0.45271  -0.45168  -0.44683  -0.44552
 Alpha  occ. eigenvalues --   -0.44498  -0.44123  -0.43883  -0.43820  -0.43627
 Alpha  occ. eigenvalues --   -0.43234  -0.43126  -0.42836  -0.42486  -0.42338
 Alpha  occ. eigenvalues --   -0.42184  -0.41968  -0.41821  -0.41201  -0.41170
 Alpha  occ. eigenvalues --   -0.41106  -0.40960  -0.40739  -0.40640  -0.40363
 Alpha  occ. eigenvalues --   -0.40302  -0.40123  -0.39978  -0.39722  -0.39652
 Alpha  occ. eigenvalues --   -0.39551  -0.39453  -0.39251  -0.39095  -0.38936
 Alpha  occ. eigenvalues --   -0.38769  -0.38634  -0.38369  -0.38331  -0.37995
 Alpha  occ. eigenvalues --   -0.37974  -0.37817  -0.37636  -0.37398  -0.37295
 Alpha  occ. eigenvalues --   -0.37016  -0.36752  -0.36648  -0.36229  -0.36122
 Alpha  occ. eigenvalues --   -0.35868  -0.35606  -0.35033  -0.34929  -0.34775
 Alpha  occ. eigenvalues --   -0.34273  -0.34241  -0.34218  -0.34125  -0.33531
 Alpha  occ. eigenvalues --   -0.33327  -0.33144  -0.33066  -0.33000  -0.32679
 Alpha  occ. eigenvalues --   -0.32570  -0.32389  -0.31317  -0.30758  -0.30217
 Alpha  occ. eigenvalues --   -0.29903  -0.29887  -0.29368  -0.28461  -0.27567
 Alpha  occ. eigenvalues --   -0.27300  -0.26881  -0.25965  -0.24837  -0.21724
 Alpha  occ. eigenvalues --   -0.19588
 Alpha virt. eigenvalues --   -0.06420  -0.04445  -0.00797   0.01485   0.02734
 Alpha virt. eigenvalues --    0.03272   0.03419   0.03893   0.04982   0.05401
 Alpha virt. eigenvalues --    0.06971   0.08236   0.08486   0.08752   0.09030

 Mulliken charges:
               1
     1  Mg   0.827970
     2  C    0.064537
     3  C   -0.177380
     4  C   -0.127769
     5  C   -0.177726
     6  N   -0.614213
     7  C    0.277523
     8  C   -0.160738
     9  C   -0.187336
    10  C    0.362807
    11  C   -0.276531
    12  C   -0.172230
    13  C   -0.229850
    14  C    0.584999
    15  O   -0.491189
    16  O   -0.418937
    17  N   -0.661904
    18  C    0.291542
    19  C    0.068855
    20  C    0.051515
    21  C    0.242071
    22  C   -0.363298
    23  C   -0.063832
    24  C   -0.267439
    25  N   -0.662320
    26  C    0.235552
    27  C    0.017721
    28  C    0.100710
    29  C    0.260053
    30  C   -0.389007
    31  C   -0.260721
    32  C   -0.289347
    33  N   -0.725123
    34  C    0.257711
    35  C   -0.032006
    36  C    0.064420
    37  C    0.303319
    38  C   -0.343366
    39  C    0.380097
    40  O   -0.453035
    41  C   -0.325687
    42  C    0.622738
    43  O   -0.508259
    44  O   -0.428600
    45  C   -0.095948
    46  C   -0.001103
    47  C   -0.172171
    48  C    0.208721
    49  C   -0.356077
    50  C   -0.246225
    51  C   -0.182851
    52  C   -0.150030
    53  C   -0.054974
    54  C   -0.306595
    55  C   -0.162209
    56  C   -0.185200
    57  C   -0.153279
    58  C   -0.043675
    59  C   -0.316737
    60  C   -0.171267
    61  C   -0.172570
    62  C   -0.178203
    63  C   -0.029390
    64  C   -0.306799
    65  C   -0.289975
    66  H    0.062009
    67  H    0.069884
    68  H    0.084643
    69  H    0.095430
    70  H    0.100590
    71  H    0.086868
    72  H    0.121812
    73  H    0.142083
    74  H    0.110988
    75  H    0.112169
    76  H    0.124643
    77  H    0.107671
    78  H    0.125531
    79  H    0.120102
    80  H    0.058894
    81  H    0.094787
    82  H    0.111458
    83  H    0.080771
    84  H    0.124819
    85  H    0.087493
    86  H    0.124810
    87  H    0.091182
    88  H    0.088593
    89  H    0.105078
    90  H    0.106200
    91  H    0.104056
    92  H    0.124640
    93  H    0.145257
    94  H    0.113595
    95  H    0.165521
    96  H    0.129444
    97  H    0.141083
    98  H    0.131111
    99  H    0.132809
   100  H    0.120718
   101  H    0.090259
   102  H    0.081991
   103  H    0.117996
   104  H    0.112445
   105  H    0.098643
   106  H    0.093889
   107  H    0.101790
   108  H    0.084038
   109  H    0.086646
   110  H    0.071170
   111  H    0.087245
   112  H    0.095886
   113  H    0.088214
   114  H    0.093847
   115  H    0.071454
   116  H    0.061471
   117  H    0.103474
   118  H    0.095340
   119  H    0.090041
   120  H    0.064298
   121  H    0.082715
   122  H    0.110577
   123  H    0.086167
   124  H    0.111005
   125  H    0.066273
   126  H    0.102882
   127  H    0.108096
   128  H    0.092809
   129  H    0.080893
   130  H    0.063559
   131  H    0.059118
   132  H    0.089050
   133  H    0.104010
   134  H    0.099514
   135  H    0.105549
   136  H    0.085875
   137  H    0.075287
 Sum of Mulliken charges =  -0.00000

 Dipole moment (field-independent basis, Debye):
    X=              2.9799    Y=              3.4111    Z=             -0.6218  Tot=              4.5719
 Quadrupole moment (field-independent basis, Debye-Ang):
   XX=           -354.9362   YY=           -393.2124   ZZ=           -403.6610
   XY=            -21.7570   XZ=             14.1324   YZ=             -3.8213

 Normal termination of Gaussian 16 at Tue Sep 24 11:29:30 2019.
