 Gaussian 16, Revision A.03,
 Gaussian 16:  ES64L-G16RevA.03 25-Dec-2016

 ----------------------------------------------------------------------
 # td=(NStates=1) iop(3/107=0140000000,3/108=0140000000) CAM-B3LYP/6-31
 G(d,p)
 ----------------------------------------------------------------------

 --
 TD
 --
 Symbolic Z-matrix:
 Charge =  0 Multiplicity = 1

                         Standard orientation:
 ---------------------------------------------------------------------
 Center     Atomic      Atomic             Coordinates (Angstroms)
 Number     Number       Type             X           Y           Z
 ---------------------------------------------------------------------
      1         12           0       -7.116639    0.563041    0.103034
      2          6           0       -4.870701   -2.044124    0.468481
      3          6           0       -4.766987    2.784256    1.265338
      4          6           0       -9.303353    3.108776   -0.381050
      5          6           0       -9.557200   -1.681778   -0.934022
      6          7           0       -5.057245    0.429775    0.734674
      7          6           0       -4.365612   -0.709251    0.784559
      8          6           0       -2.852489   -0.443619    1.180565
      9          6           0       -3.029480    1.007250    1.794686
     10          6           0       -4.288241    1.490356    1.171501
     11          6           0       -3.161869    0.946909    3.256904
     12          6           0       -1.962926   -0.431972   -0.107468
     13          6           0       -0.494832   -0.337616    0.390250
     14          6           0        0.470075   -0.501016   -0.729213
     15          8           0        0.204556   -0.823628   -1.853070
     16          8           0        1.691472   -0.263497   -0.378598
     17          7           0       -7.060577    2.584501    0.491088
     18          6           0       -5.989976    3.305407    0.859887
     19          6           0       -6.345682    4.781823    0.819716
     20          6           0       -7.681737    4.896168    0.290465
     21          6           0       -8.058967    3.466899    0.078630
     22          6           0       -5.507227    5.901487    1.222473
     23          6           0       -8.489713    6.073010    0.045644
     24          6           0       -8.428357    7.275126    0.600623
     25          7           0       -9.109232    0.714239   -0.513858
     26          6           0       -9.827481    1.793989   -0.643344
     27          6           0      -11.145574    1.507001   -1.115878
     28          6           0      -11.162452    0.126388   -1.146368
     29          6           0       -9.850102   -0.353638   -0.806552
     30          6           0      -12.274311    2.413411   -1.254857
     31          6           0      -12.304430   -0.749843   -1.784467
     32          6           0      -12.056950   -1.137356   -3.258474
     33          7           0       -7.249513   -1.376830    0.021881
     34          6           0       -8.308188   -2.238615   -0.428147
     35          6           0       -7.824166   -3.596770   -0.565903
     36          6           0       -6.513172   -3.624362    0.005403
     37          6           0       -6.240391   -2.199199    0.270885
     38          6           0       -8.603625   -4.774442   -0.983088
     39          6           0       -5.287409   -4.430510    0.138731
     40          8           0       -5.245978   -5.621761    0.039572
     41          6           0       -4.155989   -3.467749    0.445649
     42          6           0       -3.601868   -3.786877    1.843938
     43          8           0       -3.861975   -3.179704    2.859089
     44          8           0       -2.772670   -4.779338    1.752687
     45          6           0       -2.084343   -5.174346    3.035799
     46          6           0        2.769150   -0.677828   -1.370586
     47          6           0        4.043834   -0.410075   -0.676875
     48          6           0        5.157602    0.431797   -0.890943
     49          6           0        5.096664    1.255558   -2.156117
     50          6           0        6.369602    0.391186   -0.078464
     51          6           0        7.615994   -0.112477   -0.839307
     52          6           0        8.876743   -0.156299   -0.107544
     53          6           0       10.148137   -0.512369   -0.836495
     54          6           0       10.105547   -2.000561   -1.429240
     55          6           0       11.369582   -0.118085    0.005894
     56          6           0       12.631756   -0.365262   -0.690477
     57          6           0       13.909428   -0.040649    0.289222
     58          6           0       15.270296   -0.218843   -0.487160
     59          6           0       15.581635   -1.716774   -0.672410
     60          6           0       16.435176    0.386185    0.399131
     61          6           0       17.809949    0.476049   -0.192327
     62          6           0       18.804729    1.253771    0.659269
     63          6           0       20.300937    1.230872    0.194236
     64          6           0       20.494812    2.068873   -1.097017
     65          6           0       21.104768    1.762295    1.340421
     66          1           0       -4.131432    3.593790    1.869893
     67          1           0       -9.979299    3.981169   -0.655774
     68          1           0      -10.323537   -2.321397   -1.192857
     69          1           0       -2.687698   -1.135969    1.830603
     70          1           0       -2.231254    1.781987    1.496682
     71          1           0       -2.073461    0.993624    3.644984
     72          1           0       -3.775665    1.801729    3.631197
     73          1           0       -3.785863    0.014940    3.710080
     74          1           0       -2.151694   -1.459284   -0.736336
     75          1           0       -2.209098    0.233064   -0.677139
     76          1           0       -0.226181    0.674724    1.018531
     77          1           0       -0.282780   -1.066564    1.185177
     78          1           0       -5.701502    6.816075    0.661466
     79          1           0       -5.470280    6.062141    2.330617
     80          1           0       -4.349540    5.763563    1.039352
     81          1           0       -9.351433    5.938711   -0.640182
     82          1           0       -8.967201    8.116071    0.275331
     83          1           0       -7.606839    7.368341    1.337196
     84          1           0      -12.051014    3.033513   -2.030686
     85          1           0      -13.322010    2.024944   -1.338564
     86          1           0      -12.549436    2.906124   -0.271174
     87          1           0      -12.585758   -1.565349   -1.183639
     88          1           0      -13.244967   -0.200001   -1.741100
     89          1           0      -12.816752   -1.733300   -3.685939
     90          1           0      -11.989637   -0.215192   -3.991563
     91          1           0      -11.151299   -1.738542   -3.266919
     92          1           0       -8.894847   -4.597290   -2.104003
     93          1           0       -7.968500   -5.836708   -1.109604
     94          1           0       -9.079283   -5.351971   -0.308614
     95          1           0       -3.312622   -3.372460   -0.352963
     96          1           0       -1.586943   -4.421750    3.504490
     97          1           0       -2.893512   -5.375048    3.885444
     98          1           0       -1.646358   -6.162649    2.864997
     99          1           0        2.664371   -1.541126   -1.638522
    100          1           0        2.591890   -0.001362   -2.219750
    101          1           0        4.064119   -1.146605    0.322129
    102          1           0        3.974690    1.227339   -2.619441
    103          1           0        5.155927    2.305304   -1.840050
    104          1           0        5.844286    1.013127   -3.163833
    105          1           0        6.534489    1.498016    0.361727
    106          1           0        6.280732   -0.234892    0.870409
    107          1           0        7.111105   -1.179499   -1.157124
    108          1           0        7.636355    0.554335   -1.742235
    109          1           0        8.805862    0.819507    0.241708
    110          1           0        8.679666   -0.778035    0.836769
    111          1           0       10.079201   -0.013990   -1.817579
    112          1           0        9.266991   -2.106125   -2.059145
    113          1           0       11.022796   -2.144358   -2.006328
    114          1           0       10.192811   -2.696162   -0.692704
    115          1           0       11.324749    0.951445    0.132138
    116          1           0       11.377601   -0.883134    0.843800
    117          1           0       12.607622   -1.399046   -1.051295
    118          1           0       12.889602    0.321320   -1.445313
    119          1           0       13.830781    0.902308    0.592348
    120          1           0       13.919987   -0.542102    1.264648
    121          1           0       15.195679    0.535386   -1.293127
    122          1           0       15.608085   -2.131683    0.368319
    123          1           0       15.006681   -2.359934   -1.450110
    124          1           0       16.677744   -1.700062   -1.135821
    125          1           0       16.182989    1.564547    0.640682
    126          1           0       16.321654   -0.173373    1.407641
    127          1           0       18.250227   -0.552316   -0.228352
    128          1           0       18.033441    0.897263   -1.207104
    129          1           0       18.660405    2.393309    0.636718
    130          1           0       18.626092    0.922792    1.717836
    131          1           0       20.796710    0.187605    0.048297
    132          1           0       20.003840    2.981978   -0.924230
    133          1           0       21.682189    2.129400   -1.328016
    134          1           0       19.965673    1.604004   -2.015724
    135          1           0       21.100965    0.980878    2.180065
    136          1           0       22.207883    1.762624    1.191537
    137          1           0       21.010505    2.870192    1.482675
 ---------------------------------------------------------------------

 SCF Done:  E(RCAM-B3LYP) =  -2933.49452355     A.U. after   16 cycles

 Excitation energies and oscillator strengths:

 Excited State   1:      Singlet-A      2.0761 eV  597.20 nm  f=0.2580  <S**2>=0.000
     240 -> 243        0.25071
     241 -> 242        0.65279
 This state for optimization and/or second-order correction.
 Total Energy, E(TD-HF/TD-DFT) =  -2933.41822894
 Copying the excited state density for this state as the 1-particle RhoCI density.

 The electronic state is 1-A.
 Alpha  occ. eigenvalues --  -46.79628 -19.23270 -19.21082 -19.16374 -19.15527
 Alpha  occ. eigenvalues --  -19.14914 -14.37375 -14.35499 -14.35118 -14.34120
 Alpha  occ. eigenvalues --  -10.34465 -10.32928 -10.29854 -10.28136 -10.26580
 Alpha  occ. eigenvalues --  -10.26315 -10.25876 -10.25621 -10.25076 -10.25030
 Alpha  occ. eigenvalues --  -10.24930 -10.24838 -10.24418 -10.24060 -10.23904
 Alpha  occ. eigenvalues --  -10.23799 -10.23766 -10.23704 -10.23371 -10.23269
 Alpha  occ. eigenvalues --  -10.23261 -10.23143 -10.22839 -10.22710 -10.22637
 Alpha  occ. eigenvalues --  -10.22625 -10.22478 -10.22469 -10.22404 -10.22307
 Alpha  occ. eigenvalues --  -10.22259 -10.22173 -10.22173 -10.22161 -10.22145
 Alpha  occ. eigenvalues --  -10.22001 -10.21937 -10.21916 -10.21789 -10.21749
 Alpha  occ. eigenvalues --  -10.21276 -10.21137 -10.21117 -10.20994 -10.20802
 Alpha  occ. eigenvalues --  -10.20653 -10.20628 -10.20607 -10.20585 -10.20485
 Alpha  occ. eigenvalues --  -10.20461 -10.20450 -10.20111 -10.19663 -10.19292
 Alpha  occ. eigenvalues --   -3.08296  -1.83229  -1.82756  -1.82721  -1.14323
 Alpha  occ. eigenvalues --   -1.13733  -1.06796  -1.04367  -1.03275  -0.99944
 Alpha  occ. eigenvalues --   -0.98968  -0.97446  -0.96985  -0.86765  -0.86183
 Alpha  occ. eigenvalues --   -0.85312  -0.84774  -0.84517  -0.84097  -0.83333
 Alpha  occ. eigenvalues --   -0.83043  -0.82557  -0.82438  -0.81722  -0.81565
 Alpha  occ. eigenvalues --   -0.80494  -0.79489  -0.78586  -0.78391  -0.77778
 Alpha  occ. eigenvalues --   -0.77397  -0.76833  -0.75524  -0.74747  -0.73123
 Alpha  occ. eigenvalues --   -0.72837  -0.72247  -0.71798  -0.71684  -0.70697
 Alpha  occ. eigenvalues --   -0.70523  -0.70354  -0.68779  -0.68072  -0.67302
 Alpha  occ. eigenvalues --   -0.66915  -0.66496  -0.64936  -0.64693  -0.63529
 Alpha  occ. eigenvalues --   -0.62698  -0.61784  -0.61476  -0.60454  -0.60123
 Alpha  occ. eigenvalues --   -0.59854  -0.59314  -0.59121  -0.58683  -0.57871
 Alpha  occ. eigenvalues --   -0.57552  -0.56136  -0.55853  -0.55428  -0.54678
 Alpha  occ. eigenvalues --   -0.54541  -0.54186  -0.53815  -0.53399  -0.53221
 Alpha  occ. eigenvalues --   -0.52288  -0.52032  -0.51440  -0.51233  -0.50697
 Alpha  occ. eigenvalues --   -0.50580  -0.50258  -0.49971  -0.49883  -0.49170
 Alpha  occ. eigenvalues --   -0.48917  -0.48732  -0.48458  -0.48390  -0.48193
 Alpha  occ. eigenvalues --   -0.47794  -0.47549  -0.47410  -0.47187  -0.46975
 Alpha  occ. eigenvalues --   -0.46828  -0.46463  -0.46345  -0.46212  -0.45844
 Alpha  occ. eigenvalues --   -0.45635  -0.45556  -0.44860  -0.44689  -0.44525
 Alpha  occ. eigenvalues --   -0.44348  -0.44085  -0.44027  -0.43895  -0.43844
 Alpha  occ. eigenvalues --   -0.43756  -0.43439  -0.43271  -0.42853  -0.42274
 Alpha  occ. eigenvalues --   -0.42159  -0.42080  -0.41855  -0.41518  -0.41422
 Alpha  occ. eigenvalues --   -0.41238  -0.41222  -0.40791  -0.40576  -0.40435
 Alpha  occ. eigenvalues --   -0.40348  -0.40275  -0.40009  -0.39782  -0.39662
 Alpha  occ. eigenvalues --   -0.39553  -0.39212  -0.39114  -0.38965  -0.38859
 Alpha  occ. eigenvalues --   -0.38543  -0.38261  -0.37979  -0.37917  -0.37817
 Alpha  occ. eigenvalues --   -0.37628  -0.37363  -0.37126  -0.36677  -0.36472
 Alpha  occ. eigenvalues --   -0.36434  -0.36090  -0.35930  -0.35793  -0.35641
 Alpha  occ. eigenvalues --   -0.35393  -0.35174  -0.34672  -0.34600  -0.34559
 Alpha  occ. eigenvalues --   -0.34373  -0.34005  -0.33901  -0.33761  -0.33506
 Alpha  occ. eigenvalues --   -0.33380  -0.32994  -0.32949  -0.32577  -0.32498
 Alpha  occ. eigenvalues --   -0.32437  -0.32032  -0.31622  -0.30404  -0.30173
 Alpha  occ. eigenvalues --   -0.29886  -0.29395  -0.29035  -0.28040  -0.26844
 Alpha  occ. eigenvalues --   -0.26646  -0.26507  -0.25361  -0.24517  -0.21380
 Alpha  occ. eigenvalues --   -0.19250
 Alpha virt. eigenvalues --   -0.06227  -0.03562  -0.00001   0.01515   0.02236
 Alpha virt. eigenvalues --    0.04414   0.04867   0.05251   0.05856   0.06313
 Alpha virt. eigenvalues --    0.06518   0.09237   0.09665   0.09819   0.09965

 Mulliken charges:
               1
     1  Mg   0.826221
     2  C    0.007049
     3  C   -0.211433
     4  C   -0.183972
     5  C   -0.149358
     6  N   -0.605988
     7  C    0.274415
     8  C   -0.121817
     9  C   -0.142469
    10  C    0.325946
    11  C   -0.299452
    12  C   -0.116790
    13  C   -0.277126
    14  C    0.607970
    15  O   -0.491295
    16  O   -0.466411
    17  N   -0.701324
    18  C    0.344580
    19  C    0.012319
    20  C    0.053635
    21  C    0.297895
    22  C   -0.412436
    23  C   -0.067932
    24  C   -0.245101
    25  N   -0.699921
    26  C    0.299801
    27  C    0.043013
    28  C   -0.035928
    29  C    0.341368
    30  C   -0.378032
    31  C   -0.242934
    32  C   -0.302635
    33  N   -0.724921
    34  C    0.230777
    35  C    0.029135
    36  C   -0.018153
    37  C    0.335019
    38  C   -0.389830
    39  C    0.382444
    40  O   -0.448589
    41  C   -0.310505
    42  C    0.626475
    43  O   -0.478189
    44  O   -0.420364
    45  C   -0.107519
    46  C    0.044558
    47  C   -0.132516
    48  C    0.151865
    49  C   -0.358936
    50  C   -0.235812
    51  C   -0.170156
    52  C   -0.136715
    53  C   -0.075233
    54  C   -0.335240
    55  C   -0.149699
    56  C   -0.182243
    57  C   -0.187920
    58  C   -0.060509
    59  C   -0.291605
    60  C   -0.169448
    61  C   -0.164143
    62  C   -0.156217
    63  C   -0.057642
    64  C   -0.301061
    65  C   -0.303076
    66  H    0.076272
    67  H    0.079009
    68  H    0.094500
    69  H    0.095622
    70  H    0.093944
    71  H    0.097382
    72  H    0.110001
    73  H    0.121856
    74  H    0.096493
    75  H    0.115464
    76  H    0.112345
    77  H    0.138332
    78  H    0.129554
    79  H    0.125772
    80  H    0.095493
    81  H    0.082535
    82  H    0.107965
    83  H    0.094501
    84  H    0.126911
    85  H    0.112538
    86  H    0.115690
    87  H    0.108005
    88  H    0.093466
    89  H    0.108834
    90  H    0.094565
    91  H    0.107735
    92  H    0.115514
    93  H    0.103613
    94  H    0.151907
    95  H    0.156267
    96  H    0.151976
    97  H    0.123350
    98  H    0.141797
    99  H    0.136017
   100  H    0.123429
   101  H    0.061585
   102  H    0.093451
   103  H    0.123950
   104  H    0.099669
   105  H    0.074450
   106  H    0.100587
   107  H    0.068900
   108  H    0.091762
   109  H    0.097729
   110  H    0.075032
   111  H    0.079943
   112  H    0.115473
   113  H    0.100768
   114  H    0.109493
   115  H    0.096877
   116  H    0.092704
   117  H    0.091472
   118  H    0.096038
   119  H    0.095108
   120  H    0.073223
   121  H    0.085437
   122  H    0.105081
   123  H    0.098908
   124  H    0.087199
   125  H    0.058152
   126  H    0.082223
   127  H    0.094485
   128  H    0.088715
   129  H    0.072660
   130  H    0.085543
   131  H    0.070683
   132  H    0.111107
   133  H    0.087655
   134  H    0.095365
   135  H    0.099804
   136  H    0.087626
   137  H    0.096600
 Sum of Mulliken charges =  -0.00000

 Dipole moment (field-independent basis, Debye):
    X=              3.8091    Y=              3.3077    Z=              0.8495  Tot=              5.1158
 Quadrupole moment (field-independent basis, Debye-Ang):
   XX=           -351.7751   YY=           -389.1177   ZZ=           -396.1920
   XY=            -18.3206   XZ=              8.6994   YZ=             -7.8423

 Normal termination of Gaussian 16 at Wed Sep 18 03:00:09 2019.
