 Gaussian 16, Revision A.03,
 Gaussian 16:  ES64L-G16RevA.03 25-Dec-2016

 ----------------------------------------------------------------------
 # td=(NStates=1) iop(3/107=0140000000,3/108=0140000000) CAM-B3LYP/6-31
 G(d,p)
 ----------------------------------------------------------------------

 --
 TD
 --
 Symbolic Z-matrix:
 Charge =  0 Multiplicity = 1

                         Standard orientation:
 ---------------------------------------------------------------------
 Center     Atomic      Atomic             Coordinates (Angstroms)
 Number     Number       Type             X           Y           Z
 ---------------------------------------------------------------------
      1         12           0       -7.113655    0.664729    0.151637
      2          6           0       -4.794881   -1.979409    0.566445
      3          6           0       -4.769924    2.811148    1.161828
      4          6           0       -9.301892    3.181662   -0.331676
      5          6           0       -9.415011   -1.678763   -0.966772
      6          7           0       -5.060312    0.375819    0.751082
      7          6           0       -4.274709   -0.754755    0.841522
      8          6           0       -2.846879   -0.478974    1.247831
      9          6           0       -2.916797    1.002860    1.739257
     10          6           0       -4.338058    1.493896    1.171883
     11          6           0       -2.824298    1.207702    3.164365
     12          6           0       -1.897388   -0.698915    0.130464
     13          6           0       -0.519939   -0.495360    0.562004
     14          6           0        0.445996   -0.723667   -0.579617
     15          8           0        0.179904   -1.067989   -1.680970
     16          8           0        1.708137   -0.361424   -0.147447
     17          7           0       -7.036531    2.635513    0.263162
     18          6           0       -5.895056    3.354045    0.730766
     19          6           0       -6.308041    4.712131    0.806266
     20          6           0       -7.639818    4.885895    0.400947
     21          6           0       -8.068898    3.525484    0.160137
     22          6           0       -5.349154    5.831278    1.173179
     23          6           0       -8.489639    5.949988    0.159544
     24          6           0       -8.331692    7.150960    0.738850
     25          7           0       -8.973732    0.723584   -0.504647
     26          6           0       -9.833124    1.871568   -0.677762
     27          6           0      -11.125939    1.504779   -1.186729
     28          6           0      -11.103691    0.107853   -1.425863
     29          6           0       -9.820982   -0.324911   -0.876694
     30          6           0      -12.317874    2.462965   -1.347145
     31          6           0      -12.237287   -0.785111   -1.859053
     32          6           0      -12.078514   -1.058368   -3.291564
     33          7           0       -7.182920   -1.395544   -0.156553
     34          6           0       -8.135145   -2.195313   -0.629099
     35          6           0       -7.782366   -3.573557   -0.664982
     36          6           0       -6.490720   -3.507500   -0.200875
     37          6           0       -6.150418   -2.162908    0.147849
     38          6           0       -8.634045   -4.858464   -0.933124
     39          6           0       -5.352976   -4.394116    0.170740
     40          8           0       -5.181063   -5.653028    0.129242
     41          6           0       -4.165998   -3.412692    0.561770
     42          6           0       -3.623684   -3.724006    1.946574
     43          8           0       -3.832114   -3.161387    3.036704
     44          8           0       -2.706054   -4.728762    1.869298
     45          6           0       -2.169518   -5.155990    3.074453
     46          6           0        2.735487   -0.535930   -1.069703
     47          6           0        4.017050   -0.309413   -0.523647
     48          6           0        5.090114    0.331165   -0.954044
     49          6           0        5.120226    1.199952   -2.217873
     50          6           0        6.361394    0.389475   -0.176534
     51          6           0        7.507576   -0.076991   -1.004318
     52          6           0        8.880292   -0.009004   -0.235506
     53          6           0       10.039398   -0.549452   -0.964798
     54          6           0        9.985597   -1.940128   -1.475114
     55          6           0       11.311676   -0.414853    0.015273
     56          6           0       12.662623   -0.496268   -0.651086
     57          6           0       13.899357   -0.230645    0.200137
     58          6           0       15.230197   -0.171781   -0.546695
     59          6           0       15.635980   -1.605326   -0.958085
     60          6           0       16.264865    0.387228    0.353772
     61          6           0       17.731353    0.484734   -0.217144
     62          6           0       18.641398    1.209313    0.751669
     63          6           0       20.028673    1.345476    0.225547
     64          6           0       20.272075    2.200003   -0.969532
     65          6           0       20.943988    1.861387    1.244240
     66          1           0       -4.007880    3.377590    1.667680
     67          1           0       -9.955983    3.807046   -0.459229
     68          1           0      -10.126244   -2.290807   -1.187224
     69          1           0       -2.697729   -1.059322    2.275371
     70          1           0       -2.178034    1.598134    1.423657
     71          1           0       -1.944614    1.037152    3.943416
     72          1           0       -2.936790    2.345890    3.527694
     73          1           0       -3.673536    0.807308    3.787371
     74          1           0       -2.179928   -1.661719   -0.465359
     75          1           0       -2.002049    0.173806   -0.688506
     76          1           0       -0.042537    0.340534    1.112237
     77          1           0       -0.290621   -1.478681    1.286504
     78          1           0       -5.381062    6.800114    0.512309
     79          1           0       -5.617061    6.329977    2.117834
     80          1           0       -4.124520    5.742845    1.398296
     81          1           0       -9.331543    5.864461   -0.710846
     82          1           0       -8.894382    8.092707    0.412537
     83          1           0       -7.413505    7.458479    1.366476
     84          1           0      -12.106739    3.175157   -2.169429
     85          1           0      -13.196451    2.071430   -1.550414
     86          1           0      -12.565468    2.903927   -0.395185
     87          1           0      -12.174399   -1.718913   -1.262438
     88          1           0      -13.167224   -0.119692   -1.615736
     89          1           0      -12.977975   -1.608257   -3.629307
     90          1           0      -12.114940   -0.269632   -4.031783
     91          1           0      -11.340579   -1.506620   -3.517365
     92          1           0       -9.094807   -4.700709   -1.845367
     93          1           0       -8.021050   -5.714499   -0.927396
     94          1           0       -9.515317   -5.040951   -0.259128
     95          1           0       -3.499267   -3.708111   -0.219140
     96          1           0       -1.459935   -4.528227    3.529318
     97          1           0       -2.876459   -5.557569    3.874533
     98          1           0       -1.492286   -6.054159    2.682787
     99          1           0        2.763079   -1.599723   -1.463202
    100          1           0        2.392618    0.053016   -2.016095
    101          1           0        4.161505   -0.899206    0.394832
    102          1           0        4.089556    1.149813   -2.752665
    103          1           0        4.999574    2.320037   -2.016639
    104          1           0        6.059114    0.960952   -2.992059
    105          1           0        6.539218    1.572437    0.306063
    106          1           0        6.293907   -0.320110    0.796956
    107          1           0        7.246113   -0.989154   -1.247054
    108          1           0        7.772725    0.667263   -1.948715
    109          1           0        9.212737    1.148460    0.117676
    110          1           0        8.677137   -0.547110    0.762134
    111          1           0       10.373782    0.177559   -1.741945
    112          1           0        9.152901   -1.849522   -2.267527
    113          1           0       10.921098   -2.357260   -1.838139
    114          1           0        9.616409   -2.652993   -0.786633
    115          1           0       10.940655    0.616857    0.573552
    116          1           0       11.145928   -0.985720    0.794184
    117          1           0       12.663535   -1.355696   -1.124559
    118          1           0       12.493488    0.259212   -1.446527
    119          1           0       13.682245    0.664383    0.712269
    120          1           0       13.985497   -0.949368    0.927868
    121          1           0       15.246569    0.367303   -1.498476
    122          1           0       15.906424   -2.303958   -0.060232
    123          1           0       14.870485   -2.109897   -1.474257
    124          1           0       16.469699   -1.562972   -1.441303
    125          1           0       15.906005    1.283216    0.561516
    126          1           0       16.027193   -0.323250    1.306356
    127          1           0       18.218818   -0.426435   -0.361784
    128          1           0       17.633878    1.165468   -1.057291
    129          1           0       18.168328    2.368853    0.768179
    130          1           0       18.821843    0.940941    1.715678
    131          1           0       20.329915    0.276498   -0.030114
    132          1           0       20.072990    3.110402   -0.768878
    133          1           0       21.351895    2.130416   -1.249478
    134          1           0       19.685305    1.714670   -1.764675
    135          1           0       20.770702    1.101994    2.011042
    136          1           0       22.038566    1.900950    1.005951
    137          1           0       20.681559    2.839130    1.590592
 ---------------------------------------------------------------------

 SCF Done:  E(RCAM-B3LYP) =  -2933.41476468     A.U. after   16 cycles

 Excitation energies and oscillator strengths:

 Excited State   1:      Singlet-A      2.0791 eV  596.34 nm  f=0.2285  <S**2>=0.000
     240 -> 243        0.25223
     241 -> 242        0.65415
 This state for optimization and/or second-order correction.
 Total Energy, E(TD-HF/TD-DFT) =  -2933.33835947
 Copying the excited state density for this state as the 1-particle RhoCI density.

 The electronic state is 1-A.
 Alpha  occ. eigenvalues --  -46.79170 -19.22030 -19.21679 -19.17654 -19.16639
 Alpha  occ. eigenvalues --  -19.16084 -14.37950 -14.35072 -14.35010 -14.34822
 Alpha  occ. eigenvalues --  -10.34821 -10.34446 -10.30948 -10.27294 -10.27184
 Alpha  occ. eigenvalues --  -10.26732 -10.25864 -10.25310 -10.25239 -10.24750
 Alpha  occ. eigenvalues --  -10.24606 -10.24533 -10.24492 -10.24323 -10.24277
 Alpha  occ. eigenvalues --  -10.24058 -10.23863 -10.23849 -10.23840 -10.23660
 Alpha  occ. eigenvalues --  -10.23656 -10.23435 -10.23334 -10.23272 -10.23065
 Alpha  occ. eigenvalues --  -10.23065 -10.22934 -10.22856 -10.22851 -10.22808
 Alpha  occ. eigenvalues --  -10.22629 -10.22609 -10.22391 -10.21945 -10.21539
 Alpha  occ. eigenvalues --  -10.21506 -10.21380 -10.21234 -10.21150 -10.21118
 Alpha  occ. eigenvalues --  -10.20988 -10.20874 -10.20865 -10.20577 -10.20462
 Alpha  occ. eigenvalues --  -10.20183 -10.20110 -10.19987 -10.19651 -10.19398
 Alpha  occ. eigenvalues --  -10.19240 -10.19066 -10.18709 -10.18280 -10.18083
 Alpha  occ. eigenvalues --   -3.07936  -1.82859  -1.82415  -1.82352  -1.13902
 Alpha  occ. eigenvalues --   -1.13066  -1.06415  -1.03107  -1.02935  -1.00683
 Alpha  occ. eigenvalues --   -0.98082  -0.97279  -0.95398  -0.87191  -0.86817
 Alpha  occ. eigenvalues --   -0.86676  -0.86284  -0.85562  -0.85130  -0.84525
 Alpha  occ. eigenvalues --   -0.84502  -0.83786  -0.82810  -0.82299  -0.81913
 Alpha  occ. eigenvalues --   -0.80905  -0.79834  -0.79351  -0.79172  -0.77886
 Alpha  occ. eigenvalues --   -0.77289  -0.76924  -0.76490  -0.75417  -0.73888
 Alpha  occ. eigenvalues --   -0.73702  -0.72642  -0.72084  -0.71895  -0.71630
 Alpha  occ. eigenvalues --   -0.71092  -0.70997  -0.70007  -0.69221  -0.68714
 Alpha  occ. eigenvalues --   -0.67976  -0.66250  -0.65974  -0.64723  -0.64273
 Alpha  occ. eigenvalues --   -0.63086  -0.62880  -0.61976  -0.60937  -0.60556
 Alpha  occ. eigenvalues --   -0.60452  -0.58912  -0.58880  -0.58718  -0.58272
 Alpha  occ. eigenvalues --   -0.57706  -0.56692  -0.56327  -0.55768  -0.55443
 Alpha  occ. eigenvalues --   -0.54902  -0.54800  -0.54003  -0.53635  -0.52847
 Alpha  occ. eigenvalues --   -0.52729  -0.51997  -0.51708  -0.51406  -0.51023
 Alpha  occ. eigenvalues --   -0.50906  -0.50754  -0.50289  -0.50025  -0.49853
 Alpha  occ. eigenvalues --   -0.49828  -0.49244  -0.49148  -0.49022  -0.48326
 Alpha  occ. eigenvalues --   -0.47879  -0.47619  -0.47344  -0.47217  -0.47085
 Alpha  occ. eigenvalues --   -0.46971  -0.46696  -0.46507  -0.46355  -0.46268
 Alpha  occ. eigenvalues --   -0.45936  -0.45754  -0.45500  -0.45427  -0.45138
 Alpha  occ. eigenvalues --   -0.44825  -0.44624  -0.44202  -0.44008  -0.43946
 Alpha  occ. eigenvalues --   -0.43733  -0.43595  -0.43206  -0.43049  -0.42736
 Alpha  occ. eigenvalues --   -0.42707  -0.42445  -0.42041  -0.41887  -0.41737
 Alpha  occ. eigenvalues --   -0.41591  -0.41239  -0.41182  -0.40958  -0.40906
 Alpha  occ. eigenvalues --   -0.40617  -0.40513  -0.40156  -0.39955  -0.39768
 Alpha  occ. eigenvalues --   -0.39649  -0.39537  -0.39066  -0.39009  -0.38885
 Alpha  occ. eigenvalues --   -0.38778  -0.38557  -0.38226  -0.38043  -0.37977
 Alpha  occ. eigenvalues --   -0.37822  -0.37751  -0.37445  -0.37439  -0.36928
 Alpha  occ. eigenvalues --   -0.36698  -0.36498  -0.36454  -0.36158  -0.35953
 Alpha  occ. eigenvalues --   -0.35695  -0.35633  -0.35416  -0.34878  -0.34772
 Alpha  occ. eigenvalues --   -0.33994  -0.33904  -0.33744  -0.33611  -0.33495
 Alpha  occ. eigenvalues --   -0.33192  -0.32974  -0.32908  -0.32775  -0.32608
 Alpha  occ. eigenvalues --   -0.32548  -0.32160  -0.32137  -0.31069  -0.30501
 Alpha  occ. eigenvalues --   -0.30133  -0.29933  -0.29839  -0.28902  -0.27432
 Alpha  occ. eigenvalues --   -0.26982  -0.26651  -0.25735  -0.24788  -0.21706
 Alpha  occ. eigenvalues --   -0.20477
 Alpha virt. eigenvalues --   -0.07251  -0.04365  -0.00412   0.01658   0.02961
 Alpha virt. eigenvalues --    0.03734   0.04088   0.04828   0.04884   0.05851
 Alpha virt. eigenvalues --    0.06861   0.08852   0.08986   0.09373   0.09888

 Mulliken charges:
               1
     1  Mg   0.814951
     2  C    0.063490
     3  C   -0.182965
     4  C   -0.113921
     5  C   -0.125071
     6  N   -0.637969
     7  C    0.297464
     8  C   -0.151717
     9  C   -0.104878
    10  C    0.312256
    11  C   -0.335607
    12  C   -0.162153
    13  C   -0.256678
    14  C    0.617911
    15  O   -0.446978
    16  O   -0.483171
    17  N   -0.744505
    18  C    0.359943
    19  C    0.011281
    20  C    0.101952
    21  C    0.309253
    22  C   -0.406235
    23  C   -0.097856
    24  C   -0.249604
    25  N   -0.686943
    26  C    0.262304
    27  C    0.001085
    28  C    0.030714
    29  C    0.281443
    30  C   -0.371099
    31  C   -0.240209
    32  C   -0.289115
    33  N   -0.705148
    34  C    0.256288
    35  C    0.032604
    36  C   -0.023498
    37  C    0.319980
    38  C   -0.366471
    39  C    0.352812
    40  O   -0.490423
    41  C   -0.310792
    42  C    0.632267
    43  O   -0.489722
    44  O   -0.420827
    45  C   -0.083930
    46  C    0.022482
    47  C   -0.135887
    48  C    0.163802
    49  C   -0.364812
    50  C   -0.210016
    51  C   -0.149788
    52  C   -0.170689
    53  C   -0.046586
    54  C   -0.308227
    55  C   -0.178746
    56  C   -0.174425
    57  C   -0.166644
    58  C   -0.077270
    59  C   -0.303188
    60  C   -0.137796
    61  C   -0.183430
    62  C   -0.135842
    63  C   -0.069206
    64  C   -0.283712
    65  C   -0.305722
    66  H    0.080545
    67  H    0.021088
    68  H    0.044554
    69  H    0.135003
    70  H    0.105406
    71  H    0.107806
    72  H    0.083438
    73  H    0.122686
    74  H    0.129894
    75  H    0.102546
    76  H    0.150604
    77  H    0.109951
    78  H    0.114248
    79  H    0.129030
    80  H    0.093426
    81  H    0.101040
    82  H    0.095285
    83  H    0.094141
    84  H    0.121313
    85  H    0.120011
    86  H    0.127022
    87  H    0.114538
    88  H    0.097207
    89  H    0.090996
    90  H    0.110286
    91  H    0.120885
    92  H    0.127998
    93  H    0.153419
    94  H    0.123121
    95  H    0.171047
    96  H    0.124571
    97  H    0.125442
    98  H    0.098008
    99  H    0.115129
   100  H    0.101538
   101  H    0.083738
   102  H    0.095902
   103  H    0.116643
   104  H    0.104091
   105  H    0.068007
   106  H    0.076176
   107  H    0.114251
   108  H    0.076335
   109  H    0.070063
   110  H    0.076240
   111  H    0.082479
   112  H    0.089054
   113  H    0.108443
   114  H    0.108919
   115  H    0.035990
   116  H    0.094670
   117  H    0.100981
   118  H    0.085573
   119  H    0.092041
   120  H    0.099456
   121  H    0.075441
   122  H    0.069808
   123  H    0.099952
   124  H    0.110381
   125  H    0.096046
   126  H    0.058833
   127  H    0.103356
   128  H    0.108395
   129  H    0.038234
   130  H    0.095202
   131  H    0.066077
   132  H    0.108174
   133  H    0.090516
   134  H    0.086785
   135  H    0.088247
   136  H    0.093164
   137  H    0.104305
 Sum of Mulliken charges =  -0.00000

 Dipole moment (field-independent basis, Debye):
    X=             -0.1584    Y=              4.4233    Z=             -0.1192  Tot=              4.4278
 Quadrupole moment (field-independent basis, Debye-Ang):
   XX=           -330.2281   YY=           -396.8049   ZZ=           -398.8905
   XY=            -25.5179   XZ=             13.8351   YZ=              0.3221

 Normal termination of Gaussian 16 at Tue Sep  3 14:19:21 2019.
