 Gaussian 16, Revision A.03,
 Gaussian 16:  ES64L-G16RevA.03 25-Dec-2016

 ----------------------------------------------------------------------
 # td=(NStates=1) iop(3/107=0140000000,3/108=0140000000) CAM-B3LYP/6-31
 G(d,p)
 ----------------------------------------------------------------------

 --
 TD
 --
 Symbolic Z-matrix:
 Charge =  0 Multiplicity = 1

                         Standard orientation:
 ---------------------------------------------------------------------
 Center     Atomic      Atomic             Coordinates (Angstroms)
 Number     Number       Type             X           Y           Z
 ---------------------------------------------------------------------
      1         12           0       -7.154474    0.669434    0.155570
      2          6           0       -4.737641   -1.932598    0.417955
      3          6           0       -4.823896    2.784768    1.120247
      4          6           0       -9.413600    3.128613   -0.402760
      5          6           0       -9.570666   -1.753978   -0.787088
      6          7           0       -5.171935    0.491200    0.728856
      7          6           0       -4.419669   -0.701440    0.689138
      8          6           0       -2.968637   -0.428033    1.215293
      9          6           0       -3.069142    1.095319    1.583736
     10          6           0       -4.376099    1.498814    1.083311
     11          6           0       -2.961791    1.347470    3.163583
     12          6           0       -1.901764   -0.660416   -0.006346
     13          6           0       -0.481180   -0.511084    0.502734
     14          6           0        0.500372   -0.778067   -0.597070
     15          8           0        0.197690   -1.082841   -1.724114
     16          8           0        1.675093   -0.461787   -0.130877
     17          7           0       -7.150566    2.653447    0.318519
     18          6           0       -6.096814    3.364391    0.745563
     19          6           0       -6.409496    4.810410    0.743039
     20          6           0       -7.724237    4.972757    0.225460
     21          6           0       -8.178472    3.533428    0.004689
     22          6           0       -5.459752    5.872083    1.128974
     23          6           0       -8.467986    6.122298    0.036574
     24          6           0       -8.395447    7.343234    0.452952
     25          7           0       -9.140056    0.689541   -0.540600
     26          6           0       -9.965335    1.770280   -0.585340
     27          6           0      -11.315365    1.463721   -1.026030
     28          6           0      -11.290426    0.041520   -1.150312
     29          6           0       -9.957733   -0.380418   -0.820215
     30          6           0      -12.284443    2.424571   -1.346765
     31          6           0      -12.477092   -0.790894   -1.603736
     32          6           0      -12.376769   -1.190606   -3.119249
     33          7           0       -7.246301   -1.329537   -0.055681
     34          6           0       -8.308743   -2.220089   -0.441528
     35          6           0       -7.813592   -3.588466   -0.429042
     36          6           0       -6.506112   -3.541804   -0.134021
     37          6           0       -6.183530   -2.224244    0.124093
     38          6           0       -8.666624   -4.805258   -0.807692
     39          6           0       -5.318581   -4.394261    0.124193
     40          8           0       -5.229130   -5.585763    0.297978
     41          6           0       -4.134529   -3.335440    0.439912
     42          6           0       -3.479815   -3.621035    1.762100
     43          8           0       -3.668264   -3.004448    2.809854
     44          8           0       -2.801558   -4.762974    1.593665
     45          6           0       -2.136694   -5.271205    2.839550
     46          6           0        2.848218   -0.639215   -1.129138
     47          6           0        4.139871   -0.490783   -0.442015
     48          6           0        5.143982    0.245508   -0.813914
     49          6           0        5.145046    1.206307   -1.962413
     50          6           0        6.547662    0.165326    0.003799
     51          6           0        7.688668   -0.357412   -0.869633
     52          6           0        8.967338   -0.145027   -0.158889
     53          6           0       10.205259   -0.601479   -0.873459
     54          6           0       10.153260   -2.100941   -1.397398
     55          6           0       11.477371   -0.221591   -0.030401
     56          6           0       12.832916   -0.440824   -0.710566
     57          6           0       13.956373    0.053445    0.235742
     58          6           0       15.396655   -0.171115   -0.479064
     59          6           0       15.689994   -1.666882   -0.741494
     60          6           0       16.350939    0.533534    0.401718
     61          6           0       17.822484    0.473845   -0.173065
     62          6           0       18.822259    1.374337    0.722572
     63          6           0       20.281839    1.407224    0.168139
     64          6           0       20.316816    2.148940   -1.123474
     65          6           0       21.319809    1.915232    1.231155
     66          1           0       -4.030492    3.495729    1.496136
     67          1           0      -10.059169    4.078902   -0.592839
     68          1           0      -10.148033   -2.558517   -1.034795
     69          1           0       -2.752799   -0.874101    2.041595
     70          1           0       -2.269007    1.598160    1.026486
     71          1           0       -2.182836    0.903903    3.687887
     72          1           0       -3.214667    2.384889    3.143622
     73          1           0       -3.821220    0.857225    3.467922
     74          1           0       -2.252494   -1.699259   -0.161416
     75          1           0       -2.063911   -0.047057   -0.908147
     76          1           0       -0.484825    0.664499    0.873608
     77          1           0       -0.039026   -0.962498    1.477637
     78          1           0       -5.447707    6.806789    0.470593
     79          1           0       -5.692953    6.273964    2.133155
     80          1           0       -4.325398    5.614635    1.217057
     81          1           0       -9.276292    5.759681   -0.591073
     82          1           0       -9.206602    8.069292    0.289713
     83          1           0       -7.727111    7.513568    1.167464
     84          1           0      -12.087835    2.804184   -2.539475
     85          1           0      -13.270842    1.938034   -1.504072
     86          1           0      -12.405461    3.371669   -0.610455
     87          1           0      -12.588072   -1.700927   -0.772904
     88          1           0      -13.313239   -0.326799   -1.275108
     89          1           0      -13.081227   -1.996168   -3.139096
     90          1           0      -12.492135   -0.401198   -3.790700
     91          1           0      -11.482260   -1.596009   -3.338961
     92          1           0       -8.855833   -4.999810   -1.998563
     93          1           0       -8.025768   -5.929679   -0.405480
     94          1           0       -9.525067   -4.935098   -0.334402
     95          1           0       -3.473509   -3.510989   -0.370415
     96          1           0       -1.620972   -4.300773    3.176533
     97          1           0       -3.014271   -5.508031    3.318444
     98          1           0       -1.494849   -6.241527    2.385750
     99          1           0        2.679844   -1.693896   -1.798557
    100          1           0        2.863664   -0.180477   -1.947799
    101          1           0        4.262149   -1.278589    0.483413
    102          1           0        4.112603    1.633105   -2.293488
    103          1           0        5.581243    2.207161   -1.682890
    104          1           0        5.819011    1.059439   -2.837380
    105          1           0        6.980004    1.182373    0.571695
    106          1           0        6.467082   -0.442174    0.863949
    107          1           0        7.603482   -1.491117   -1.096866
    108          1           0        7.558745    0.111740   -1.773827
    109          1           0        9.137412    0.933238    0.110151
    110          1           0        8.858052   -0.851830    0.835490
    111          1           0       10.503749    0.104832   -1.621270
    112          1           0        9.097023   -2.289886   -1.980921
    113          1           0       11.053670   -2.167767   -2.160271
    114          1           0       10.132173   -2.734395   -0.583210
    115          1           0       11.222216    0.748599    0.158195
    116          1           0       11.555415   -0.650773    1.079803
    117          1           0       13.099275   -1.562612   -1.137411
    118          1           0       12.726776    0.419219   -1.327476
    119          1           0       13.721538    1.146966    0.662551
    120          1           0       13.999332   -0.697961    1.011624
    121          1           0       15.266167    0.254559   -1.485297
    122          1           0       15.820107   -2.135143    0.123718
    123          1           0       14.765553   -2.018051   -1.323434
    124          1           0       16.810040   -1.789700   -1.185521
    125          1           0       15.866323    1.470269    0.480528
    126          1           0       16.525149    0.157131    1.473051
    127          1           0       18.174533   -0.469989   -0.518580
    128          1           0       17.966810    0.960165   -1.293039
    129          1           0       18.315454    2.305109    0.637129
    130          1           0       18.770782    0.796552    1.769266
    131          1           0       20.685122    0.165752    0.045922
    132          1           0       19.929573    3.202502   -0.879853
    133          1           0       21.383327    2.066852   -1.506593
    134          1           0       19.558425    1.699231   -2.003897
    135          1           0       21.117325    1.321920    2.194374
    136          1           0       22.366123    1.788127    0.694370
    137          1           0       21.182902    2.992957    1.415453
 ---------------------------------------------------------------------

 SCF Done:  E(RCAM-B3LYP) =  -2933.38145486     A.U. after   15 cycles

 Excitation energies and oscillator strengths:

 Excited State   1:      Singlet-A      2.1387 eV  579.72 nm  f=0.2164  <S**2>=0.000
     240 -> 243        0.24587
     241 -> 242        0.65562
 This state for optimization and/or second-order correction.
 Total Energy, E(TD-HF/TD-DFT) =  -2933.30285914
 Copying the excited state density for this state as the 1-particle RhoCI density.

 The electronic state is 1-A.
 Alpha  occ. eigenvalues --  -46.78944 -19.22765 -19.21425 -19.16999 -19.16431
 Alpha  occ. eigenvalues --  -19.15905 -14.36334 -14.35403 -14.35045 -14.34954
 Alpha  occ. eigenvalues --  -10.34017 -10.33438 -10.31201 -10.28349 -10.27837
 Alpha  occ. eigenvalues --  -10.26257 -10.25281 -10.25010 -10.24763 -10.24625
 Alpha  occ. eigenvalues --  -10.24450 -10.24321 -10.24111 -10.24066 -10.23849
 Alpha  occ. eigenvalues --  -10.23708 -10.23680 -10.23627 -10.23605 -10.23453
 Alpha  occ. eigenvalues --  -10.23335 -10.23317 -10.23247 -10.23142 -10.23098
 Alpha  occ. eigenvalues --  -10.23039 -10.22868 -10.22790 -10.22559 -10.22464
 Alpha  occ. eigenvalues --  -10.22177 -10.22061 -10.22039 -10.21908 -10.21883
 Alpha  occ. eigenvalues --  -10.21795 -10.21736 -10.21697 -10.21657 -10.21581
 Alpha  occ. eigenvalues --  -10.21561 -10.21545 -10.21514 -10.21411 -10.21153
 Alpha  occ. eigenvalues --  -10.20897 -10.20891 -10.20854 -10.20773 -10.20681
 Alpha  occ. eigenvalues --  -10.20548 -10.20490 -10.20468 -10.19815 -10.19740
 Alpha  occ. eigenvalues --   -3.07674  -1.82609  -1.82122  -1.82118  -1.13151
 Alpha  occ. eigenvalues --   -1.11997  -1.06980  -1.04107  -1.03380  -0.98607
 Alpha  occ. eigenvalues --   -0.97669  -0.97353  -0.96207  -0.86665  -0.86629
 Alpha  occ. eigenvalues --   -0.85560  -0.85374  -0.84504  -0.83383  -0.83222
 Alpha  occ. eigenvalues --   -0.82796  -0.82754  -0.82375  -0.81298  -0.81256
 Alpha  occ. eigenvalues --   -0.80215  -0.79286  -0.78921  -0.78429  -0.77756
 Alpha  occ. eigenvalues --   -0.76427  -0.75940  -0.75468  -0.74876  -0.73152
 Alpha  occ. eigenvalues --   -0.72730  -0.72230  -0.71319  -0.71045  -0.70805
 Alpha  occ. eigenvalues --   -0.70169  -0.69826  -0.69545  -0.68512  -0.67608
 Alpha  occ. eigenvalues --   -0.67200  -0.66533  -0.65704  -0.64991  -0.64225
 Alpha  occ. eigenvalues --   -0.62546  -0.62035  -0.61281  -0.60251  -0.59730
 Alpha  occ. eigenvalues --   -0.59568  -0.58983  -0.58761  -0.57932  -0.57260
 Alpha  occ. eigenvalues --   -0.56272  -0.56071  -0.56029  -0.55499  -0.54727
 Alpha  occ. eigenvalues --   -0.54710  -0.53950  -0.53280  -0.52991  -0.52081
 Alpha  occ. eigenvalues --   -0.51618  -0.51374  -0.51225  -0.51150  -0.50892
 Alpha  occ. eigenvalues --   -0.50565  -0.49963  -0.49575  -0.49231  -0.48966
 Alpha  occ. eigenvalues --   -0.48820  -0.48548  -0.48356  -0.48217  -0.47734
 Alpha  occ. eigenvalues --   -0.47351  -0.47323  -0.46912  -0.46701  -0.46419
 Alpha  occ. eigenvalues --   -0.46358  -0.46166  -0.45930  -0.45767  -0.45729
 Alpha  occ. eigenvalues --   -0.45530  -0.45310  -0.45100  -0.45035  -0.44918
 Alpha  occ. eigenvalues --   -0.44695  -0.44223  -0.43873  -0.43678  -0.43179
 Alpha  occ. eigenvalues --   -0.42911  -0.42792  -0.42657  -0.42273  -0.42087
 Alpha  occ. eigenvalues --   -0.41970  -0.41919  -0.41710  -0.41589  -0.41406
 Alpha  occ. eigenvalues --   -0.41302  -0.41016  -0.40871  -0.40684  -0.40674
 Alpha  occ. eigenvalues --   -0.40404  -0.40101  -0.40071  -0.40046  -0.39784
 Alpha  occ. eigenvalues --   -0.39527  -0.39392  -0.39229  -0.39163  -0.38756
 Alpha  occ. eigenvalues --   -0.38717  -0.38635  -0.38432  -0.38171  -0.38105
 Alpha  occ. eigenvalues --   -0.37828  -0.37189  -0.37046  -0.36994  -0.36909
 Alpha  occ. eigenvalues --   -0.36690  -0.36067  -0.36010  -0.35703  -0.35512
 Alpha  occ. eigenvalues --   -0.35405  -0.35119  -0.34899  -0.34548  -0.34423
 Alpha  occ. eigenvalues --   -0.34299  -0.33887  -0.33715  -0.33340  -0.33266
 Alpha  occ. eigenvalues --   -0.33142  -0.32999  -0.32543  -0.32479  -0.32167
 Alpha  occ. eigenvalues --   -0.32143  -0.31481  -0.30946  -0.30565  -0.30274
 Alpha  occ. eigenvalues --   -0.30112  -0.29351  -0.29183  -0.28391  -0.28033
 Alpha  occ. eigenvalues --   -0.27217  -0.26850  -0.25008  -0.24460  -0.21379
 Alpha  occ. eigenvalues --   -0.20194
 Alpha virt. eigenvalues --   -0.06611  -0.04054   0.00609   0.02355   0.02884
 Alpha virt. eigenvalues --    0.04184   0.04393   0.05572   0.05660   0.06069
 Alpha virt. eigenvalues --    0.07006   0.08706   0.08956   0.09391   0.09614

 Mulliken charges:
               1
     1  Mg   0.804055
     2  C    0.115807
     3  C   -0.239938
     4  C   -0.194709
     5  C   -0.127065
     6  N   -0.659464
     7  C    0.252476
     8  C   -0.140707
     9  C   -0.183069
    10  C    0.410326
    11  C   -0.311181
    12  C   -0.166060
    13  C   -0.277628
    14  C    0.638457
    15  O   -0.483556
    16  O   -0.456212
    17  N   -0.726022
    18  C    0.347416
    19  C    0.026568
    20  C    0.038665
    21  C    0.311252
    22  C   -0.409672
    23  C   -0.037299
    24  C   -0.250003
    25  N   -0.657662
    26  C    0.273416
    27  C    0.098843
    28  C    0.002253
    29  C    0.289633
    30  C   -0.396907
    31  C   -0.242607
    32  C   -0.310975
    33  N   -0.701788
    34  C    0.249419
    35  C    0.010211
    36  C    0.069702
    37  C    0.230990
    38  C   -0.371548
    39  C    0.361399
    40  O   -0.432892
    41  C   -0.330196
    42  C    0.635529
    43  O   -0.495622
    44  O   -0.459019
    45  C   -0.084611
    46  C    0.011754
    47  C   -0.131729
    48  C    0.153364
    49  C   -0.401705
    50  C   -0.218827
    51  C   -0.155110
    52  C   -0.154966
    53  C   -0.055620
    54  C   -0.306343
    55  C   -0.188300
    56  C   -0.170501
    57  C   -0.190704
    58  C   -0.063355
    59  C   -0.306444
    60  C   -0.146110
    61  C   -0.193761
    62  C   -0.157932
    63  C   -0.025141
    64  C   -0.284330
    65  C   -0.293348
    66  H    0.064987
    67  H    0.076482
    68  H    0.077194
    69  H    0.111464
    70  H    0.095733
    71  H    0.118388
    72  H    0.110532
    73  H    0.133687
    74  H    0.107317
    75  H    0.125853
    76  H    0.110962
    77  H    0.125070
    78  H    0.122252
    79  H    0.129223
    80  H    0.109980
    81  H    0.068795
    82  H    0.105843
    83  H    0.092073
    84  H    0.089929
    85  H    0.112402
    86  H    0.109158
    87  H    0.070099
    88  H    0.114996
    89  H    0.111520
    90  H    0.121446
    91  H    0.125969
    92  H    0.109703
    93  H    0.090081
    94  H    0.141352
    95  H    0.167804
    96  H    0.139239
    97  H    0.162856
    98  H    0.123669
    99  H    0.100867
   100  H    0.132594
   101  H    0.079532
   102  H    0.114257
   103  H    0.118901
   104  H    0.130548
   105  H    0.071089
   106  H    0.107410
   107  H    0.090224
   108  H    0.099558
   109  H    0.082378
   110  H    0.066923
   111  H    0.084924
   112  H    0.077672
   113  H    0.096533
   114  H    0.123038
   115  H    0.096883
   116  H    0.051097
   117  H    0.088250
   118  H    0.104387
   119  H    0.077612
   120  H    0.099911
   121  H    0.090352
   122  H    0.119735
   123  H    0.088756
   124  H    0.084926
   125  H    0.095393
   126  H    0.084209
   127  H    0.100392
   128  H    0.045430
   129  H    0.103801
   130  H    0.068905
   131  H    0.032124
   132  H    0.098456
   133  H    0.098554
   134  H    0.085363
   135  H    0.102835
   136  H    0.088664
   137  H    0.100559
 Sum of Mulliken charges =  -0.00000

 Dipole moment (field-independent basis, Debye):
    X=              2.3994    Y=              3.6548    Z=              0.1609  Tot=              4.3750
 Quadrupole moment (field-independent basis, Debye-Ang):
   XX=           -350.2471   YY=           -388.6328   ZZ=           -398.5868
   XY=             -9.9211   XZ=              8.9344   YZ=             -1.8852

 Normal termination of Gaussian 16 at Wed Sep 11 18:47:27 2019.
