 Gaussian 16, Revision A.03,
 Gaussian 16:  ES64L-G16RevA.03 25-Dec-2016

 ----------------------------------------------------------------------
 # td=(NStates=1) iop(3/107=0140000000,3/108=0140000000) CAM-B3LYP/6-31
 G(d,p)
 ----------------------------------------------------------------------

 --
 TD
 --
 Symbolic Z-matrix:
 Charge =  0 Multiplicity = 1

                         Standard orientation:
 ---------------------------------------------------------------------
 Center     Atomic      Atomic             Coordinates (Angstroms)
 Number     Number       Type             X           Y           Z
 ---------------------------------------------------------------------
      1         12           0       -7.073513    0.603028   -0.018566
      2          6           0       -4.861295   -1.947048    0.471147
      3          6           0       -4.747324    2.772298    1.176941
      4          6           0       -9.420431    3.154317   -0.363402
      5          6           0       -9.550101   -1.770824   -0.958231
      6          7           0       -5.014275    0.375824    0.735606
      7          6           0       -4.272327   -0.788008    0.843641
      8          6           0       -2.923859   -0.444747    1.246584
      9          6           0       -2.944468    1.064405    1.677284
     10          6           0       -4.286190    1.427714    1.141069
     11          6           0       -2.814414    1.262091    3.299280
     12          6           0       -1.930389   -0.669902    0.042859
     13          6           0       -0.513682   -0.532526    0.523084
     14          6           0        0.483273   -0.927142   -0.578446
     15          8           0        0.222182   -1.248045   -1.676977
     16          8           0        1.695185   -0.638465   -0.137953
     17          7           0       -7.163579    2.617286    0.343418
     18          6           0       -6.009659    3.435687    0.931032
     19          6           0       -6.455857    4.755438    0.866330
     20          6           0       -7.647484    4.931536    0.400511
     21          6           0       -8.120495    3.543611    0.162850
     22          6           0       -5.452493    5.829494    1.247510
     23          6           0       -8.396978    6.071914    0.161689
     24          6           0       -8.409699    7.217386    0.810076
     25          7           0       -9.119158    0.666084   -0.632659
     26          6           0       -9.815160    1.807940   -0.685889
     27          6           0      -11.202331    1.431824   -1.147929
     28          6           0      -11.195086    0.117922   -1.298158
     29          6           0       -9.874897   -0.384430   -0.957760
     30          6           0      -12.274376    2.469787   -1.399808
     31          6           0      -12.293783   -0.682180   -1.941976
     32          6           0      -12.084201   -1.066767   -3.374205
     33          7           0       -7.190214   -1.311100   -0.245316
     34          6           0       -8.263252   -2.221984   -0.498329
     35          6           0       -7.838377   -3.692547   -0.530909
     36          6           0       -6.432075   -3.592011   -0.093166
     37          6           0       -6.121400   -2.159452    0.037121
     38          6           0       -8.703211   -4.753923   -0.821616
     39          6           0       -5.303295   -4.331964    0.233639
     40          8           0       -5.156185   -5.566944    0.329131
     41          6           0       -4.184648   -3.283255    0.530860
     42          6           0       -3.608731   -3.663154    1.891774
     43          8           0       -3.862100   -3.176502    2.906944
     44          8           0       -2.791246   -4.757711    1.788021
     45          6           0       -2.296279   -5.247652    3.152022
     46          6           0        2.744254   -0.723240   -1.154560
     47          6           0        4.112492   -0.462878   -0.512538
     48          6           0        5.042753    0.389811   -0.912759
     49          6           0        4.931891    1.247246   -2.216821
     50          6           0        6.366454    0.533197   -0.262982
     51          6           0        7.526622    0.012934   -1.031080
     52          6           0        8.882161    0.189837   -0.207976
     53          6           0       10.138614   -0.320053   -0.945250
     54          6           0       10.009347   -1.718805   -1.341132
     55          6           0       11.450320   -0.070850   -0.083491
     56          6           0       12.773029   -0.403520   -0.827595
     57          6           0       13.871960   -0.224499    0.120246
     58          6           0       15.337388   -0.311873   -0.512471
     59          6           0       15.587784   -1.779221   -0.849463
     60          6           0       16.323802    0.334076    0.356118
     61          6           0       17.809587    0.321156   -0.213402
     62          6           0       18.773099    1.118427    0.708759
     63          6           0       20.238856    1.279166    0.207215
     64          6           0       20.506803    2.127710   -0.987396
     65          6           0       21.171815    1.915227    1.340217
     66          1           0       -4.045666    3.373067    1.674416
     67          1           0      -10.071504    4.146786   -0.756656
     68          1           0      -10.325128   -2.529537   -1.097736
     69          1           0       -2.500657   -1.011455    2.124122
     70          1           0       -2.293253    1.748454    1.293430
     71          1           0       -1.865199    1.006878    3.621777
     72          1           0       -2.828019    2.160956    3.878748
     73          1           0       -3.631139    0.674085    3.601335
     74          1           0       -2.141952   -1.711688   -0.312485
     75          1           0       -2.107254    0.031681   -0.662388
     76          1           0       -0.342387    0.408211    0.793562
     77          1           0       -0.208459   -1.280810    1.494892
     78          1           0       -5.686579    6.750144    0.957761
     79          1           0       -5.511033    5.999230    2.389534
     80          1           0       -4.183205    5.612018    0.966837
     81          1           0       -9.135921    6.085145   -0.552177
     82          1           0       -8.930462    8.212457    0.506023
     83          1           0       -7.776474    7.409129    1.551285
     84          1           0      -11.963138    3.299854   -2.136794
     85          1           0      -13.299995    2.072248   -1.685789
     86          1           0      -12.653172    2.863391   -0.364653
     87          1           0      -12.508546   -1.618753   -1.358073
     88          1           0      -13.326350   -0.069159   -1.816872
     89          1           0      -12.870815   -1.546760   -3.926255
     90          1           0      -11.838418   -0.197631   -3.963219
     91          1           0      -11.228037   -1.817580   -3.511374
     92          1           0       -9.322354   -4.661262   -1.671336
     93          1           0       -8.065890   -5.753691   -0.877421
     94          1           0       -9.422626   -4.927920    0.087906
     95          1           0       -3.440179   -3.403091   -0.262982
     96          1           0       -1.651990   -4.383737    3.626598
     97          1           0       -3.155128   -5.477935    3.742730
     98          1           0       -1.812846   -6.058968    2.835156
     99          1           0        2.775784   -1.691813   -1.682079
    100          1           0        2.484804   -0.011046   -1.863432
    101          1           0        4.399312   -0.982965    0.284570
    102          1           0        3.650584    1.565368   -2.231740
    103          1           0        5.476522    2.254828   -2.179045
    104          1           0        5.267534    0.713218   -3.007980
    105          1           0        6.699343    1.619750    0.349377
    106          1           0        6.206086   -0.127644    0.743965
    107          1           0        7.373421   -0.963232   -1.472922
    108          1           0        7.869714    0.569706   -2.002630
    109          1           0        8.968263    1.204538    0.078523
    110          1           0        8.786858   -0.415755    0.775327
    111          1           0       10.381804    0.431460   -1.732363
    112          1           0        9.041716   -1.873243   -1.826315
    113          1           0       10.914913   -2.113610   -1.773429
    114          1           0        9.828389   -2.362867   -0.403415
    115          1           0       11.418049    0.860462    0.532920
    116          1           0       11.351736   -0.666528    0.799944
    117          1           0       12.781095   -1.495750   -1.275725
    118          1           0       13.091085    0.348297   -1.666981
    119          1           0       13.870186    0.830768    0.520559
    120          1           0       13.981214   -0.930308    1.060324
    121          1           0       15.389987    0.451241   -1.407158
    122          1           0       15.756565   -2.161942    0.110060
    123          1           0       14.688815   -2.071118   -1.323582
    124          1           0       16.684901   -1.796058   -1.239465
    125          1           0       16.179315    1.250216    0.539039
    126          1           0       16.365330   -0.367322    1.332636
    127          1           0       18.449147   -0.644536   -0.404128
    128          1           0       17.640435    0.752983   -1.328217
    129          1           0       18.409973    2.236899    1.036805
    130          1           0       18.661450    0.692757    1.875934
    131          1           0       20.444648    0.101869    0.126514
    132          1           0       19.901755    3.078960   -0.932354
    133          1           0       21.636007    2.250637   -1.210805
    134          1           0       20.145162    1.740527   -2.022511
    135          1           0       21.060785    1.396730    2.229345
    136          1           0       22.170439    2.006331    0.810529
    137          1           0       20.366356    2.816590    1.505420
 ---------------------------------------------------------------------

 SCF Done:  E(RCAM-B3LYP) =  -2933.43120560     A.U. after   16 cycles

 Excitation energies and oscillator strengths:

 Excited State   1:      Singlet-A      1.8969 eV  653.62 nm  f=0.2508  <S**2>=0.000
     240 -> 243        0.23820
     241 -> 242        0.66433
 This state for optimization and/or second-order correction.
 Total Energy, E(TD-HF/TD-DFT) =  -2933.36149676
 Copying the excited state density for this state as the 1-particle RhoCI density.

 The electronic state is 1-A.
 Alpha  occ. eigenvalues --  -46.80351 -19.22017 -19.19856 -19.16702 -19.16104
 Alpha  occ. eigenvalues --  -19.14558 -14.37777 -14.36103 -14.35436 -14.34986
 Alpha  occ. eigenvalues --  -10.33841 -10.32949 -10.28886 -10.27605 -10.26291
 Alpha  occ. eigenvalues --  -10.26061 -10.25975 -10.25920 -10.25562 -10.25437
 Alpha  occ. eigenvalues --  -10.25224 -10.25107 -10.24787 -10.24489 -10.24470
 Alpha  occ. eigenvalues --  -10.24244 -10.23748 -10.23627 -10.23593 -10.23386
 Alpha  occ. eigenvalues --  -10.23334 -10.23313 -10.23282 -10.23213 -10.23057
 Alpha  occ. eigenvalues --  -10.22982 -10.22976 -10.22915 -10.22872 -10.22672
 Alpha  occ. eigenvalues --  -10.22653 -10.22541 -10.22316 -10.22283 -10.21956
 Alpha  occ. eigenvalues --  -10.21909 -10.21890 -10.21887 -10.21688 -10.21682
 Alpha  occ. eigenvalues --  -10.21679 -10.21639 -10.21493 -10.21435 -10.21342
 Alpha  occ. eigenvalues --  -10.21317 -10.21251 -10.21189 -10.21080 -10.20796
 Alpha  occ. eigenvalues --  -10.20521 -10.20483 -10.20397 -10.20322 -10.19908
 Alpha  occ. eigenvalues --   -3.08894  -1.83827  -1.83338  -1.83333  -1.14639
 Alpha  occ. eigenvalues --   -1.12821  -1.05890  -1.03498  -1.02975  -0.99737
 Alpha  occ. eigenvalues --   -0.99012  -0.96679  -0.96114  -0.88223  -0.86586
 Alpha  occ. eigenvalues --   -0.86015  -0.85688  -0.85328  -0.84552  -0.83554
 Alpha  occ. eigenvalues --   -0.83132  -0.83095  -0.82490  -0.81831  -0.81110
 Alpha  occ. eigenvalues --   -0.80398  -0.79849  -0.78680  -0.77609  -0.77151
 Alpha  occ. eigenvalues --   -0.76533  -0.76348  -0.75614  -0.75290  -0.74058
 Alpha  occ. eigenvalues --   -0.73340  -0.72007  -0.71660  -0.71428  -0.71185
 Alpha  occ. eigenvalues --   -0.70648  -0.70473  -0.69889  -0.69268  -0.67893
 Alpha  occ. eigenvalues --   -0.67705  -0.66362  -0.64932  -0.64285  -0.64115
 Alpha  occ. eigenvalues --   -0.62991  -0.62528  -0.62036  -0.60918  -0.60112
 Alpha  occ. eigenvalues --   -0.59659  -0.59162  -0.59067  -0.57727  -0.57223
 Alpha  occ. eigenvalues --   -0.56459  -0.56368  -0.56177  -0.55688  -0.55388
 Alpha  occ. eigenvalues --   -0.54689  -0.54063  -0.53840  -0.53432  -0.53261
 Alpha  occ. eigenvalues --   -0.52311  -0.52212  -0.51489  -0.51431  -0.51192
 Alpha  occ. eigenvalues --   -0.50759  -0.50434  -0.50198  -0.50023  -0.49624
 Alpha  occ. eigenvalues --   -0.49033  -0.48791  -0.48441  -0.48203  -0.48055
 Alpha  occ. eigenvalues --   -0.47773  -0.47598  -0.47449  -0.47358  -0.47157
 Alpha  occ. eigenvalues --   -0.46648  -0.46604  -0.46378  -0.45982  -0.45641
 Alpha  occ. eigenvalues --   -0.45596  -0.45543  -0.45018  -0.44813  -0.44504
 Alpha  occ. eigenvalues --   -0.44282  -0.44242  -0.44080  -0.44026  -0.43652
 Alpha  occ. eigenvalues --   -0.43366  -0.43051  -0.42638  -0.42627  -0.42561
 Alpha  occ. eigenvalues --   -0.42288  -0.42241  -0.42093  -0.41885  -0.41636
 Alpha  occ. eigenvalues --   -0.41459  -0.41201  -0.41137  -0.40949  -0.40758
 Alpha  occ. eigenvalues --   -0.40447  -0.40380  -0.40184  -0.39938  -0.39750
 Alpha  occ. eigenvalues --   -0.39533  -0.39390  -0.39219  -0.39076  -0.38875
 Alpha  occ. eigenvalues --   -0.38748  -0.38724  -0.38319  -0.38313  -0.38103
 Alpha  occ. eigenvalues --   -0.37881  -0.37743  -0.37458  -0.37337  -0.37232
 Alpha  occ. eigenvalues --   -0.36932  -0.36596  -0.36501  -0.36490  -0.36364
 Alpha  occ. eigenvalues --   -0.35865  -0.35515  -0.35503  -0.34726  -0.34662
 Alpha  occ. eigenvalues --   -0.34488  -0.33905  -0.33553  -0.33315  -0.33106
 Alpha  occ. eigenvalues --   -0.33072  -0.32895  -0.32646  -0.32437  -0.32198
 Alpha  occ. eigenvalues --   -0.32011  -0.31978  -0.31680  -0.30684  -0.30077
 Alpha  occ. eigenvalues --   -0.30075  -0.29910  -0.29301  -0.28220  -0.27984
 Alpha  occ. eigenvalues --   -0.26584  -0.26062  -0.25882  -0.25754  -0.21578
 Alpha  occ. eigenvalues --   -0.19421
 Alpha virt. eigenvalues --   -0.07237  -0.04143  -0.00951   0.02374   0.03496
 Alpha virt. eigenvalues --    0.04341   0.04941   0.05398   0.05673   0.06358
 Alpha virt. eigenvalues --    0.06804   0.09058   0.09247   0.09486   0.09574

 Mulliken charges:
               1
     1  Mg   0.826440
     2  C    0.071660
     3  C   -0.194377
     4  C   -0.180659
     5  C   -0.163599
     6  N   -0.635242
     7  C    0.352546
     8  C   -0.196308
     9  C   -0.150436
    10  C    0.344310
    11  C   -0.329974
    12  C   -0.155739
    13  C   -0.254218
    14  C    0.598367
    15  O   -0.452992
    16  O   -0.461861
    17  N   -0.680564
    18  C    0.251869
    19  C    0.027337
    20  C    0.100299
    21  C    0.291553
    22  C   -0.356470
    23  C   -0.086774
    24  C   -0.238949
    25  N   -0.691240
    26  C    0.300140
    27  C    0.052919
    28  C    0.018455
    29  C    0.315440
    30  C   -0.383299
    31  C   -0.238868
    32  C   -0.304054
    33  N   -0.737562
    34  C    0.233372
    35  C    0.082822
    36  C    0.078830
    37  C    0.291974
    38  C   -0.419685
    39  C    0.299575
    40  O   -0.494375
    41  C   -0.345462
    42  C    0.619998
    43  O   -0.440978
    44  O   -0.484804
    45  C   -0.083070
    46  C    0.013593
    47  C   -0.110781
    48  C    0.120077
    49  C   -0.343599
    50  C   -0.213880
    51  C   -0.171859
    52  C   -0.174016
    53  C   -0.049934
    54  C   -0.302228
    55  C   -0.191246
    56  C   -0.160162
    57  C   -0.167514
    58  C   -0.077267
    59  C   -0.291754
    60  C   -0.126173
    61  C   -0.175767
    62  C   -0.166421
    63  C   -0.056138
    64  C   -0.292768
    65  C   -0.284063
    66  H    0.070894
    67  H    0.081647
    68  H    0.094769
    69  H    0.120716
    70  H    0.110720
    71  H    0.115853
    72  H    0.112492
    73  H    0.136137
    74  H    0.117154
    75  H    0.123400
    76  H    0.139285
    77  H    0.099399
    78  H    0.123351
    79  H    0.110713
    80  H    0.076457
    81  H    0.088014
    82  H    0.095698
    83  H    0.091338
    84  H    0.116925
    85  H    0.106343
    86  H    0.113799
    87  H    0.093202
    88  H    0.077716
    89  H    0.108943
    90  H    0.113595
    91  H    0.093584
    92  H    0.137364
    93  H    0.140408
    94  H    0.130162
    95  H    0.161196
    96  H    0.115080
    97  H    0.146657
    98  H    0.138170
    99  H    0.135366
   100  H    0.121037
   101  H    0.079148
   102  H    0.068232
   103  H    0.110610
   104  H    0.142421
   105  H    0.072893
   106  H    0.073059
   107  H    0.107438
   108  H    0.084649
   109  H    0.097618
   110  H    0.074394
   111  H    0.083452
   112  H    0.102076
   113  H    0.106735
   114  H    0.089278
   115  H    0.085057
   116  H    0.094698
   117  H    0.086817
   118  H    0.091607
   119  H    0.083052
   120  H    0.073847
   121  H    0.050538
   122  H    0.109276
   123  H    0.106337
   124  H    0.097324
   125  H    0.103440
   126  H    0.057700
   127  H    0.087926
   128  H    0.073464
   129  H    0.050604
   130  H    0.070027
   131  H    0.063137
   132  H    0.106579
   133  H    0.098623
   134  H    0.088466
   135  H    0.111774
   136  H    0.105700
   137  H    0.079972
 Sum of Mulliken charges =  -0.00000

 Dipole moment (field-independent basis, Debye):
    X=              2.4235    Y=              4.6216    Z=              0.3321  Tot=              5.2290
 Quadrupole moment (field-independent basis, Debye-Ang):
   XX=           -363.1736   YY=           -396.8434   ZZ=           -396.0788
   XY=            -19.1667   XZ=             10.2748   YZ=             -1.7754

 Normal termination of Gaussian 16 at Tue Sep 10 06:56:38 2019.
