 Gaussian 16, Revision A.03,
 Gaussian 16:  ES64L-G16RevA.03 25-Dec-2016

 ----------------------------------------------------------------------
 # td=(NStates=1) iop(3/107=0140000000,3/108=0140000000) CAM-B3LYP/6-31
 G(d,p)
 ----------------------------------------------------------------------

 --
 TD
 --
 Symbolic Z-matrix:
 Charge =  0 Multiplicity = 1

                         Standard orientation:
 ---------------------------------------------------------------------
 Center     Atomic      Atomic             Coordinates (Angstroms)
 Number     Number       Type             X           Y           Z
 ---------------------------------------------------------------------
      1         12           0       -7.200901    0.617407    0.106486
      2          6           0       -4.829730   -1.941149    0.436276
      3          6           0       -4.815135    2.796644    1.199899
      4          6           0       -9.406033    3.124480   -0.479462
      5          6           0       -9.538955   -1.669858   -0.844964
      6          7           0       -5.181857    0.473200    0.722666
      7          6           0       -4.384415   -0.726717    0.783569
      8          6           0       -2.954095   -0.405835    1.257327
      9          6           0       -3.075391    1.104116    1.770730
     10          6           0       -4.383515    1.510499    1.188172
     11          6           0       -3.087827    1.067403    3.231995
     12          6           0       -1.967468   -0.486695    0.071707
     13          6           0       -0.507182   -0.300497    0.510668
     14          6           0        0.410589   -0.767664   -0.606708
     15          8           0        0.083580   -1.261818   -1.711502
     16          8           0        1.671076   -0.604909   -0.295586
     17          7           0       -7.077755    2.637709    0.315439
     18          6           0       -6.057264    3.308048    0.809821
     19          6           0       -6.379222    4.722595    0.905089
     20          6           0       -7.710081    4.793501    0.460784
     21          6           0       -8.168104    3.493501    0.075279
     22          6           0       -5.412244    5.867743    1.052485
     23          6           0       -8.554583    6.007656    0.242023
     24          6           0       -8.293842    7.264537    0.661149
     25          7           0       -9.048655    0.683588   -0.587409
     26          6           0       -9.872665    1.769916   -0.681112
     27          6           0      -11.255795    1.416810   -1.131734
     28          6           0      -11.237902    0.044515   -1.235362
     29          6           0       -9.905549   -0.397899   -0.930417
     30          6           0      -12.280557    2.391524   -1.414428
     31          6           0      -12.274500   -0.830010   -1.671312
     32          6           0      -12.024481   -1.232842   -3.140914
     33          7           0       -7.230224   -1.396784   -0.209784
     34          6           0       -8.273050   -2.233731   -0.538315
     35          6           0       -7.900949   -3.626258   -0.544442
     36          6           0       -6.579917   -3.547859   -0.150371
     37          6           0       -6.209913   -2.174668    0.070796
     38          6           0       -8.601628   -4.828891   -0.913819
     39          6           0       -5.322976   -4.376834    0.347416
     40          8           0       -5.174804   -5.627389    0.439136
     41          6           0       -4.259612   -3.314083    0.596969
     42          6           0       -3.528998   -3.554521    1.985161
     43          8           0       -3.700527   -3.002924    3.018059
     44          8           0       -2.766181   -4.624302    1.798734
     45          6           0       -2.170595   -5.105611    3.000220
     46          6           0        2.784227   -0.629227   -1.314831
     47          6           0        4.139618   -0.438942   -0.649769
     48          6           0        5.079504    0.362676   -1.069973
     49          6           0        5.008418    1.094921   -2.352945
     50          6           0        6.396928    0.472036   -0.330528
     51          6           0        7.614615   -0.053358   -1.133694
     52          6           0        8.858779   -0.024309   -0.216641
     53          6           0       10.156163   -0.441114   -0.991990
     54          6           0       10.190144   -1.865388   -1.392927
     55          6           0       11.414225   -0.126822   -0.025152
     56          6           0       12.804877   -0.476401   -0.682109
     57          6           0       13.989602   -0.005372    0.225732
     58          6           0       15.246989   -0.145551   -0.517300
     59          6           0       15.757680   -1.517426   -0.916110
     60          6           0       16.441903    0.383288    0.479501
     61          6           0       17.927525    0.472798   -0.218779
     62          6           0       18.909476    1.085571    0.849716
     63          6           0       20.181156    1.223027    0.351275
     64          6           0       20.292580    2.014826   -0.975680
     65          6           0       21.144028    1.792086    1.436160
     66          1           0       -3.953525    3.499714    1.365398
     67          1           0      -10.160486    3.857173   -0.531955
     68          1           0      -10.292458   -2.469392   -1.054373
     69          1           0       -2.635653   -0.812410    2.424031
     70          1           0       -2.278388    1.730467    1.395999
     71          1           0       -2.138980    0.744364    3.558442
     72          1           0       -2.866820    2.275727    3.595099
     73          1           0       -3.857868    0.628685    3.838208
     74          1           0       -2.078912   -1.472859   -0.404948
     75          1           0       -2.040482    0.391488   -0.621476
     76          1           0       -0.023060    0.646955    0.626949
     77          1           0       -0.060790   -1.000416    1.521689
     78          1           0       -5.622199    6.592321    0.024604
     79          1           0       -5.585046    6.502528    2.034859
     80          1           0       -4.470010    5.515575    1.026002
     81          1           0       -9.407252    5.574045   -0.287984
     82          1           0       -8.954591    8.161157    0.443655
     83          1           0       -7.481040    7.470271    1.351137
     84          1           0      -11.875769    3.113874   -2.146320
     85          1           0      -13.110603    2.055202   -1.962499
     86          1           0      -12.723429    3.048058   -0.571671
     87          1           0      -12.292118   -1.610756   -1.006314
     88          1           0      -13.224672   -0.274608   -1.758823
     89          1           0      -12.620204   -2.218441   -3.403193
     90          1           0      -12.285041   -0.185828   -3.653979
     91          1           0      -10.837941   -1.550564   -3.316615
     92          1           0       -8.873449   -5.048766   -2.135132
     93          1           0       -7.968231   -5.654144   -0.748657
     94          1           0       -9.541567   -5.004370   -0.359490
     95          1           0       -3.412812   -3.398964   -0.184164
     96          1           0       -1.498539   -4.345668    3.465249
     97          1           0       -2.927206   -5.146099    3.662815
     98          1           0       -1.693487   -5.888243    2.783359
     99          1           0        2.640876   -1.582960   -1.962813
    100          1           0        2.624614    0.281724   -2.086957
    101          1           0        4.322921   -0.870245    0.260552
    102          1           0        4.119882    1.030602   -2.672286
    103          1           0        5.339636    2.186887   -2.246988
    104          1           0        5.525456    0.571974   -3.176991
    105          1           0        6.923268    1.471196    0.020184
    106          1           0        6.228408   -0.099331    0.698105
    107          1           0        7.448108   -0.924465   -1.446918
    108          1           0        7.572816    0.384249   -2.071951
    109          1           0        9.071011    1.032973    0.136883
    110          1           0        8.614619   -0.704181    0.651425
    111          1           0       10.336053    0.367542   -1.930856
    112          1           0        9.392264   -2.150080   -1.938462
    113          1           0       11.020557   -2.056227   -1.982885
    114          1           0       10.060865   -2.466226   -0.402529
    115          1           0       11.387097    0.994168    0.188208
    116          1           0       11.274676   -0.812859    0.853003
    117          1           0       12.971589   -1.564148   -0.773414
    118          1           0       12.741608    0.132049   -1.788083
    119          1           0       14.036313    1.070301    0.649352
    120          1           0       14.154165   -0.593961    1.066528
    121          1           0       15.252101    0.703530   -1.288341
    122          1           0       16.044838   -2.063745    0.105887
    123          1           0       14.765252   -2.251482   -1.289115
    124          1           0       16.614331   -1.437211   -1.541655
    125          1           0       16.155488    1.360811    0.712267
    126          1           0       16.660993   -0.454235    1.051525
    127          1           0       18.390427   -0.446711   -0.399597
    128          1           0       17.794913    1.147741   -1.054391
    129          1           0       18.395376    2.045322    1.265270
    130          1           0       18.845735    0.168182    1.779426
    131          1           0       20.728613    0.291767    0.144152
    132          1           0       20.027070    3.079910   -0.942141
    133          1           0       21.311097    1.930746   -1.323497
    134          1           0       19.833016    1.459016   -1.771204
    135          1           0       21.361029    1.198668    2.303074
    136          1           0       22.171643    1.793232    0.928342
    137          1           0       20.759850    2.792147    1.783264
 ---------------------------------------------------------------------

 SCF Done:  E(RCAM-B3LYP) =  -2933.44440390     A.U. after   15 cycles

 Excitation energies and oscillator strengths:

 Excited State   1:      Singlet-A      2.0640 eV  600.68 nm  f=0.2919  <S**2>=0.000
     240 -> 243        0.19615
     241 -> 242        0.66811
 This state for optimization and/or second-order correction.
 Total Energy, E(TD-HF/TD-DFT) =  -2933.36855146
 Copying the excited state density for this state as the 1-particle RhoCI density.

 The electronic state is 1-A.
 Alpha  occ. eigenvalues --  -46.78899 -19.21776 -19.21725 -19.16978 -19.15868
 Alpha  occ. eigenvalues --  -19.14995 -14.37151 -14.35524 -14.34798 -14.34653
 Alpha  occ. eigenvalues --  -10.34202 -10.33818 -10.30986 -10.30193 -10.25658
 Alpha  occ. eigenvalues --  -10.25541 -10.25528 -10.25376 -10.25121 -10.24864
 Alpha  occ. eigenvalues --  -10.24474 -10.24157 -10.23993 -10.23991 -10.23956
 Alpha  occ. eigenvalues --  -10.23671 -10.23429 -10.23396 -10.23355 -10.23047
 Alpha  occ. eigenvalues --  -10.23030 -10.22999 -10.22943 -10.22874 -10.22870
 Alpha  occ. eigenvalues --  -10.22640 -10.22580 -10.22568 -10.22413 -10.22295
 Alpha  occ. eigenvalues --  -10.22287 -10.22180 -10.22128 -10.22048 -10.22046
 Alpha  occ. eigenvalues --  -10.22029 -10.22003 -10.21929 -10.21907 -10.21671
 Alpha  occ. eigenvalues --  -10.21616 -10.21332 -10.21145 -10.21074 -10.20968
 Alpha  occ. eigenvalues --  -10.20949 -10.20702 -10.20652 -10.20394 -10.20252
 Alpha  occ. eigenvalues --  -10.20088 -10.19851 -10.19843 -10.19400 -10.19144
 Alpha  occ. eigenvalues --   -3.07683  -1.82615  -1.82173  -1.82087  -1.14459
 Alpha  occ. eigenvalues --   -1.12300  -1.05752  -1.02942  -1.01150  -0.99211
 Alpha  occ. eigenvalues --   -0.98698  -0.97142  -0.96101  -0.87284  -0.86991
 Alpha  occ. eigenvalues --   -0.85863  -0.85528  -0.84814  -0.84677  -0.83824
 Alpha  occ. eigenvalues --   -0.83743  -0.83008  -0.82781  -0.82228  -0.81453
 Alpha  occ. eigenvalues --   -0.80266  -0.79284  -0.79124  -0.77825  -0.77661
 Alpha  occ. eigenvalues --   -0.77284  -0.76897  -0.75279  -0.74790  -0.73637
 Alpha  occ. eigenvalues --   -0.73319  -0.72413  -0.72131  -0.71545  -0.71405
 Alpha  occ. eigenvalues --   -0.70784  -0.70457  -0.69408  -0.68919  -0.68309
 Alpha  occ. eigenvalues --   -0.66842  -0.65969  -0.64794  -0.64348  -0.63476
 Alpha  occ. eigenvalues --   -0.63180  -0.62694  -0.60713  -0.60654  -0.60080
 Alpha  occ. eigenvalues --   -0.59823  -0.58297  -0.57967  -0.57544  -0.57390
 Alpha  occ. eigenvalues --   -0.57062  -0.56679  -0.55817  -0.55501  -0.55263
 Alpha  occ. eigenvalues --   -0.54817  -0.54119  -0.53510  -0.52766  -0.52225
 Alpha  occ. eigenvalues --   -0.52035  -0.51715  -0.51626  -0.51459  -0.51266
 Alpha  occ. eigenvalues --   -0.50751  -0.50555  -0.50225  -0.49915  -0.49693
 Alpha  occ. eigenvalues --   -0.49532  -0.49442  -0.48917  -0.48123  -0.47858
 Alpha  occ. eigenvalues --   -0.47591  -0.47279  -0.47204  -0.47031  -0.46907
 Alpha  occ. eigenvalues --   -0.46643  -0.46336  -0.46258  -0.45855  -0.45712
 Alpha  occ. eigenvalues --   -0.45584  -0.45249  -0.45109  -0.44955  -0.44905
 Alpha  occ. eigenvalues --   -0.44557  -0.44288  -0.44141  -0.43873  -0.43774
 Alpha  occ. eigenvalues --   -0.43272  -0.43107  -0.43035  -0.42626  -0.42402
 Alpha  occ. eigenvalues --   -0.42331  -0.42155  -0.41970  -0.41700  -0.41583
 Alpha  occ. eigenvalues --   -0.41522  -0.41263  -0.41214  -0.40899  -0.40798
 Alpha  occ. eigenvalues --   -0.40761  -0.40457  -0.40348  -0.39962  -0.39609
 Alpha  occ. eigenvalues --   -0.39576  -0.39432  -0.39261  -0.39071  -0.39005
 Alpha  occ. eigenvalues --   -0.38821  -0.38392  -0.38278  -0.38110  -0.37640
 Alpha  occ. eigenvalues --   -0.37614  -0.37419  -0.37258  -0.37150  -0.37072
 Alpha  occ. eigenvalues --   -0.37025  -0.36826  -0.36320  -0.36204  -0.35934
 Alpha  occ. eigenvalues --   -0.35847  -0.35606  -0.35498  -0.35097  -0.34788
 Alpha  occ. eigenvalues --   -0.34493  -0.34287  -0.33456  -0.33298  -0.32943
 Alpha  occ. eigenvalues --   -0.32880  -0.32715  -0.32503  -0.32401  -0.32076
 Alpha  occ. eigenvalues --   -0.31849  -0.31687  -0.31015  -0.30745  -0.30405
 Alpha  occ. eigenvalues --   -0.29090  -0.28977  -0.28649  -0.28511  -0.27561
 Alpha  occ. eigenvalues --   -0.26719  -0.26243  -0.25892  -0.24535  -0.21503
 Alpha  occ. eigenvalues --   -0.20121
 Alpha virt. eigenvalues --   -0.07198  -0.03213   0.00318   0.02415   0.03320
 Alpha virt. eigenvalues --    0.04355   0.04459   0.04913   0.05455   0.05955
 Alpha virt. eigenvalues --    0.06623   0.08589   0.08886   0.09184   0.09436

 Mulliken charges:
               1
     1  Mg   0.805779
     2  C    0.090719
     3  C   -0.204377
     4  C   -0.173089
     5  C   -0.197964
     6  N   -0.623527
     7  C    0.280093
     8  C   -0.164545
     9  C   -0.137140
    10  C    0.367221
    11  C   -0.306490
    12  C   -0.156780
    13  C   -0.252231
    14  C    0.588793
    15  O   -0.508957
    16  O   -0.469039
    17  N   -0.727460
    18  C    0.358932
    19  C    0.003516
    20  C   -0.017459
    21  C    0.312756
    22  C   -0.353924
    23  C   -0.013650
    24  C   -0.276227
    25  N   -0.695652
    26  C    0.283416
    27  C    0.054476
    28  C    0.065391
    29  C    0.323812
    30  C   -0.409774
    31  C   -0.256824
    32  C   -0.281416
    33  N   -0.709736
    34  C    0.234842
    35  C    0.071477
    36  C   -0.053565
    37  C    0.290006
    38  C   -0.397553
    39  C    0.406909
    40  O   -0.483416
    41  C   -0.310577
    42  C    0.600859
    43  O   -0.459491
    44  O   -0.423541
    45  C   -0.065734
    46  C    0.004176
    47  C   -0.114634
    48  C    0.135556
    49  C   -0.345156
    50  C   -0.228805
    51  C   -0.166113
    52  C   -0.168184
    53  C   -0.060638
    54  C   -0.293279
    55  C   -0.162443
    56  C   -0.166032
    57  C   -0.150779
    58  C   -0.060535
    59  C   -0.290357
    60  C   -0.179519
    61  C   -0.214084
    62  C   -0.122335
    63  C   -0.046318
    64  C   -0.318617
    65  C   -0.308150
    66  H    0.069948
    67  H    0.088769
    68  H    0.082781
    69  H    0.108851
    70  H    0.100190
    71  H    0.127647
    72  H    0.053056
    73  H    0.146825
    74  H    0.135980
    75  H    0.123386
    76  H    0.141463
    77  H    0.100089
    78  H    0.103941
    79  H    0.110932
    80  H    0.119927
    81  H    0.071320
    82  H    0.100748
    83  H    0.105822
    84  H    0.124844
    85  H    0.117737
    86  H    0.117235
    87  H    0.115641
    88  H    0.105030
    89  H    0.098350
    90  H    0.097263
    91  H    0.094950
    92  H    0.088252
    93  H    0.157498
    94  H    0.119489
    95  H    0.162636
    96  H    0.107067
    97  H    0.138253
    98  H    0.122964
    99  H    0.140838
   100  H    0.112099
   101  H    0.087709
   102  H    0.099464
   103  H    0.111928
   104  H    0.120456
   105  H    0.089106
   106  H    0.069251
   107  H    0.106435
   108  H    0.099116
   109  H    0.084456
   110  H    0.091909
   111  H    0.045455
   112  H    0.108920
   113  H    0.115442
   114  H    0.083918
   115  H    0.084637
   116  H    0.083887
   117  H    0.104443
   118  H    0.060088
   119  H    0.074505
   120  H    0.096529
   121  H    0.070562
   122  H    0.080850
   123  H    0.055939
   124  H    0.127145
   125  H    0.089230
   126  H    0.099955
   127  H    0.100241
   128  H    0.099348
   129  H    0.075505
   130  H    0.036591
   131  H    0.089176
   132  H    0.103909
   133  H    0.098377
   134  H    0.110712
   135  H    0.107320
   136  H    0.080788
   137  H    0.092264
 Sum of Mulliken charges =  -0.00000

 Dipole moment (field-independent basis, Debye):
    X=              2.5988    Y=              4.4893    Z=              0.2305  Tot=              5.1924
 Quadrupole moment (field-independent basis, Debye-Ang):
   XX=           -327.4200   YY=           -400.9727   ZZ=           -398.5218
   XY=            -24.3169   XZ=              2.3862   YZ=             -4.6098

 Normal termination of Gaussian 16 at Wed Sep  4 16:12:35 2019.
