 Gaussian 16, Revision A.03,
 Gaussian 16:  ES64L-G16RevA.03 25-Dec-2016

 ----------------------------------------------------------------------
 # td=(NStates=1) iop(3/107=0140000000,3/108=0140000000) CAM-B3LYP/6-31
 G(d,p)
 ----------------------------------------------------------------------

 --
 TD
 --
 Symbolic Z-matrix:
 Charge =  0 Multiplicity = 1

                         Standard orientation:
 ---------------------------------------------------------------------
 Center     Atomic      Atomic             Coordinates (Angstroms)
 Number     Number       Type             X           Y           Z
 ---------------------------------------------------------------------
      1         12           0       -7.135405    0.591979    0.084732
      2          6           0       -4.780694   -1.940474    0.471743
      3          6           0       -4.768737    2.784332    1.229296
      4          6           0       -9.325114    3.100700   -0.475785
      5          6           0       -9.581555   -1.713900   -0.851213
      6          7           0       -5.132254    0.397512    0.876195
      7          6           0       -4.355045   -0.760361    0.869362
      8          6           0       -2.890159   -0.309135    1.169567
      9          6           0       -3.057672    1.058715    1.618937
     10          6           0       -4.386988    1.460141    1.084318
     11          6           0       -3.054241    1.086189    3.183927
     12          6           0       -1.900118   -0.604292    0.008774
     13          6           0       -0.468077   -0.340605    0.484743
     14          6           0        0.502860   -0.703382   -0.678061
     15          8           0        0.191227   -1.166935   -1.751466
     16          8           0        1.792458   -0.370612   -0.218376
     17          7           0       -7.068791    2.638321    0.295745
     18          6           0       -6.029567    3.390727    0.824851
     19          6           0       -6.452744    4.786671    0.855480
     20          6           0       -7.850902    4.820640    0.424596
     21          6           0       -8.134380    3.457059    0.098055
     22          6           0       -5.553061    5.916217    1.163017
     23          6           0       -8.658176    5.941016    0.115389
     24          6           0       -8.605708    7.151259    0.720917
     25          7           0       -9.099232    0.707178   -0.649249
     26          6           0       -9.835784    1.795587   -0.759924
     27          6           0      -11.228304    1.459360   -1.136046
     28          6           0      -11.273474    0.181631   -1.256342
     29          6           0       -9.902161   -0.387007   -0.854365
     30          6           0      -12.366323    2.424946   -1.275111
     31          6           0      -12.274849   -0.731733   -1.663743
     32          6           0      -12.166837   -1.056785   -3.215622
     33          7           0       -7.227030   -1.315267   -0.215240
     34          6           0       -8.271078   -2.176229   -0.626311
     35          6           0       -7.831973   -3.498973   -0.520335
     36          6           0       -6.512852   -3.555281   -0.171885
     37          6           0       -6.174381   -2.121293   -0.009680
     38          6           0       -8.557654   -4.799926   -0.867206
     39          6           0       -5.382796   -4.379320    0.180576
     40          8           0       -5.174620   -5.608403    0.109940
     41          6           0       -4.217259   -3.343290    0.594664
     42          6           0       -3.590121   -3.690280    1.911234
     43          8           0       -3.690273   -3.119201    3.053511
     44          8           0       -2.845600   -4.776554    1.795343
     45          6           0       -2.204145   -5.247550    3.004185
     46          6           0        2.820897   -0.636213   -1.134801
     47          6           0        4.120491   -0.490829   -0.595997
     48          6           0        5.139608    0.280679   -0.955044
     49          6           0        5.160366    1.251178   -2.121482
     50          6           0        6.446095    0.382554   -0.212223
     51          6           0        7.646514   -0.209730   -1.004747
     52          6           0        8.939228   -0.267530   -0.058374
     53          6           0       10.270828   -0.651744   -0.817094
     54          6           0       10.309260   -2.063422   -1.361562
     55          6           0       11.474066   -0.310941    0.106132
     56          6           0       12.757258   -0.532330   -0.634841
     57          6           0       14.009839   -0.162863    0.254498
     58          6           0       15.276914   -0.168618   -0.544264
     59          6           0       15.600015   -1.589347   -1.026124
     60          6           0       16.357241    0.383041    0.477242
     61          6           0       17.800046    0.570032   -0.254705
     62          6           0       18.813636    1.254474    0.778966
     63          6           0       20.248678    1.494890    0.219851
     64          6           0       20.191583    2.416270   -1.068912
     65          6           0       21.220793    1.896778    1.328793
     66          1           0       -4.195854    3.529929    1.480593
     67          1           0      -10.144735    3.930046   -0.643264
     68          1           0      -10.229464   -2.472396   -1.215264
     69          1           0       -2.800990   -1.018379    2.060497
     70          1           0       -2.241762    1.729356    1.282124
     71          1           0       -2.052603    0.793121    3.513891
     72          1           0       -2.989047    2.146276    3.570054
     73          1           0       -3.770361    0.487496    3.708993
     74          1           0       -2.042114   -1.699961   -0.226972
     75          1           0       -1.973497   -0.032448   -0.783969
     76          1           0       -0.402792    0.815727    0.622640
     77          1           0       -0.171201   -0.782691    1.456217
     78          1           0       -5.595978    6.824352    0.661209
     79          1           0       -5.655914    6.144664    2.151329
     80          1           0       -4.500212    5.544029    1.136582
     81          1           0       -9.374928    5.820102   -0.561428
     82          1           0       -9.259567    7.977520    0.455628
     83          1           0       -7.672128    7.430454    1.492454
     84          1           0      -12.029767    3.150724   -2.081542
     85          1           0      -13.308443    2.210504   -1.607795
     86          1           0      -12.577115    2.986745   -0.368829
     87          1           0      -12.509808   -1.588243   -1.150356
     88          1           0      -13.207323   -0.125879   -1.572314
     89          1           0      -12.843234   -1.664465   -3.442255
     90          1           0      -12.076285   -0.138043   -3.786130
     91          1           0      -11.258888   -1.626976   -3.424237
     92          1           0       -8.990917   -4.761817   -1.843854
     93          1           0       -7.691479   -5.757303   -0.741916
     94          1           0       -9.433167   -4.917001   -0.267721
     95          1           0       -3.467628   -3.509523   -0.294090
     96          1           0       -1.464827   -4.481367    3.375907
     97          1           0       -2.926359   -5.515501    3.847040
     98          1           0       -1.712525   -6.202058    2.578942
     99          1           0        2.574407   -1.747777   -1.364083
    100          1           0        2.879608   -0.064691   -2.094300
    101          1           0        4.140807   -1.066196    0.491894
    102          1           0        4.146414    1.307368   -2.695888
    103          1           0        5.483799    2.249267   -1.689013
    104          1           0        5.905469    1.133571   -2.900597
    105          1           0        6.416772    1.522608   -0.099446
    106          1           0        6.264840   -0.377929    0.788659
    107          1           0        7.503588   -1.304724   -1.309231
    108          1           0        7.647779    0.510963   -1.951263
    109          1           0        9.051800    0.697438    0.514614
    110          1           0        8.877257   -1.001268    0.621094
    111          1           0       10.427265    0.061332   -1.663226
    112          1           0        9.244530   -2.170440   -1.742394
    113          1           0       10.988228   -2.096754   -2.255967
    114          1           0       10.431336   -2.622886   -0.538044
    115          1           0       11.622716    0.742573    0.183884
    116          1           0       11.544119   -0.999213    1.020732
    117          1           0       12.706532   -1.530500   -0.858775
    118          1           0       12.682802    0.121134   -1.603590
    119          1           0       13.804932    0.812212    0.697936
    120          1           0       14.290683   -0.925748    0.919641
    121          1           0       15.209880    0.358715   -1.624861
    122          1           0       15.806321   -2.397849   -0.156601
    123          1           0       14.930612   -1.851497   -1.786149
    124          1           0       16.489515   -1.527302   -1.709463
    125          1           0       15.962859    1.259430    0.803238
    126          1           0       16.602274   -0.232373    1.507820
    127          1           0       18.364631   -0.452330   -0.471535
    128          1           0       17.917104    1.328089   -1.132974
    129          1           0       18.266030    2.104387    1.122863
    130          1           0       18.951531    0.583650    1.684410
    131          1           0       20.691143    0.522106   -0.134066
    132          1           0       19.966930    3.482942   -0.836079
    133          1           0       21.263309    2.692045   -1.592921
    134          1           0       19.379700    2.194981   -1.931666
    135          1           0       21.365361    1.123192    2.111355
    136          1           0       22.211418    1.924598    0.906737
    137          1           0       20.907368    2.835330    2.140671
 ---------------------------------------------------------------------

 SCF Done:  E(RCAM-B3LYP) =  -2933.50453133     A.U. after   16 cycles

 Excitation energies and oscillator strengths:

 Excited State   1:      Singlet-A      2.0316 eV  610.28 nm  f=0.2786  <S**2>=0.000
     240 -> 243        0.19455
     241 -> 242        0.67229
 This state for optimization and/or second-order correction.
 Total Energy, E(TD-HF/TD-DFT) =  -2933.42987109
 Copying the excited state density for this state as the 1-particle RhoCI density.

 The electronic state is 1-A.
 Alpha  occ. eigenvalues --  -46.79831 -19.22218 -19.21821 -19.18409 -19.15878
 Alpha  occ. eigenvalues --  -19.15610 -14.36856 -14.35757 -14.35680 -14.34952
 Alpha  occ. eigenvalues --  -10.35334 -10.34503 -10.30819 -10.27835 -10.26698
 Alpha  occ. eigenvalues --  -10.25967 -10.25799 -10.25451 -10.25145 -10.25119
 Alpha  occ. eigenvalues --  -10.25051 -10.24796 -10.24302 -10.24141 -10.23888
 Alpha  occ. eigenvalues --  -10.23683 -10.23548 -10.23495 -10.23269 -10.23226
 Alpha  occ. eigenvalues --  -10.23132 -10.23077 -10.22888 -10.22822 -10.22751
 Alpha  occ. eigenvalues --  -10.22746 -10.22639 -10.22362 -10.22348 -10.22276
 Alpha  occ. eigenvalues --  -10.22255 -10.22036 -10.22032 -10.21993 -10.21978
 Alpha  occ. eigenvalues --  -10.21827 -10.21738 -10.21631 -10.21567 -10.21464
 Alpha  occ. eigenvalues --  -10.21250 -10.21095 -10.21045 -10.20907 -10.20773
 Alpha  occ. eigenvalues --  -10.20737 -10.20592 -10.20567 -10.20500 -10.20320
 Alpha  occ. eigenvalues --  -10.20088 -10.19875 -10.19873 -10.19768 -10.19529
 Alpha  occ. eigenvalues --   -3.08509  -1.83450  -1.82968  -1.82933  -1.12872
 Alpha  occ. eigenvalues --   -1.12333  -1.05718  -1.03947  -1.00579  -0.99779
 Alpha  occ. eigenvalues --   -0.99351  -0.98163  -0.97522  -0.86914  -0.86249
 Alpha  occ. eigenvalues --   -0.85554  -0.85457  -0.85058  -0.84401  -0.83711
 Alpha  occ. eigenvalues --   -0.83538  -0.82754  -0.82389  -0.82330  -0.81149
 Alpha  occ. eigenvalues --   -0.80143  -0.79274  -0.79161  -0.78427  -0.77873
 Alpha  occ. eigenvalues --   -0.76639  -0.76009  -0.75697  -0.74852  -0.73830
 Alpha  occ. eigenvalues --   -0.73134  -0.72654  -0.71297  -0.71049  -0.70896
 Alpha  occ. eigenvalues --   -0.70783  -0.69980  -0.69327  -0.68702  -0.68439
 Alpha  occ. eigenvalues --   -0.68141  -0.66686  -0.65791  -0.64224  -0.63468
 Alpha  occ. eigenvalues --   -0.63165  -0.61567  -0.61042  -0.60687  -0.60372
 Alpha  occ. eigenvalues --   -0.59905  -0.58698  -0.57969  -0.57899  -0.57788
 Alpha  occ. eigenvalues --   -0.57084  -0.56651  -0.56298  -0.55929  -0.55513
 Alpha  occ. eigenvalues --   -0.55166  -0.54267  -0.54046  -0.53031  -0.52831
 Alpha  occ. eigenvalues --   -0.52620  -0.52315  -0.51801  -0.51119  -0.51033
 Alpha  occ. eigenvalues --   -0.50500  -0.50051  -0.49789  -0.49658  -0.49259
 Alpha  occ. eigenvalues --   -0.49022  -0.48679  -0.48548  -0.47992  -0.47924
 Alpha  occ. eigenvalues --   -0.47741  -0.47536  -0.47152  -0.46928  -0.46681
 Alpha  occ. eigenvalues --   -0.46506  -0.46310  -0.46193  -0.46119  -0.45989
 Alpha  occ. eigenvalues --   -0.45674  -0.45422  -0.45268  -0.44864  -0.44803
 Alpha  occ. eigenvalues --   -0.44360  -0.44161  -0.43980  -0.43609  -0.43372
 Alpha  occ. eigenvalues --   -0.43262  -0.42993  -0.42941  -0.42566  -0.42395
 Alpha  occ. eigenvalues --   -0.42319  -0.42023  -0.41853  -0.41600  -0.41496
 Alpha  occ. eigenvalues --   -0.41318  -0.41169  -0.41058  -0.40818  -0.40608
 Alpha  occ. eigenvalues --   -0.40518  -0.40153  -0.39875  -0.39742  -0.39539
 Alpha  occ. eigenvalues --   -0.39329  -0.39247  -0.39046  -0.38937  -0.38711
 Alpha  occ. eigenvalues --   -0.38659  -0.38467  -0.38171  -0.38077  -0.37788
 Alpha  occ. eigenvalues --   -0.37704  -0.37531  -0.37352  -0.37293  -0.37013
 Alpha  occ. eigenvalues --   -0.36958  -0.36788  -0.36448  -0.35758  -0.35733
 Alpha  occ. eigenvalues --   -0.35477  -0.35262  -0.35069  -0.34980  -0.34508
 Alpha  occ. eigenvalues --   -0.34195  -0.34068  -0.34006  -0.33859  -0.33543
 Alpha  occ. eigenvalues --   -0.33430  -0.33047  -0.32681  -0.32582  -0.32514
 Alpha  occ. eigenvalues --   -0.32114  -0.31827  -0.31500  -0.31191  -0.30094
 Alpha  occ. eigenvalues --   -0.29733  -0.29260  -0.29198  -0.28298  -0.27512
 Alpha  occ. eigenvalues --   -0.26903  -0.26900  -0.26790  -0.24252  -0.21650
 Alpha  occ. eigenvalues --   -0.20259
 Alpha virt. eigenvalues --   -0.07506  -0.02948  -0.00448   0.01985   0.03110
 Alpha virt. eigenvalues --    0.03149   0.03944   0.04888   0.05234   0.05949
 Alpha virt. eigenvalues --    0.06579   0.09286   0.09627   0.09799   0.09950

 Mulliken charges:
               1
     1  Mg   0.815762
     2  C    0.089523
     3  C   -0.131628
     4  C   -0.189284
     5  C   -0.151654
     6  N   -0.621351
     7  C    0.266774
     8  C   -0.169625
     9  C   -0.137055
    10  C    0.365787
    11  C   -0.314611
    12  C   -0.137784
    13  C   -0.276517
    14  C    0.615433
    15  O   -0.447130
    16  O   -0.477753
    17  N   -0.714279
    18  C    0.278927
    19  C   -0.001418
    20  C    0.029863
    21  C    0.341855
    22  C   -0.394050
    23  C   -0.050097
    24  C   -0.249530
    25  N   -0.675569
    26  C    0.300025
    27  C    0.042339
    28  C    0.070606
    29  C    0.279233
    30  C   -0.387343
    31  C   -0.282843
    32  C   -0.305788
    33  N   -0.745511
    34  C    0.258543
    35  C   -0.001161
    36  C    0.070650
    37  C    0.267562
    38  C   -0.385515
    39  C    0.345997
    40  O   -0.478457
    41  C   -0.319657
    42  C    0.617736
    43  O   -0.526846
    44  O   -0.409916
    45  C   -0.081909
    46  C    0.035335
    47  C   -0.121173
    48  C    0.140973
    49  C   -0.376711
    50  C   -0.210200
    51  C   -0.161461
    52  C   -0.169874
    53  C   -0.072118
    54  C   -0.308306
    55  C   -0.169009
    56  C   -0.192610
    57  C   -0.150788
    58  C   -0.057885
    59  C   -0.305854
    60  C   -0.166022
    61  C   -0.179039
    62  C   -0.177898
    63  C   -0.028920
    64  C   -0.318172
    65  C   -0.306834
    66  H    0.038135
    67  H    0.080606
    68  H    0.091284
    69  H    0.129019
    70  H    0.087048
    71  H    0.106931
    72  H    0.094689
    73  H    0.141733
    74  H    0.108839
    75  H    0.119623
    76  H    0.121636
    77  H    0.138430
    78  H    0.134233
    79  H    0.141009
    80  H    0.106110
    81  H    0.087085
    82  H    0.106180
    83  H    0.079055
    84  H    0.108713
    85  H    0.127201
    86  H    0.126403
    87  H    0.114270
    88  H    0.090505
    89  H    0.114575
    90  H    0.112478
    91  H    0.103262
    92  H    0.124593
    93  H    0.125669
    94  H    0.122474
    95  H    0.163431
    96  H    0.127714
    97  H    0.136701
    98  H    0.121036
    99  H    0.102258
   100  H    0.092664
   101  H    0.058195
   102  H    0.104115
   103  H    0.109517
   104  H    0.131261
   105  H    0.098838
   106  H    0.068117
   107  H    0.102582
   108  H    0.078346
   109  H    0.090026
   110  H    0.104564
   111  H    0.069961
   112  H    0.089935
   113  H    0.114428
   114  H    0.115029
   115  H    0.093779
   116  H    0.075660
   117  H    0.104932
   118  H    0.066135
   119  H    0.083088
   120  H    0.099503
   121  H    0.064053
   122  H    0.080114
   123  H    0.111016
   124  H    0.095924
   125  H    0.105017
   126  H    0.074833
   127  H    0.084388
   128  H    0.084895
   129  H    0.096855
   130  H    0.074431
   131  H    0.091472
   132  H    0.106486
   133  H    0.073970
   134  H    0.096073
   135  H    0.106146
   136  H    0.107198
   137  H    0.067754
 Sum of Mulliken charges =  -0.00000

 Dipole moment (field-independent basis, Debye):
    X=              0.2405    Y=              5.2608    Z=             -0.3340  Tot=              5.2769
 Quadrupole moment (field-independent basis, Debye-Ang):
   XX=           -330.5359   YY=           -396.1683   ZZ=           -398.3789
   XY=            -27.7626   XZ=             16.5689   YZ=             -4.5071

 Normal termination of Gaussian 16 at Tue Sep 17 00:58:23 2019.
