 Gaussian 16, Revision A.03,
 Gaussian 16:  ES64L-G16RevA.03 25-Dec-2016

 ----------------------------------------------------------------------
 # td=(NStates=1) iop(3/107=0140000000,3/108=0140000000) CAM-B3LYP/6-31
 G(d,p)
 ----------------------------------------------------------------------

 --
 TD
 --
 Symbolic Z-matrix:
 Charge =  0 Multiplicity = 1

                         Standard orientation:
 ---------------------------------------------------------------------
 Center     Atomic      Atomic             Coordinates (Angstroms)
 Number     Number       Type             X           Y           Z
 ---------------------------------------------------------------------
      1         12           0       -7.139705    0.559617    0.090160
      2          6           0       -4.881186   -1.938475    0.464812
      3          6           0       -4.774878    2.882039    1.234317
      4          6           0       -9.529785    3.200051   -0.304164
      5          6           0       -9.473758   -1.802473   -1.065459
      6          7           0       -5.053008    0.425706    0.714721
      7          6           0       -4.340074   -0.717103    0.850490
      8          6           0       -2.976388   -0.437137    1.295023
      9          6           0       -2.951989    1.057171    1.763780
     10          6           0       -4.273153    1.546640    1.169021
     11          6           0       -2.876635    1.245281    3.218787
     12          6           0       -1.893230   -0.526964    0.217578
     13          6           0       -0.420012   -0.326840    0.584314
     14          6           0        0.467579   -0.573890   -0.585681
     15          8           0        0.160754   -1.103031   -1.657667
     16          8           0        1.721254   -0.391263   -0.182007
     17          7           0       -7.081315    2.592463    0.299781
     18          6           0       -5.985805    3.382137    0.773065
     19          6           0       -6.421842    4.816518    0.817196
     20          6           0       -7.688714    4.843878    0.241640
     21          6           0       -8.126478    3.469179   -0.025190
     22          6           0       -5.567088    5.974217    1.263121
     23          6           0       -8.511149    6.036704    0.090771
     24          6           0       -8.273319    7.217083    0.647996
     25          7           0       -9.155912    0.621756   -0.584118
     26          6           0       -9.965444    1.850495   -0.662184
     27          6           0      -11.281168    1.395660   -1.090466
     28          6           0      -11.272727    0.048361   -1.322569
     29          6           0       -9.934207   -0.421144   -0.911610
     30          6           0      -12.234531    2.430479   -1.413877
     31          6           0      -12.440768   -0.780399   -1.710713
     32          6           0      -12.388005   -1.151633   -3.164085
     33          7           0       -7.232507   -1.419234   -0.226285
     34          6           0       -8.278021   -2.269162   -0.698336
     35          6           0       -7.817430   -3.618570   -0.691049
     36          6           0       -6.481157   -3.502598   -0.187272
     37          6           0       -6.134835   -2.133978    0.049878
     38          6           0       -8.444398   -4.897419   -1.130405
     39          6           0       -5.375603   -4.368868    0.178642
     40          8           0       -5.293830   -5.579983    0.235788
     41          6           0       -4.260527   -3.313502    0.593205
     42          6           0       -3.653713   -3.673453    2.006586
     43          8           0       -3.829212   -3.083822    3.043358
     44          8           0       -2.893972   -4.801423    1.860982
     45          6           0       -2.289171   -5.184306    3.147341
     46          6           0        2.773074   -0.485113   -1.129258
     47          6           0        4.130493   -0.333760   -0.492754
     48          6           0        5.103338    0.419090   -0.948426
     49          6           0        5.082881    1.170972   -2.167527
     50          6           0        6.480802    0.320463   -0.146296
     51          6           0        7.692791   -0.118437   -0.933980
     52          6           0        8.934159   -0.064931   -0.086106
     53          6           0       10.250168   -0.633790   -0.849733
     54          6           0       10.018815   -2.088343   -1.205787
     55          6           0       11.429327   -0.422967    0.119925
     56          6           0       12.771865   -0.578618   -0.649249
     57          6           0       14.039855   -0.083440    0.131884
     58          6           0       15.372755   -0.185707   -0.566857
     59          6           0       15.787134   -1.651570   -0.882938
     60          6           0       16.412472    0.510179    0.273263
     61          6           0       17.744559    0.556711   -0.334348
     62          6           0       18.790011    1.260264    0.659051
     63          6           0       20.261359    1.226423    0.206577
     64          6           0       20.428045    2.030469   -1.124634
     65          6           0       21.235764    1.811324    1.253603
     66          1           0       -4.061396    3.624964    1.482937
     67          1           0      -10.159045    4.017977   -0.436241
     68          1           0      -10.280101   -2.422930   -1.509913
     69          1           0       -2.668298   -1.054249    2.187103
     70          1           0       -2.238267    1.684112    1.368440
     71          1           0       -2.010936    1.005626    3.603110
     72          1           0       -3.035145    2.284193    3.462678
     73          1           0       -3.663219    0.379104    3.527177
     74          1           0       -1.835344   -1.550666   -0.124559
     75          1           0       -2.141466    0.018801   -0.612977
     76          1           0       -0.152065    0.912865    0.816906
     77          1           0       -0.074972   -0.873131    1.684695
     78          1           0       -5.482178    6.726616    0.629577
     79          1           0       -6.105097    6.481758    2.134999
     80          1           0       -4.373469    5.716523    1.426827
     81          1           0       -9.045407    6.037888   -0.845842
     82          1           0       -9.107153    8.043409    0.614845
     83          1           0       -7.483259    7.348221    1.258686
     84          1           0      -11.745579    3.177387   -2.168805
     85          1           0      -13.061931    1.964077   -1.783321
     86          1           0      -12.618910    2.903676   -0.419811
     87          1           0      -12.249184   -1.884521   -1.398410
     88          1           0      -13.384937   -0.255631   -1.248570
     89          1           0      -13.177830   -1.936989   -3.359857
     90          1           0      -12.551439   -0.309912   -3.916770
     91          1           0      -11.261229   -1.382072   -3.492716
     92          1           0       -9.001261   -4.754236   -2.149047
     93          1           0       -7.853582   -5.674951   -1.068937
     94          1           0       -9.243143   -5.185305   -0.291215
     95          1           0       -3.453361   -3.493938   -0.044846
     96          1           0       -1.581920   -4.466490    3.495578
     97          1           0       -3.283641   -5.325845    3.941933
     98          1           0       -1.682672   -5.938990    3.005424
     99          1           0        2.670263   -1.444001   -1.675362
    100          1           0        2.676209    0.216485   -2.027703
    101          1           0        4.331512   -1.027775    0.334062
    102          1           0        4.034998    1.529266   -2.534953
    103          1           0        5.648126    2.128110   -2.179589
    104          1           0        5.628414    0.727760   -3.026908
    105          1           0        6.581700    1.332780    0.136304
    106          1           0        6.457624   -0.340321    0.586332
    107          1           0        7.352990   -1.232579   -1.240251
    108          1           0        7.789941    0.494991   -1.867780
    109          1           0        9.312814    0.906704    0.229312
    110          1           0        8.631123   -0.468976    0.725021
    111          1           0       10.350092   -0.003678   -1.739891
    112          1           0        9.237098   -2.066395   -2.185085
    113          1           0       10.984971   -2.474271   -1.705797
    114          1           0        9.740995   -2.587259   -0.269965
    115          1           0       11.369250    0.508940    0.618579
    116          1           0       11.334336   -1.077053    0.918947
    117          1           0       12.879750   -1.634639   -0.716804
    118          1           0       12.665228   -0.021235   -1.706200
    119          1           0       13.936786    0.920661    0.562851
    120          1           0       14.239875   -0.547920    1.100223
    121          1           0       15.390003    0.361866   -1.611694
    122          1           0       16.072001   -1.997358    0.233063
    123          1           0       14.941470   -1.912992   -1.479556
    124          1           0       16.811523   -1.698822   -1.648586
    125          1           0       15.922167    1.404460    0.567282
    126          1           0       16.432043   -0.028854    1.302872
    127          1           0       18.256772   -0.387275   -0.665363
    128          1           0       17.704708    1.209195   -1.126305
    129          1           0       18.371736    2.325021    0.770020
    130          1           0       18.424282    0.647005    1.484876
    131          1           0       20.498913    0.066901    0.029701
    132          1           0       20.204380    3.061187   -0.795622
    133          1           0       21.433421    2.014577   -1.309857
    134          1           0       19.713721    1.929203   -1.810598
    135          1           0       21.250046    1.393677    2.254726
    136          1           0       22.209574    1.826696    0.737831
    137          1           0       21.051937    3.041322    1.423050
 ---------------------------------------------------------------------

 SCF Done:  E(RCAM-B3LYP) =  -2933.48003874     A.U. after   16 cycles

 Excitation energies and oscillator strengths:

 Excited State   1:      Singlet-A      1.9778 eV  626.87 nm  f=0.2022  <S**2>=0.000
     240 -> 243       -0.25510
     241 -> 242        0.65543
 This state for optimization and/or second-order correction.
 Total Energy, E(TD-HF/TD-DFT) =  -2933.40735480
 Copying the excited state density for this state as the 1-particle RhoCI density.

 The electronic state is 1-A.
 Alpha  occ. eigenvalues --  -46.79768 -19.22337 -19.22075 -19.17053 -19.16838
 Alpha  occ. eigenvalues --  -19.15815 -14.37919 -14.35680 -14.34872 -14.34664
 Alpha  occ. eigenvalues --  -10.34896 -10.34490 -10.29765 -10.27593 -10.26811
 Alpha  occ. eigenvalues --  -10.26800 -10.26545 -10.26330 -10.25853 -10.25502
 Alpha  occ. eigenvalues --  -10.24794 -10.24723 -10.24707 -10.24160 -10.23841
 Alpha  occ. eigenvalues --  -10.23751 -10.23301 -10.23249 -10.23107 -10.23091
 Alpha  occ. eigenvalues --  -10.23080 -10.22868 -10.22829 -10.22766 -10.22474
 Alpha  occ. eigenvalues --  -10.22345 -10.22319 -10.22304 -10.22292 -10.22177
 Alpha  occ. eigenvalues --  -10.22079 -10.22037 -10.22025 -10.21991 -10.21965
 Alpha  occ. eigenvalues --  -10.21945 -10.21939 -10.21630 -10.21595 -10.21423
 Alpha  occ. eigenvalues --  -10.21350 -10.21337 -10.21330 -10.21110 -10.20841
 Alpha  occ. eigenvalues --  -10.20778 -10.20655 -10.20520 -10.20508 -10.20340
 Alpha  occ. eigenvalues --  -10.20162 -10.20013 -10.19723 -10.19585 -10.18790
 Alpha  occ. eigenvalues --   -3.08206  -1.83162  -1.82691  -1.82582  -1.13899
 Alpha  occ. eigenvalues --   -1.12280  -1.05607  -1.04275  -1.03979  -0.98670
 Alpha  occ. eigenvalues --   -0.97416  -0.95782  -0.95050  -0.87763  -0.86823
 Alpha  occ. eigenvalues --   -0.86013  -0.85477  -0.84714  -0.84027  -0.83602
 Alpha  occ. eigenvalues --   -0.83195  -0.82986  -0.82614  -0.82027  -0.81505
 Alpha  occ. eigenvalues --   -0.80739  -0.79266  -0.78818  -0.78480  -0.77585
 Alpha  occ. eigenvalues --   -0.77248  -0.76314  -0.75546  -0.75228  -0.74086
 Alpha  occ. eigenvalues --   -0.73293  -0.72083  -0.71909  -0.71515  -0.71147
 Alpha  occ. eigenvalues --   -0.70785  -0.70391  -0.69942  -0.69624  -0.68102
 Alpha  occ. eigenvalues --   -0.67368  -0.65889  -0.64801  -0.63968  -0.63398
 Alpha  occ. eigenvalues --   -0.62278  -0.61976  -0.61292  -0.60777  -0.60719
 Alpha  occ. eigenvalues --   -0.59843  -0.59722  -0.59321  -0.58133  -0.57639
 Alpha  occ. eigenvalues --   -0.56609  -0.56460  -0.56143  -0.55499  -0.55011
 Alpha  occ. eigenvalues --   -0.54474  -0.54095  -0.53665  -0.52676  -0.52614
 Alpha  occ. eigenvalues --   -0.52453  -0.51891  -0.51359  -0.50856  -0.50796
 Alpha  occ. eigenvalues --   -0.50686  -0.50520  -0.50242  -0.50087  -0.50020
 Alpha  occ. eigenvalues --   -0.49684  -0.48751  -0.48623  -0.48332  -0.48266
 Alpha  occ. eigenvalues --   -0.47677  -0.47493  -0.47191  -0.47165  -0.46952
 Alpha  occ. eigenvalues --   -0.46775  -0.46546  -0.46298  -0.46056  -0.45886
 Alpha  occ. eigenvalues --   -0.45607  -0.45430  -0.45191  -0.44946  -0.44838
 Alpha  occ. eigenvalues --   -0.44587  -0.44503  -0.44426  -0.44181  -0.43924
 Alpha  occ. eigenvalues --   -0.43690  -0.43610  -0.43329  -0.43199  -0.42987
 Alpha  occ. eigenvalues --   -0.42775  -0.42513  -0.42124  -0.41860  -0.41719
 Alpha  occ. eigenvalues --   -0.41469  -0.41328  -0.41145  -0.40716  -0.40603
 Alpha  occ. eigenvalues --   -0.40491  -0.40403  -0.40234  -0.39984  -0.39755
 Alpha  occ. eigenvalues --   -0.39650  -0.39251  -0.39093  -0.38813  -0.38650
 Alpha  occ. eigenvalues --   -0.38372  -0.38337  -0.38238  -0.38146  -0.38039
 Alpha  occ. eigenvalues --   -0.37917  -0.37561  -0.37457  -0.37259  -0.36985
 Alpha  occ. eigenvalues --   -0.36883  -0.36624  -0.36399  -0.36210  -0.36074
 Alpha  occ. eigenvalues --   -0.35872  -0.35709  -0.35325  -0.34751  -0.34557
 Alpha  occ. eigenvalues --   -0.34176  -0.34172  -0.33709  -0.33659  -0.33456
 Alpha  occ. eigenvalues --   -0.33352  -0.33055  -0.32836  -0.32627  -0.32360
 Alpha  occ. eigenvalues --   -0.32077  -0.31544  -0.31139  -0.30590  -0.30429
 Alpha  occ. eigenvalues --   -0.30121  -0.29792  -0.29373  -0.27988  -0.27527
 Alpha  occ. eigenvalues --   -0.26332  -0.26241  -0.25044  -0.24588  -0.21789
 Alpha  occ. eigenvalues --   -0.19564
 Alpha virt. eigenvalues --   -0.06797  -0.04515  -0.00182   0.01954   0.02195
 Alpha virt. eigenvalues --    0.04268   0.04614   0.04734   0.05207   0.05650
 Alpha virt. eigenvalues --    0.06654   0.08579   0.08981   0.09643   0.09805

 Mulliken charges:
               1
     1  Mg   0.805802
     2  C    0.097788
     3  C   -0.175822
     4  C   -0.146709
     5  C   -0.176838
     6  N   -0.634993
     7  C    0.364313
     8  C   -0.199868
     9  C   -0.130552
    10  C    0.293292
    11  C   -0.282079
    12  C   -0.153873
    13  C   -0.256056
    14  C    0.626575
    15  O   -0.482447
    16  O   -0.446618
    17  N   -0.710022
    18  C    0.284951
    19  C    0.040975
    20  C   -0.015423
    21  C    0.307278
    22  C   -0.386921
    23  C   -0.071682
    24  C   -0.236588
    25  N   -0.672452
    26  C    0.250914
    27  C    0.013859
    28  C    0.039303
    29  C    0.302488
    30  C   -0.368536
    31  C   -0.233146
    32  C   -0.308785
    33  N   -0.800106
    34  C    0.304157
    35  C    0.055828
    36  C   -0.039339
    37  C    0.375954
    38  C   -0.360308
    39  C    0.360469
    40  O   -0.462077
    41  C   -0.332827
    42  C    0.610955
    43  O   -0.467400
    44  O   -0.447252
    45  C   -0.068750
    46  C    0.003955
    47  C   -0.135565
    48  C    0.154370
    49  C   -0.398311
    50  C   -0.213041
    51  C   -0.184676
    52  C   -0.160775
    53  C   -0.065080
    54  C   -0.284771
    55  C   -0.179962
    56  C   -0.175631
    57  C   -0.183565
    58  C   -0.062080
    59  C   -0.272932
    60  C   -0.172899
    61  C   -0.184966
    62  C   -0.166813
    63  C   -0.051056
    64  C   -0.306594
    65  C   -0.296118
    66  H    0.069089
    67  H    0.096000
    68  H    0.086404
    69  H    0.116589
    70  H    0.100834
    71  H    0.118460
    72  H    0.106365
    73  H    0.103826
    74  H    0.121511
    75  H    0.126921
    76  H    0.088589
    77  H    0.119684
    78  H    0.148861
    79  H    0.126827
    80  H    0.086954
    81  H    0.100058
    82  H    0.093496
    83  H    0.079112
    84  H    0.117805
    85  H    0.110230
    86  H    0.108041
    87  H    0.102266
    88  H    0.101354
    89  H    0.101594
    90  H    0.097156
    91  H    0.102162
    92  H    0.114565
    93  H    0.156542
    94  H    0.111200
    95  H    0.159380
    96  H    0.122014
    97  H    0.115412
    98  H    0.126827
    99  H    0.127590
   100  H    0.100880
   101  H    0.085426
   102  H    0.108273
   103  H    0.109201
   104  H    0.132673
   105  H    0.106160
   106  H    0.100443
   107  H    0.079401
   108  H    0.079050
   109  H    0.087365
   110  H    0.092122
   111  H    0.084152
   112  H    0.081860
   113  H    0.093231
   114  H    0.108619
   115  H    0.088995
   116  H    0.096547
   117  H    0.114948
   118  H    0.077650
   119  H    0.085984
   120  H    0.086306
   121  H    0.059518
   122  H    0.088036
   123  H    0.114275
   124  H    0.069545
   125  H    0.095937
   126  H    0.060534
   127  H    0.093394
   128  H    0.101586
   129  H    0.072950
   130  H    0.087559
   131  H    0.065530
   132  H    0.096485
   133  H    0.109787
   134  H    0.113437
   135  H    0.112902
   136  H    0.100177
   137  H    0.064423
 Sum of Mulliken charges =  -0.00000

 Dipole moment (field-independent basis, Debye):
    X=              2.9915    Y=              4.4721    Z=              0.2929  Tot=              5.3884
 Quadrupole moment (field-independent basis, Debye-Ang):
   XX=           -362.0682   YY=           -396.6231   ZZ=           -397.1274
   XY=            -11.4838   XZ=             12.2432   YZ=             -4.3838

 Normal termination of Gaussian 16 at Sun Sep 15 17:24:59 2019.
