 Gaussian 16, Revision A.03,
 Gaussian 16:  ES64L-G16RevA.03 25-Dec-2016

 ----------------------------------------------------------------------
 # td=(NStates=1) iop(3/107=0140000000,3/108=0140000000) CAM-B3LYP/6-31
 G(d,p)
 ----------------------------------------------------------------------

 --
 TD
 --
 Symbolic Z-matrix:
 Charge =  0 Multiplicity = 1

                         Standard orientation:
 ---------------------------------------------------------------------
 Center     Atomic      Atomic             Coordinates (Angstroms)
 Number     Number       Type             X           Y           Z
 ---------------------------------------------------------------------
      1         12           0       -7.159811    0.657192    0.038252
      2          6           0       -4.862572   -2.033169    0.388758
      3          6           0       -4.740292    2.785472    1.027030
      4          6           0       -9.326179    3.242123   -0.484530
      5          6           0       -9.521090   -1.642919   -0.857087
      6          7           0       -5.112400    0.343379    0.765268
      7          6           0       -4.471656   -0.796377    0.706984
      8          6           0       -2.975240   -0.546910    1.307879
      9          6           0       -3.004459    1.028026    1.691851
     10          6           0       -4.406662    1.481773    1.150205
     11          6           0       -2.876151    1.287265    3.214521
     12          6           0       -1.992087   -0.634528    0.026736
     13          6           0       -0.517695   -0.587497    0.596133
     14          6           0        0.448381   -0.846133   -0.542355
     15          8           0        0.195283   -1.147879   -1.689008
     16          8           0        1.750039   -0.562075   -0.046299
     17          7           0       -7.025029    2.575456    0.251607
     18          6           0       -5.952021    3.383548    0.729791
     19          6           0       -6.186761    4.767569    0.798050
     20          6           0       -7.553424    4.764082    0.361632
     21          6           0       -8.013185    3.524251   -0.021956
     22          6           0       -5.511695    5.928300    1.145911
     23          6           0       -8.301784    6.069049    0.182612
     24          6           0       -8.210601    7.209020    0.960388
     25          7           0       -9.026246    0.752866   -0.515866
     26          6           0       -9.773458    1.940907   -0.667070
     27          6           0      -11.134993    1.519329   -1.016673
     28          6           0      -11.195215    0.172729   -1.187969
     29          6           0       -9.843565   -0.330656   -0.891654
     30          6           0      -12.159667    2.565050   -1.427424
     31          6           0      -12.387670   -0.573185   -1.690024
     32          6           0      -12.303366   -1.007335   -3.172908
     33          7           0       -7.236853   -1.395824   -0.182074
     34          6           0       -8.227409   -2.208815   -0.562937
     35          6           0       -7.835236   -3.579000   -0.568525
     36          6           0       -6.458536   -3.510921   -0.271857
     37          6           0       -6.187162   -2.187271    0.063532
     38          6           0       -8.674008   -4.787205   -0.856607
     39          6           0       -5.422872   -4.367754    0.152659
     40          8           0       -5.289121   -5.575825    0.174653
     41          6           0       -4.247040   -3.393703    0.477407
     42          6           0       -3.578580   -3.753825    1.749694
     43          8           0       -3.782762   -3.344231    2.931793
     44          8           0       -2.741463   -4.751624    1.652236
     45          6           0       -2.203507   -5.268310    2.933280
     46          6           0        2.709099   -0.739374   -1.136856
     47          6           0        4.086544   -0.446982   -0.493304
     48          6           0        5.073009    0.386375   -0.844940
     49          6           0        5.040274    1.124332   -2.053929
     50          6           0        6.370080    0.336696   -0.014468
     51          6           0        7.536533   -0.120376   -0.905634
     52          6           0        8.809380   -0.160791   -0.008447
     53          6           0       10.095460   -0.505690   -0.741277
     54          6           0       10.166146   -1.908676   -1.375653
     55          6           0       11.404231   -0.180610    0.058619
     56          6           0       12.643651   -0.271786   -0.713078
     57          6           0       13.908337    0.086799    0.177539
     58          6           0       15.313293   -0.133188   -0.442220
     59          6           0       15.624732   -1.646962   -0.727116
     60          6           0       16.329906    0.585317    0.394152
     61          6           0       17.808888    0.567588   -0.199008
     62          6           0       18.821891    1.297039    0.713288
     63          6           0       20.214082    1.212499    0.054913
     64          6           0       20.319508    1.919281   -1.281738
     65          6           0       21.264899    1.808566    1.124823
     66          1           0       -3.940306    3.359024    1.628457
     67          1           0      -10.066062    4.032030   -0.769032
     68          1           0      -10.287675   -2.237077   -1.126217
     69          1           0       -2.833039   -1.095702    2.147062
     70          1           0       -2.196825    1.623927    1.048988
     71          1           0       -1.962412    0.936906    3.609004
     72          1           0       -2.787045    2.400581    3.401837
     73          1           0       -3.725461    0.628279    3.643424
     74          1           0       -2.191636   -1.658008   -0.660894
     75          1           0       -2.143901    0.050117   -0.770109
     76          1           0       -0.262716    0.454648    0.973290
     77          1           0       -0.263854   -1.269378    1.484804
     78          1           0       -5.719213    6.870314    0.511725
     79          1           0       -5.653196    6.071841    2.153118
     80          1           0       -4.436714    5.760078    1.189552
     81          1           0       -8.971055    6.231155   -0.740652
     82          1           0       -8.786059    8.175950    0.745377
     83          1           0       -7.534981    7.249360    1.713187
     84          1           0      -11.852506    3.100219   -2.317235
     85          1           0      -13.079840    2.040856   -1.777060
     86          1           0      -12.410626    3.286157   -0.636851
     87          1           0      -12.486527   -1.506820   -1.074827
     88          1           0      -13.256611    0.008843   -1.709623
     89          1           0      -13.209032   -1.778616   -3.399467
     90          1           0      -12.152624   -0.241533   -3.896479
     91          1           0      -11.478400   -1.773597   -3.306117
     92          1           0       -9.292247   -4.641361   -1.732987
     93          1           0       -8.193010   -5.698240   -0.765146
     94          1           0       -9.501910   -4.779982   -0.201246
     95          1           0       -3.550727   -3.472750   -0.495525
     96          1           0       -1.733176   -4.469138    3.390152
     97          1           0       -2.918850   -5.260264    3.699138
     98          1           0       -1.788909   -6.274154    2.675525
     99          1           0        2.572177   -1.833732   -1.338396
    100          1           0        2.330744   -0.297969   -1.835591
    101          1           0        4.293880   -0.959018    0.479718
    102          1           0        3.944220    1.333827   -2.312686
    103          1           0        5.727450    2.032484   -2.013727
    104          1           0        5.445513    0.491681   -2.897556
    105          1           0        6.472633    1.414358    0.188663
    106          1           0        6.297679   -0.172301    0.812560
    107          1           0        7.362721   -1.171818   -1.296833
    108          1           0        7.881414    0.562048   -1.789895
    109          1           0        8.952155    0.812494    0.688681
    110          1           0        8.682044   -0.763292    0.831120
    111          1           0       10.180953    0.085398   -1.719019
    112          1           0        9.192028   -1.993627   -1.853209
    113          1           0       10.962032   -2.166326   -1.999599
    114          1           0       10.110875   -2.646439   -0.464664
    115          1           0       11.274510    0.941569    0.326853
    116          1           0       11.549518   -0.793069    0.991587
    117          1           0       12.787177   -1.358496   -1.052487
    118          1           0       12.476778    0.608864   -1.608913
    119          1           0       13.628210    1.178601    0.576325
    120          1           0       13.621923   -0.508634    1.053979
    121          1           0       15.477141    0.365212   -1.557387
    122          1           0       15.719493   -2.234030    0.125668
    123          1           0       14.912904   -2.345280   -1.114610
    124          1           0       16.635619   -1.766557   -1.229614
    125          1           0       16.114437    1.449062    0.831989
    126          1           0       16.332939   -0.009261    1.389249
    127          1           0       18.341936   -0.371040   -0.491865
    128          1           0       17.635206    1.206599   -1.086022
    129          1           0       18.487193    2.425562    0.749198
    130          1           0       18.900502    0.735050    1.640059
    131          1           0       20.522224    0.120066   -0.147566
    132          1           0       19.827751    2.945700   -1.153097
    133          1           0       21.370024    2.071316   -1.892712
    134          1           0       19.763517    1.087302   -1.849985
    135          1           0       21.494867    1.106551    2.152407
    136          1           0       22.379370    1.885448    0.594424
    137          1           0       21.076095    2.705440    1.572379
 ---------------------------------------------------------------------

 SCF Done:  E(RCAM-B3LYP) =  -2933.49806294     A.U. after   16 cycles

 Excitation energies and oscillator strengths:

 Excited State   1:      Singlet-A      1.9877 eV  623.75 nm  f=0.3206  <S**2>=0.000
     240 -> 243       -0.21274
     241 -> 242        0.67257
 This state for optimization and/or second-order correction.
 Total Energy, E(TD-HF/TD-DFT) =  -2933.42501570
 Copying the excited state density for this state as the 1-particle RhoCI density.

 The electronic state is 1-A.
 Alpha  occ. eigenvalues --  -46.78363 -19.21560 -19.20312 -19.17676 -19.15708
 Alpha  occ. eigenvalues --  -19.14793 -14.37240 -14.35180 -14.35082 -14.34902
 Alpha  occ. eigenvalues --  -10.34268 -10.33915 -10.29792 -10.25949 -10.25649
 Alpha  occ. eigenvalues --  -10.25516 -10.25413 -10.25287 -10.25035 -10.24999
 Alpha  occ. eigenvalues --  -10.24913 -10.24892 -10.24886 -10.24042 -10.23886
 Alpha  occ. eigenvalues --  -10.23816 -10.23790 -10.23781 -10.23727 -10.23482
 Alpha  occ. eigenvalues --  -10.23389 -10.22949 -10.22943 -10.22514 -10.22445
 Alpha  occ. eigenvalues --  -10.22342 -10.22338 -10.22299 -10.22277 -10.22225
 Alpha  occ. eigenvalues --  -10.22172 -10.22100 -10.22099 -10.22043 -10.21983
 Alpha  occ. eigenvalues --  -10.21963 -10.21956 -10.21941 -10.21916 -10.21887
 Alpha  occ. eigenvalues --  -10.21779 -10.21734 -10.21705 -10.21698 -10.21437
 Alpha  occ. eigenvalues --  -10.21267 -10.21262 -10.21036 -10.20996 -10.20971
 Alpha  occ. eigenvalues --  -10.20760 -10.20442 -10.20151 -10.20071 -10.19997
 Alpha  occ. eigenvalues --   -3.07324  -1.82237  -1.81795  -1.81764  -1.12955
 Alpha  occ. eigenvalues --   -1.11076  -1.05870  -1.03781  -1.00642  -1.00109
 Alpha  occ. eigenvalues --   -0.98105  -0.97423  -0.96150  -0.89163  -0.86401
 Alpha  occ. eigenvalues --   -0.85030  -0.85013  -0.84252  -0.84194  -0.83627
 Alpha  occ. eigenvalues --   -0.83005  -0.82793  -0.82601  -0.82537  -0.80505
 Alpha  occ. eigenvalues --   -0.80055  -0.79018  -0.78824  -0.77936  -0.77452
 Alpha  occ. eigenvalues --   -0.77213  -0.76670  -0.75720  -0.75202  -0.74187
 Alpha  occ. eigenvalues --   -0.73238  -0.72972  -0.72224  -0.71674  -0.71325
 Alpha  occ. eigenvalues --   -0.71088  -0.69697  -0.69528  -0.69288  -0.68208
 Alpha  occ. eigenvalues --   -0.66995  -0.65470  -0.65069  -0.64837  -0.64148
 Alpha  occ. eigenvalues --   -0.62463  -0.62404  -0.61473  -0.60588  -0.60280
 Alpha  occ. eigenvalues --   -0.60223  -0.58812  -0.58794  -0.58627  -0.57353
 Alpha  occ. eigenvalues --   -0.57262  -0.57138  -0.55960  -0.55754  -0.55514
 Alpha  occ. eigenvalues --   -0.54968  -0.54407  -0.53761  -0.53018  -0.52335
 Alpha  occ. eigenvalues --   -0.51916  -0.51584  -0.51154  -0.50466  -0.50315
 Alpha  occ. eigenvalues --   -0.50172  -0.49821  -0.49640  -0.49345  -0.49125
 Alpha  occ. eigenvalues --   -0.48981  -0.48649  -0.48556  -0.48361  -0.47996
 Alpha  occ. eigenvalues --   -0.47737  -0.47562  -0.47294  -0.47214  -0.46916
 Alpha  occ. eigenvalues --   -0.46724  -0.46464  -0.46157  -0.45948  -0.45685
 Alpha  occ. eigenvalues --   -0.45482  -0.45328  -0.45307  -0.44968  -0.44684
 Alpha  occ. eigenvalues --   -0.44624  -0.44353  -0.44133  -0.43675  -0.43559
 Alpha  occ. eigenvalues --   -0.43463  -0.43436  -0.42834  -0.42646  -0.42515
 Alpha  occ. eigenvalues --   -0.42381  -0.42321  -0.42074  -0.41828  -0.41706
 Alpha  occ. eigenvalues --   -0.41540  -0.41204  -0.40975  -0.40873  -0.40778
 Alpha  occ. eigenvalues --   -0.40720  -0.40537  -0.40057  -0.40008  -0.39733
 Alpha  occ. eigenvalues --   -0.39568  -0.39481  -0.39255  -0.39144  -0.39059
 Alpha  occ. eigenvalues --   -0.38844  -0.38713  -0.38386  -0.38130  -0.38008
 Alpha  occ. eigenvalues --   -0.37926  -0.37730  -0.37707  -0.37468  -0.37377
 Alpha  occ. eigenvalues --   -0.36981  -0.36873  -0.36217  -0.35905  -0.35679
 Alpha  occ. eigenvalues --   -0.35553  -0.35351  -0.34945  -0.34888  -0.34760
 Alpha  occ. eigenvalues --   -0.34341  -0.34083  -0.33639  -0.33571  -0.33097
 Alpha  occ. eigenvalues --   -0.32750  -0.32273  -0.32150  -0.31845  -0.31760
 Alpha  occ. eigenvalues --   -0.31718  -0.31440  -0.31241  -0.30890  -0.30303
 Alpha  occ. eigenvalues --   -0.29866  -0.29266  -0.28769  -0.28669  -0.27048
 Alpha  occ. eigenvalues --   -0.26771  -0.26256  -0.26111  -0.24908  -0.21969
 Alpha  occ. eigenvalues --   -0.20438
 Alpha virt. eigenvalues --   -0.08080  -0.03469   0.00260   0.02626   0.03574
 Alpha virt. eigenvalues --    0.03729   0.04577   0.04922   0.05391   0.05976
 Alpha virt. eigenvalues --    0.07042   0.08882   0.09248   0.09638   0.09646

 Mulliken charges:
               1
     1  Mg   0.817779
     2  C    0.151656
     3  C   -0.174969
     4  C   -0.168840
     5  C   -0.157395
     6  N   -0.622384
     7  C    0.257805
     8  C   -0.152127
     9  C   -0.155602
    10  C    0.309400
    11  C   -0.307302
    12  C   -0.175678
    13  C   -0.260281
    14  C    0.608605
    15  O   -0.465776
    16  O   -0.507327
    17  N   -0.742205
    18  C    0.274936
    19  C    0.140827
    20  C   -0.047346
    21  C    0.345523
    22  C   -0.422764
    23  C   -0.101122
    24  C   -0.242769
    25  N   -0.742719
    26  C    0.321734
    27  C   -0.001517
    28  C    0.056491
    29  C    0.318270
    30  C   -0.386933
    31  C   -0.243515
    32  C   -0.311224
    33  N   -0.706635
    34  C    0.288495
    35  C    0.040824
    36  C   -0.037384
    37  C    0.312141
    38  C   -0.381738
    39  C    0.378746
    40  O   -0.469416
    41  C   -0.321718
    42  C    0.625204
    43  O   -0.545770
    44  O   -0.427104
    45  C   -0.085440
    46  C    0.051423
    47  C   -0.136522
    48  C    0.129254
    49  C   -0.371028
    50  C   -0.201845
    51  C   -0.179437
    52  C   -0.173523
    53  C   -0.052439
    54  C   -0.308765
    55  C   -0.161577
    56  C   -0.159103
    57  C   -0.178361
    58  C   -0.026465
    59  C   -0.329670
    60  C   -0.159989
    61  C   -0.194038
    62  C   -0.155864
    63  C   -0.064164
    64  C   -0.276938
    65  C   -0.296715
    66  H    0.071650
    67  H    0.099762
    68  H    0.057463
    69  H    0.121424
    70  H    0.084507
    71  H    0.117641
    72  H    0.100679
    73  H    0.121547
    74  H    0.081644
    75  H    0.132950
    76  H    0.137557
    77  H    0.138012
    78  H    0.134134
    79  H    0.145750
    80  H    0.105694
    81  H    0.084157
    82  H    0.098892
    83  H    0.101563
    84  H    0.130141
    85  H    0.102651
    86  H    0.123522
    87  H    0.103979
    88  H    0.117566
    89  H    0.083861
    90  H    0.123142
    91  H    0.100923
    92  H    0.123612
    93  H    0.151217
    94  H    0.131634
    95  H    0.161134
    96  H    0.131169
    97  H    0.147978
    98  H    0.131211
    99  H    0.114216
   100  H    0.107499
   101  H    0.075722
   102  H    0.111181
   103  H    0.100726
   104  H    0.126754
   105  H    0.102444
   106  H    0.102972
   107  H    0.105889
   108  H    0.093665
   109  H    0.066865
   110  H    0.101374
   111  H    0.069739
   112  H    0.097738
   113  H    0.119761
   114  H    0.074583
   115  H    0.076633
   116  H    0.077368
   117  H    0.086345
   118  H    0.057131
   119  H    0.071266
   120  H    0.094190
   121  H    0.059967
   122  H    0.106320
   123  H    0.107575
   124  H    0.098754
   125  H    0.105757
   126  H    0.064806
   127  H    0.090532
   128  H    0.101550
   129  H    0.080573
   130  H    0.107817
   131  H    0.082041
   132  H    0.095280
   133  H    0.086780
   134  H    0.101063
   135  H    0.055529
   136  H    0.065937
   137  H    0.119224
 Sum of Mulliken charges =  -0.00000

 Dipole moment (field-independent basis, Debye):
    X=             -0.1744    Y=              4.2971    Z=             -0.0122  Tot=              4.3006
 Quadrupole moment (field-independent basis, Debye-Ang):
   XX=           -354.2883   YY=           -390.9519   ZZ=           -396.8546
   XY=            -23.7556   XZ=             19.6242   YZ=             -0.3974

 Normal termination of Gaussian 16 at Tue Sep 17 10:21:45 2019.
