 Gaussian 16, Revision A.03,
 Gaussian 16:  ES64L-G16RevA.03 25-Dec-2016

 ----------------------------------------------------------------------
 # td=(NStates=1) iop(3/107=0140000000,3/108=0140000000) CAM-B3LYP/6-31
 G(d,p)
 ----------------------------------------------------------------------

 --
 TD
 --
 Symbolic Z-matrix:
 Charge =  0 Multiplicity = 1

                         Standard orientation:
 ---------------------------------------------------------------------
 Center     Atomic      Atomic             Coordinates (Angstroms)
 Number     Number       Type             X           Y           Z
 ---------------------------------------------------------------------
      1         12           0       -7.111851    0.595999    0.163813
      2          6           0       -4.876902   -1.920491    0.599848
      3          6           0       -4.712664    2.817009    1.200357
      4          6           0       -9.430277    3.148993   -0.467117
      5          6           0       -9.609246   -1.688006   -0.746443
      6          7           0       -5.105738    0.423273    0.896971
      7          6           0       -4.301592   -0.733864    0.754692
      8          6           0       -2.907502   -0.477727    1.190059
      9          6           0       -2.959800    1.008531    1.699830
     10          6           0       -4.346101    1.459696    1.121191
     11          6           0       -2.877057    1.275435    3.189392
     12          6           0       -1.860766   -0.504259    0.158978
     13          6           0       -0.468006   -0.435405    0.669854
     14          6           0        0.537308   -0.743249   -0.552523
     15          8           0        0.218642   -1.037315   -1.684701
     16          8           0        1.843066   -0.583129   -0.142732
     17          7           0       -7.099827    2.610728    0.425733
     18          6           0       -6.075408    3.387927    0.894955
     19          6           0       -6.338542    4.760546    0.835294
     20          6           0       -7.657380    4.862664    0.378097
     21          6           0       -8.141660    3.561008    0.135311
     22          6           0       -5.410310    5.974855    0.959398
     23          6           0       -8.475909    6.021934    0.214188
     24          6           0       -8.265041    7.268917    0.743135
     25          7           0       -9.104296    0.731980   -0.484339
     26          6           0       -9.803150    1.835090   -0.749750
     27          6           0      -11.185201    1.480761   -1.261734
     28          6           0      -11.331558    0.177246   -1.335893
     29          6           0       -9.927832   -0.345133   -0.867872
     30          6           0      -12.193738    2.574518   -1.560130
     31          6           0      -12.325912   -0.697674   -1.763232
     32          6           0      -12.083894   -1.154228   -3.230916
     33          7           0       -7.267249   -1.410116   -0.073970
     34          6           0       -8.382406   -2.232735   -0.563868
     35          6           0       -7.881277   -3.627230   -0.515693
     36          6           0       -6.534394   -3.546568   -0.143035
     37          6           0       -6.192870   -2.244679    0.211659
     38          6           0       -8.860900   -4.750251   -0.717789
     39          6           0       -5.442768   -4.448431    0.160231
     40          8           0       -5.155627   -5.630487   -0.031387
     41          6           0       -4.308916   -3.359151    0.523118
     42          6           0       -3.606875   -3.627369    1.885661
     43          8           0       -3.712119   -3.136600    2.918289
     44          8           0       -2.900632   -4.789509    1.733019
     45          6           0       -2.220111   -5.216190    2.861611
     46          6           0        2.844489   -0.764163   -1.222886
     47          6           0        4.176540   -0.364853   -0.387840
     48          6           0        5.108104    0.368347   -0.979881
     49          6           0        4.956957    1.141129   -2.264385
     50          6           0        6.351273    0.473583   -0.209415
     51          6           0        7.710948   -0.103022   -0.993829
     52          6           0        8.832739   -0.178859   -0.072184
     53          6           0       10.095308   -0.636378   -0.835003
     54          6           0       10.044163   -2.126560   -1.197956
     55          6           0       11.408432   -0.261167   -0.023698
     56          6           0       12.774406   -0.431500   -0.762122
     57          6           0       13.984639   -0.048813    0.133256
     58          6           0       15.367837   -0.123944   -0.490073
     59          6           0       15.666366   -1.543623   -1.075889
     60          6           0       16.401400    0.476377    0.458648
     61          6           0       17.749315    0.602757   -0.065147
     62          6           0       18.780445    1.330235    0.705499
     63          6           0       20.218376    1.351651    0.295539
     64          6           0       20.434270    2.031602   -1.087954
     65          6           0       21.142244    1.741355    1.285982
     66          1           0       -4.021406    3.629600    1.441834
     67          1           0      -10.162732    3.855557   -0.792726
     68          1           0      -10.346912   -2.501174   -0.996141
     69          1           0       -2.553016   -1.153633    2.169460
     70          1           0       -2.243135    1.755990    1.110403
     71          1           0       -1.942064    0.740832    3.752233
     72          1           0       -2.853441    2.261716    3.528906
     73          1           0       -3.772289    0.873144    3.805539
     74          1           0       -1.947400   -1.419688   -0.641376
     75          1           0       -2.000576    0.273950   -0.745385
     76          1           0       -0.334667    0.692210    0.816792
     77          1           0       -0.529001   -1.169736    1.525796
     78          1           0       -5.746097    6.700182    0.147024
     79          1           0       -5.480018    6.527480    1.868799
     80          1           0       -4.413552    5.693731    0.707796
     81          1           0       -9.319530    6.115774   -0.514562
     82          1           0       -8.804544    8.174260    0.467087
     83          1           0       -7.491195    7.363173    1.625918
     84          1           0      -11.771444    2.967733   -2.346385
     85          1           0      -13.153322    2.405020   -1.848054
     86          1           0      -12.178561    3.159649   -0.791737
     87          1           0      -12.260237   -1.623044   -1.197878
     88          1           0      -13.432350   -0.387955   -1.781614
     89          1           0      -12.842499   -1.981268   -3.672172
     90          1           0      -12.191607   -0.372173   -4.031344
     91          1           0      -10.969769   -1.850894   -3.307200
     92          1           0       -9.155852   -4.828150   -1.744724
     93          1           0       -8.249953   -5.858535   -0.469148
     94          1           0       -9.542461   -4.910438    0.038184
     95          1           0       -3.547950   -3.508776   -0.288141
     96          1           0       -1.208314   -4.758175    3.280882
     97          1           0       -2.969191   -5.338696    3.603268
     98          1           0       -1.798954   -6.143777    2.413448
     99          1           0        2.736731   -1.736616   -1.440306
    100          1           0        2.808444   -0.040926   -2.017766
    101          1           0        4.324231   -0.937271    0.501798
    102          1           0        3.902255    1.369871   -2.470867
    103          1           0        5.819783    2.096666   -2.465074
    104          1           0        5.307706    0.443416   -3.079627
    105          1           0        6.677643    1.487175    0.123595
    106          1           0        6.285380    0.059713    0.678022
    107          1           0        7.290901   -1.188492   -1.267589
    108          1           0        7.829691    0.540806   -1.853990
    109          1           0        9.012779    0.775843    0.492281
    110          1           0        8.763027   -0.870312    0.864259
    111          1           0       10.180082    0.027854   -1.528473
    112          1           0        8.864301   -2.270133   -1.603337
    113          1           0       10.876135   -2.364073   -1.828663
    114          1           0       10.022451   -2.818956   -0.489181
    115          1           0       11.473210    0.918060    0.229489
    116          1           0       11.383247   -1.069828    0.680333
    117          1           0       12.700015   -1.438149   -1.047541
    118          1           0       12.785604    0.278554   -1.611332
    119          1           0       13.757330    0.882474    0.395144
    120          1           0       13.991865   -0.734129    0.955207
    121          1           0       15.311343    0.520808   -1.535036
    122          1           0       15.700144   -2.242932   -0.318579
    123          1           0       15.075585   -2.087150   -1.838454
    124          1           0       16.656732   -1.393414   -1.357548
    125          1           0       16.067767    1.357287    0.852041
    126          1           0       16.306515   -0.105350    1.252408
    127          1           0       17.978999   -0.467210   -0.351361
    128          1           0       17.651252    1.019811   -1.142957
    129          1           0       18.412932    2.285672    0.758984
    130          1           0       18.659363    0.997671    1.821103
    131          1           0       20.592503    0.197266    0.007574
    132          1           0       20.142906    3.133295   -1.371729
    133          1           0       21.543548    1.967463   -1.593836
    134          1           0       19.881316    1.365642   -1.896391
    135          1           0       20.860594    1.144700    2.330238
    136          1           0       22.142409    1.631893    1.153035
    137          1           0       20.955085    2.872543    1.493779
 ---------------------------------------------------------------------

 SCF Done:  E(RCAM-B3LYP) =  -2933.38459329     A.U. after   16 cycles

 Excitation energies and oscillator strengths:

 Excited State   1:      Singlet-A      1.9202 eV  645.69 nm  f=0.2954  <S**2>=0.000
     240 -> 243       -0.19448
     241 -> 242        0.67691
 This state for optimization and/or second-order correction.
 Total Energy, E(TD-HF/TD-DFT) =  -2933.31402753
 Copying the excited state density for this state as the 1-particle RhoCI density.

 The electronic state is 1-A.
 Alpha  occ. eigenvalues --  -46.80124 -19.21271 -19.19911 -19.17203 -19.16906
 Alpha  occ. eigenvalues --  -19.16211 -14.37553 -14.36478 -14.35462 -14.34960
 Alpha  occ. eigenvalues --  -10.34732 -10.33140 -10.30545 -10.26672 -10.26145
 Alpha  occ. eigenvalues --  -10.25964 -10.25943 -10.25900 -10.25659 -10.25590
 Alpha  occ. eigenvalues --  -10.25421 -10.24872 -10.24493 -10.24444 -10.24364
 Alpha  occ. eigenvalues --  -10.24282 -10.24161 -10.24060 -10.24005 -10.23644
 Alpha  occ. eigenvalues --  -10.23509 -10.23174 -10.23161 -10.23115 -10.22967
 Alpha  occ. eigenvalues --  -10.22883 -10.22724 -10.22721 -10.22719 -10.22662
 Alpha  occ. eigenvalues --  -10.22532 -10.22484 -10.22434 -10.22418 -10.22391
 Alpha  occ. eigenvalues --  -10.22361 -10.22317 -10.22186 -10.21986 -10.21833
 Alpha  occ. eigenvalues --  -10.21441 -10.21360 -10.21321 -10.21091 -10.20761
 Alpha  occ. eigenvalues --  -10.20716 -10.20691 -10.20573 -10.20254 -10.20250
 Alpha  occ. eigenvalues --  -10.19910 -10.18965 -10.18824 -10.18732 -10.18610
 Alpha  occ. eigenvalues --   -3.08630  -1.83579  -1.83112  -1.83019  -1.14569
 Alpha  occ. eigenvalues --   -1.11487  -1.05918  -1.04893  -1.03737  -0.99400
 Alpha  occ. eigenvalues --   -0.98287  -0.97123  -0.95993  -0.87275  -0.86695
 Alpha  occ. eigenvalues --   -0.86253  -0.85598  -0.85402  -0.84933  -0.84176
 Alpha  occ. eigenvalues --   -0.83943  -0.83243  -0.82249  -0.81316  -0.80748
 Alpha  occ. eigenvalues --   -0.80025  -0.79722  -0.78909  -0.78241  -0.77576
 Alpha  occ. eigenvalues --   -0.76389  -0.76102  -0.75638  -0.75150  -0.73828
 Alpha  occ. eigenvalues --   -0.73406  -0.72809  -0.72425  -0.72331  -0.70872
 Alpha  occ. eigenvalues --   -0.70643  -0.70145  -0.69922  -0.68659  -0.68294
 Alpha  occ. eigenvalues --   -0.66435  -0.65604  -0.65242  -0.64294  -0.63847
 Alpha  occ. eigenvalues --   -0.62759  -0.62370  -0.60647  -0.60615  -0.60052
 Alpha  occ. eigenvalues --   -0.59152  -0.59042  -0.58711  -0.58113  -0.57688
 Alpha  occ. eigenvalues --   -0.57150  -0.56535  -0.56233  -0.55339  -0.55006
 Alpha  occ. eigenvalues --   -0.54903  -0.54225  -0.53449  -0.53303  -0.52654
 Alpha  occ. eigenvalues --   -0.52450  -0.52141  -0.51754  -0.51283  -0.50629
 Alpha  occ. eigenvalues --   -0.50505  -0.50396  -0.50035  -0.49657  -0.49616
 Alpha  occ. eigenvalues --   -0.49280  -0.49180  -0.48934  -0.48918  -0.48303
 Alpha  occ. eigenvalues --   -0.48173  -0.47988  -0.47728  -0.47454  -0.47161
 Alpha  occ. eigenvalues --   -0.46905  -0.46676  -0.46576  -0.46100  -0.45920
 Alpha  occ. eigenvalues --   -0.45803  -0.45591  -0.45528  -0.45138  -0.45072
 Alpha  occ. eigenvalues --   -0.44657  -0.44395  -0.44219  -0.44141  -0.43799
 Alpha  occ. eigenvalues --   -0.43626  -0.43221  -0.43125  -0.42932  -0.42582
 Alpha  occ. eigenvalues --   -0.42453  -0.42340  -0.41849  -0.41704  -0.41555
 Alpha  occ. eigenvalues --   -0.41427  -0.41237  -0.41098  -0.40912  -0.40704
 Alpha  occ. eigenvalues --   -0.40506  -0.40360  -0.40287  -0.40201  -0.39719
 Alpha  occ. eigenvalues --   -0.39646  -0.39618  -0.39399  -0.39169  -0.38803
 Alpha  occ. eigenvalues --   -0.38633  -0.38483  -0.38060  -0.37890  -0.37702
 Alpha  occ. eigenvalues --   -0.37445  -0.37383  -0.37272  -0.37083  -0.36816
 Alpha  occ. eigenvalues --   -0.36723  -0.36489  -0.36159  -0.36097  -0.36008
 Alpha  occ. eigenvalues --   -0.35486  -0.35371  -0.35104  -0.34832  -0.34700
 Alpha  occ. eigenvalues --   -0.34241  -0.33845  -0.33552  -0.33248  -0.33031
 Alpha  occ. eigenvalues --   -0.32660  -0.32528  -0.32517  -0.31968  -0.31827
 Alpha  occ. eigenvalues --   -0.31671  -0.31355  -0.31099  -0.30417  -0.30277
 Alpha  occ. eigenvalues --   -0.30190  -0.30011  -0.29242  -0.28700  -0.27242
 Alpha  occ. eigenvalues --   -0.26702  -0.26663  -0.26342  -0.24874  -0.21797
 Alpha  occ. eigenvalues --   -0.20331
 Alpha virt. eigenvalues --   -0.08252  -0.03301  -0.00671   0.02285   0.03797
 Alpha virt. eigenvalues --    0.04296   0.04589   0.04710   0.05173   0.05878
 Alpha virt. eigenvalues --    0.06269   0.08243   0.08805   0.08903   0.09377

 Mulliken charges:
               1
     1  Mg   0.809706
     2  C    0.118663
     3  C   -0.193872
     4  C   -0.172442
     5  C   -0.176320
     6  N   -0.605376
     7  C    0.280431
     8  C   -0.169798
     9  C   -0.118823
    10  C    0.350511
    11  C   -0.306510
    12  C   -0.172940
    13  C   -0.243287
    14  C    0.592588
    15  O   -0.454188
    16  O   -0.482881
    17  N   -0.700242
    18  C    0.294409
    19  C    0.019113
    20  C    0.042834
    21  C    0.264898
    22  C   -0.379779
    23  C   -0.089727
    24  C   -0.251639
    25  N   -0.664157
    26  C    0.346035
    27  C   -0.051920
    28  C    0.143488
    29  C    0.247403
    30  C   -0.349083
    31  C   -0.283252
    32  C   -0.289989
    33  N   -0.730246
    34  C    0.253082
    35  C    0.027652
    36  C    0.013401
    37  C    0.278405
    38  C   -0.391278
    39  C    0.376801
    40  O   -0.456032
    41  C   -0.352093
    42  C    0.597861
    43  O   -0.426905
    44  O   -0.437365
    45  C   -0.083195
    46  C    0.015539
    47  C   -0.146161
    48  C    0.166400
    49  C   -0.374449
    50  C   -0.243336
    51  C   -0.176735
    52  C   -0.171310
    53  C   -0.035172
    54  C   -0.316605
    55  C   -0.189468
    56  C   -0.193157
    57  C   -0.145541
    58  C   -0.069895
    59  C   -0.324422
    60  C   -0.158288
    61  C   -0.176584
    62  C   -0.158806
    63  C   -0.013866
    64  C   -0.314181
    65  C   -0.275462
    66  H    0.075893
    67  H    0.081929
    68  H    0.088940
    69  H    0.118070
    70  H    0.087175
    71  H    0.085467
    72  H    0.123527
    73  H    0.115459
    74  H    0.095376
    75  H    0.094531
    76  H    0.135392
    77  H    0.130455
    78  H    0.127368
    79  H    0.129984
    80  H    0.115390
    81  H    0.089526
    82  H    0.106781
    83  H    0.087150
    84  H    0.138480
    85  H    0.112628
    86  H    0.131733
    87  H    0.119896
    88  H    0.108520
    89  H    0.082937
    90  H    0.115219
    91  H    0.069355
    92  H    0.140416
    93  H    0.098113
    94  H    0.150351
    95  H    0.160147
    96  H    0.088991
    97  H    0.126135
    98  H    0.117917
    99  H    0.136507
   100  H    0.112201
   101  H    0.097848
   102  H    0.129886
   103  H    0.087888
   104  H    0.130407
   105  H    0.086725
   106  H    0.104841
   107  H    0.088731
   108  H    0.105719
   109  H    0.087199
   110  H    0.078130
   111  H    0.091440
   112  H    0.069428
   113  H    0.111421
   114  H    0.121245
   115  H    0.063168
   116  H    0.090461
   117  H    0.088571
   118  H    0.082325
   119  H    0.091346
   120  H    0.085447
   121  H    0.042642
   122  H    0.101106
   123  H    0.108066
   124  H    0.107079
   125  H    0.093508
   126  H    0.101359
   127  H    0.084054
   128  H    0.079614
   129  H    0.107411
   130  H    0.072265
   131  H    0.056189
   132  H    0.094317
   133  H    0.079036
   134  H    0.095471
   135  H    0.068509
   136  H    0.118142
   137  H    0.078598
 Sum of Mulliken charges =  -0.00000

 Dipole moment (field-independent basis, Debye):
    X=             -0.0594    Y=              4.9793    Z=             -0.5649  Tot=              5.0115
 Quadrupole moment (field-independent basis, Debye-Ang):
   XX=           -320.6376   YY=           -396.1162   ZZ=           -399.0776
   XY=            -22.9802   XZ=             19.2025   YZ=             -5.1406

 Normal termination of Gaussian 16 at Sat Sep 14 17:03:01 2019.
