 Gaussian 16, Revision A.03,
 Gaussian 16:  ES64L-G16RevA.03 25-Dec-2016

 ----------------------------------------------------------------------
 # td=(NStates=1) iop(3/107=0140000000,3/108=0140000000) CAM-B3LYP/6-31
 G(d,p)
 ----------------------------------------------------------------------

 --
 TD
 --
 Symbolic Z-matrix:
 Charge =  0 Multiplicity = 1

                         Standard orientation:
 ---------------------------------------------------------------------
 Center     Atomic      Atomic             Coordinates (Angstroms)
 Number     Number       Type             X           Y           Z
 ---------------------------------------------------------------------
      1         12           0       -7.070556    0.610377    0.020668
      2          6           0       -4.879919   -1.925646    0.508072
      3          6           0       -4.794765    2.834382    1.107747
      4          6           0       -9.410445    3.124829   -0.426920
      5          6           0       -9.585993   -1.773532   -0.995303
      6          7           0       -5.048914    0.425897    0.700220
      7          6           0       -4.344181   -0.683451    0.800743
      8          6           0       -2.918234   -0.402941    1.299245
      9          6           0       -2.989331    1.187918    1.775346
     10          6           0       -4.318234    1.541950    0.993251
     11          6           0       -3.109885    1.351426    3.295163
     12          6           0       -1.965056   -0.543502    0.148993
     13          6           0       -0.590383   -0.481649    0.529356
     14          6           0        0.416594   -0.668610   -0.642910
     15          8           0        0.141296   -1.032270   -1.736039
     16          8           0        1.695670   -0.514702   -0.189856
     17          7           0       -7.102841    2.576941    0.384909
     18          6           0       -6.012507    3.407619    0.743267
     19          6           0       -6.430770    4.781021    0.837998
     20          6           0       -7.703185    4.840102    0.328868
     21          6           0       -8.160008    3.528859    0.119621
     22          6           0       -5.613591    5.869044    1.384814
     23          6           0       -8.484124    6.055023    0.058020
     24          6           0       -8.388640    7.263874    0.672443
     25          7           0       -9.051791    0.673913   -0.460983
     26          6           0       -9.764536    1.836084   -0.671638
     27          6           0      -11.092517    1.566352   -1.257068
     28          6           0      -11.205516    0.210618   -1.414333
     29          6           0       -9.913676   -0.406203   -0.956269
     30          6           0      -12.206948    2.534971   -1.485189
     31          6           0      -12.328460   -0.632935   -1.871088
     32          6           0      -12.173160   -1.218844   -3.306914
     33          7           0       -7.232711   -1.342695   -0.180075
     34          6           0       -8.324368   -2.266502   -0.623997
     35          6           0       -7.782835   -3.589054   -0.627065
     36          6           0       -6.535860   -3.525712   -0.095654
     37          6           0       -6.174371   -2.086597    0.050334
     38          6           0       -8.486958   -4.814489   -0.857765
     39          6           0       -5.410955   -4.371204    0.352669
     40          8           0       -5.273811   -5.569719    0.282564
     41          6           0       -4.209969   -3.317645    0.617368
     42          6           0       -3.561558   -3.660599    1.996731
     43          8           0       -3.720722   -2.948642    3.004176
     44          8           0       -2.778228   -4.781477    1.897038
     45          6           0       -2.285039   -5.280037    3.134991
     46          6           0        2.701182   -0.787808   -1.222397
     47          6           0        4.025532   -0.555917   -0.458762
     48          6           0        5.055041    0.149453   -1.004013
     49          6           0        5.129274    0.835058   -2.336210
     50          6           0        6.305042    0.306139   -0.165668
     51          6           0        7.544631   -0.312756   -0.912985
     52          6           0        8.875528   -0.265285   -0.044764
     53          6           0       10.188003   -0.671950   -0.765972
     54          6           0       10.224791   -2.194516   -1.166793
     55          6           0       11.520699   -0.376430    0.038385
     56          6           0       12.747613   -0.436973   -0.699384
     57          6           0       14.010774   -0.027999    0.157490
     58          6           0       15.426117   -0.191669   -0.525434
     59          6           0       15.711242   -1.581283   -1.003936
     60          6           0       16.404761    0.453979    0.323309
     61          6           0       17.781379    0.610960   -0.272055
     62          6           0       18.799875    1.305234    0.724597
     63          6           0       20.292292    1.424871    0.187148
     64          6           0       20.431849    2.313038   -1.133288
     65          6           0       21.131338    2.149862    1.251830
     66          1           0       -4.073364    3.575384    1.671457
     67          1           0      -10.100605    3.855317   -0.449990
     68          1           0      -10.269376   -2.558532   -1.213731
     69          1           0       -2.583861   -0.970729    2.045834
     70          1           0       -2.226517    1.620323    1.349890
     71          1           0       -2.264264    1.063265    3.807583
     72          1           0       -3.213967    2.493771    3.571983
     73          1           0       -3.970904    0.776991    3.754752
     74          1           0       -2.171134   -1.529267   -0.136741
     75          1           0       -2.158490    0.175435   -0.614102
     76          1           0       -0.171912    0.489208    0.824676
     77          1           0       -0.299086   -1.096291    1.246301
     78          1           0       -5.881842    6.563361    0.766659
     79          1           0       -5.770749    6.078624    2.507730
     80          1           0       -4.509829    5.690502    1.396967
     81          1           0       -9.313060    6.132040   -0.802739
     82          1           0       -8.846820    8.123098    0.244421
     83          1           0       -7.823930    7.494106    1.526980
     84          1           0      -11.962557    3.044515   -2.464917
     85          1           0      -13.037922    1.895296   -1.748109
     86          1           0      -12.221086    3.303778   -0.678739
     87          1           0      -12.444643   -1.520588   -1.120921
     88          1           0      -13.177844   -0.075161   -1.799913
     89          1           0      -12.799149   -2.068263   -3.482951
     90          1           0      -12.409640   -0.483866   -4.050797
     91          1           0      -11.361489   -1.850784   -3.482175
     92          1           0       -9.160692   -4.720051   -1.859342
     93          1           0       -7.859821   -5.743501   -0.646650
     94          1           0       -9.414750   -4.893896   -0.148973
     95          1           0       -3.531015   -3.555722   -0.278101
     96          1           0       -1.583169   -4.561248    3.603747
     97          1           0       -2.989285   -5.491285    3.746802
     98          1           0       -1.560315   -6.199898    3.018940
     99          1           0        2.783122   -1.826489   -1.661530
    100          1           0        2.617277   -0.011989   -1.868612
    101          1           0        3.867952   -1.054486    0.553614
    102          1           0        3.992408    0.728543   -2.774847
    103          1           0        5.365457    2.042017   -2.275958
    104          1           0        6.001055    0.505868   -3.184456
    105          1           0        6.474189    1.335532    0.152303
    106          1           0        6.171642   -0.050912    0.795402
    107          1           0        7.392011   -1.168100   -1.016095
    108          1           0        7.750594    0.141279   -1.733827
    109          1           0        9.053262    0.714437    0.508264
    110          1           0        8.772408   -0.834751    0.977469
    111          1           0       10.278728    0.092295   -1.650160
    112          1           0        9.175415   -2.214675   -1.729606
    113          1           0       11.113659   -2.379264   -1.717911
    114          1           0       10.346951   -2.803795   -0.278515
    115          1           0       11.242050    0.574672    0.538390
    116          1           0       11.524023   -1.012926    0.771435
    117          1           0       12.733887   -1.407308   -1.266970
    118          1           0       12.800747    0.038856   -1.862547
    119          1           0       13.924985    0.944003    0.624653
    120          1           0       13.969287   -0.912216    0.875090
    121          1           0       15.607329    0.496729   -1.426682
    122          1           0       15.627167   -2.204005    0.057632
    123          1           0       14.936242   -2.134713   -1.586780
    124          1           0       16.762820   -1.710107   -1.238389
    125          1           0       16.075796    1.428348    0.630641
    126          1           0       16.703615   -0.051009    1.162668
    127          1           0       18.330620   -0.351045   -0.498297
    128          1           0       17.899913    1.092361   -1.203411
    129          1           0       18.586337    2.242791    1.205422
    130          1           0       18.895251    0.655964    1.530219
    131          1           0       20.754242    0.320980   -0.152868
    132          1           0       20.257070    3.305159   -0.998732
    133          1           0       21.526066    2.185799   -1.447216
    134          1           0       19.800857    1.912525   -1.967448
    135          1           0       21.126149    1.731025    2.343858
    136          1           0       22.204698    1.899061    0.757467
    137          1           0       20.699139    3.209588    1.566784
 ---------------------------------------------------------------------

 SCF Done:  E(RCAM-B3LYP) =  -2933.44068252     A.U. after   16 cycles

 Excitation energies and oscillator strengths:

 Excited State   1:      Singlet-A      2.0016 eV  619.42 nm  f=0.2636  <S**2>=0.000
     240 -> 243        0.23570
     241 -> 242        0.66288
 This state for optimization and/or second-order correction.
 Total Energy, E(TD-HF/TD-DFT) =  -2933.36712464
 Copying the excited state density for this state as the 1-particle RhoCI density.

 The electronic state is 1-A.
 Alpha  occ. eigenvalues --  -46.78547 -19.23007 -19.21843 -19.17280 -19.16713
 Alpha  occ. eigenvalues --  -19.16699 -14.37513 -14.35209 -14.35135 -14.34854
 Alpha  occ. eigenvalues --  -10.35681 -10.33871 -10.30865 -10.26858 -10.26521
 Alpha  occ. eigenvalues --  -10.25852 -10.25842 -10.25645 -10.25429 -10.25375
 Alpha  occ. eigenvalues --  -10.25303 -10.24588 -10.24474 -10.24363 -10.24108
 Alpha  occ. eigenvalues --  -10.23975 -10.23621 -10.23492 -10.23356 -10.23243
 Alpha  occ. eigenvalues --  -10.23137 -10.22846 -10.22662 -10.22590 -10.22339
 Alpha  occ. eigenvalues --  -10.22330 -10.22202 -10.22174 -10.22167 -10.22127
 Alpha  occ. eigenvalues --  -10.22085 -10.22028 -10.21876 -10.21807 -10.21617
 Alpha  occ. eigenvalues --  -10.21558 -10.21518 -10.21474 -10.21443 -10.21422
 Alpha  occ. eigenvalues --  -10.21418 -10.21375 -10.21018 -10.20913 -10.20883
 Alpha  occ. eigenvalues --  -10.20782 -10.20549 -10.20390 -10.20387 -10.20137
 Alpha  occ. eigenvalues --  -10.20085 -10.19915 -10.19094 -10.18896 -10.18522
 Alpha  occ. eigenvalues --   -3.07370  -1.82289  -1.81855  -1.81784  -1.13058
 Alpha  occ. eigenvalues --   -1.12474  -1.06813  -1.04965  -1.03894  -0.99419
 Alpha  occ. eigenvalues --   -0.97197  -0.96082  -0.94718  -0.86722  -0.86244
 Alpha  occ. eigenvalues --   -0.86175  -0.85631  -0.84197  -0.84033  -0.83913
 Alpha  occ. eigenvalues --   -0.83539  -0.82930  -0.82204  -0.82140  -0.81129
 Alpha  occ. eigenvalues --   -0.80319  -0.79169  -0.78708  -0.78054  -0.77881
 Alpha  occ. eigenvalues --   -0.76877  -0.76553  -0.75724  -0.74943  -0.73580
 Alpha  occ. eigenvalues --   -0.73369  -0.72591  -0.71449  -0.71004  -0.70529
 Alpha  occ. eigenvalues --   -0.70317  -0.70295  -0.69494  -0.68458  -0.67999
 Alpha  occ. eigenvalues --   -0.67559  -0.66655  -0.66310  -0.64897  -0.63702
 Alpha  occ. eigenvalues --   -0.63513  -0.62350  -0.62061  -0.61160  -0.60946
 Alpha  occ. eigenvalues --   -0.60600  -0.59268  -0.59105  -0.58058  -0.58010
 Alpha  occ. eigenvalues --   -0.57097  -0.56473  -0.56090  -0.55517  -0.55142
 Alpha  occ. eigenvalues --   -0.54355  -0.54219  -0.53616  -0.53216  -0.52752
 Alpha  occ. eigenvalues --   -0.52171  -0.51755  -0.51378  -0.51141  -0.50910
 Alpha  occ. eigenvalues --   -0.50809  -0.50746  -0.50068  -0.49984  -0.49526
 Alpha  occ. eigenvalues --   -0.49371  -0.48805  -0.48541  -0.48432  -0.48382
 Alpha  occ. eigenvalues --   -0.48121  -0.47369  -0.47362  -0.47163  -0.46786
 Alpha  occ. eigenvalues --   -0.46670  -0.46185  -0.46150  -0.45857  -0.45742
 Alpha  occ. eigenvalues --   -0.45505  -0.45396  -0.45240  -0.45103  -0.44760
 Alpha  occ. eigenvalues --   -0.44455  -0.44308  -0.44092  -0.43859  -0.43714
 Alpha  occ. eigenvalues --   -0.43477  -0.43037  -0.42785  -0.42629  -0.42496
 Alpha  occ. eigenvalues --   -0.42416  -0.42273  -0.42058  -0.41940  -0.41642
 Alpha  occ. eigenvalues --   -0.41260  -0.41214  -0.41203  -0.41179  -0.40978
 Alpha  occ. eigenvalues --   -0.40844  -0.40684  -0.40513  -0.40282  -0.39899
 Alpha  occ. eigenvalues --   -0.39846  -0.39732  -0.39600  -0.39283  -0.39236
 Alpha  occ. eigenvalues --   -0.39016  -0.38846  -0.38677  -0.38415  -0.38155
 Alpha  occ. eigenvalues --   -0.37932  -0.37919  -0.37657  -0.37498  -0.37341
 Alpha  occ. eigenvalues --   -0.37280  -0.37057  -0.36727  -0.36614  -0.36559
 Alpha  occ. eigenvalues --   -0.36264  -0.35387  -0.35161  -0.34905  -0.34299
 Alpha  occ. eigenvalues --   -0.33992  -0.33699  -0.33490  -0.33329  -0.33231
 Alpha  occ. eigenvalues --   -0.33056  -0.32918  -0.32862  -0.32119  -0.31778
 Alpha  occ. eigenvalues --   -0.31747  -0.31572  -0.30588  -0.30354  -0.30166
 Alpha  occ. eigenvalues --   -0.30106  -0.29697  -0.29108  -0.28690  -0.27173
 Alpha  occ. eigenvalues --   -0.26867  -0.26654  -0.25368  -0.24617  -0.21719
 Alpha  occ. eigenvalues --   -0.19800
 Alpha virt. eigenvalues --   -0.07172  -0.03620  -0.00125   0.02283   0.02977
 Alpha virt. eigenvalues --    0.03505   0.04633   0.05300   0.05457   0.05854
 Alpha virt. eigenvalues --    0.06878   0.09137   0.09624   0.09637   0.09814

 Mulliken charges:
               1
     1  Mg   0.791801
     2  C    0.074448
     3  C   -0.189397
     4  C   -0.140201
     5  C   -0.168637
     6  N   -0.615135
     7  C    0.345619
     8  C   -0.166878
     9  C   -0.101419
    10  C    0.273960
    11  C   -0.305067
    12  C   -0.152545
    13  C   -0.258358
    14  C    0.580401
    15  O   -0.448592
    16  O   -0.496233
    17  N   -0.699765
    18  C    0.295346
    19  C    0.028788
    20  C    0.038464
    21  C    0.262720
    22  C   -0.363687
    23  C   -0.108198
    24  C   -0.242337
    25  N   -0.686868
    26  C    0.347540
    27  C    0.008029
    28  C    0.061396
    29  C    0.257772
    30  C   -0.370286
    31  C   -0.253962
    32  C   -0.314983
    33  N   -0.760090
    34  C    0.246985
    35  C    0.062965
    36  C    0.001777
    37  C    0.358481
    38  C   -0.406567
    39  C    0.357902
    40  O   -0.444748
    41  C   -0.327355
    42  C    0.620001
    43  O   -0.479155
    44  O   -0.438247
    45  C   -0.080012
    46  C    0.028174
    47  C   -0.145724
    48  C    0.125524
    49  C   -0.344391
    50  C   -0.237457
    51  C   -0.128225
    52  C   -0.206883
    53  C   -0.072878
    54  C   -0.303286
    55  C   -0.155146
    56  C   -0.173474
    57  C   -0.169741
    58  C   -0.031537
    59  C   -0.310695
    60  C   -0.153683
    61  C   -0.209338
    62  C   -0.178214
    63  C   -0.059002
    64  C   -0.301756
    65  C   -0.290553
    66  H    0.071952
    67  H    0.069696
    68  H    0.085487
    69  H    0.103459
    70  H    0.094284
    71  H    0.120326
    72  H    0.085729
    73  H    0.127584
    74  H    0.117605
    75  H    0.113134
    76  H    0.123859
    77  H    0.137788
    78  H    0.132804
    79  H    0.116211
    80  H    0.104706
    81  H    0.085240
    82  H    0.099191
    83  H    0.105279
    84  H    0.120425
    85  H    0.113838
    86  H    0.126222
    87  H    0.095811
    88  H    0.103816
    89  H    0.099335
    90  H    0.116288
    91  H    0.114733
    92  H    0.100646
    93  H    0.152335
    94  H    0.119964
    95  H    0.163332
    96  H    0.116801
    97  H    0.143687
    98  H    0.111627
    99  H    0.134436
   100  H    0.120260
   101  H    0.106969
   102  H    0.087988
   103  H    0.104325
   104  H    0.106652
   105  H    0.096246
   106  H    0.099807
   107  H    0.110481
   108  H    0.102096
   109  H    0.078186
   110  H    0.064097
   111  H    0.071083
   112  H    0.088511
   113  H    0.109703
   114  H    0.109427
   115  H    0.075559
   116  H    0.102694
   117  H    0.083817
   118  H    0.043312
   119  H    0.099006
   120  H    0.090777
   121  H    0.071853
   122  H    0.055969
   123  H    0.115034
   124  H    0.113047
   125  H    0.096507
   126  H    0.093822
   127  H    0.084034
   128  H    0.094976
   129  H    0.083546
   130  H    0.102751
   131  H    0.058183
   132  H    0.115871
   133  H    0.087446
   134  H    0.096217
   135  H    0.085538
   136  H    0.091544
   137  H    0.097644
 Sum of Mulliken charges =  -0.00000

 Dipole moment (field-independent basis, Debye):
    X=              0.9838    Y=              2.9201    Z=              0.6211  Tot=              3.1433
 Quadrupole moment (field-independent basis, Debye-Ang):
   XX=           -353.0509   YY=           -389.2847   ZZ=           -394.5354
   XY=            -14.8059   XZ=             20.1211   YZ=             -2.5726

 Normal termination of Gaussian 16 at Sat Sep 14 01:02:11 2019.
