 Gaussian 16, Revision A.03,
 Gaussian 16:  ES64L-G16RevA.03 25-Dec-2016

 ----------------------------------------------------------------------
 # td=(NStates=1) iop(3/107=0140000000,3/108=0140000000) CAM-B3LYP/6-31
 G(d,p)
 ----------------------------------------------------------------------

 --
 TD
 --
 Symbolic Z-matrix:
 Charge =  0 Multiplicity = 1

                         Standard orientation:
 ---------------------------------------------------------------------
 Center     Atomic      Atomic             Coordinates (Angstroms)
 Number     Number       Type             X           Y           Z
 ---------------------------------------------------------------------
      1         12           0       -7.100021    0.601194    0.051933
      2          6           0       -4.836204   -2.023659    0.549242
      3          6           0       -4.843002    2.835498    1.274438
      4          6           0       -9.409408    3.075538   -0.398447
      5          6           0       -9.556341   -1.705231   -0.822922
      6          7           0       -5.082943    0.462157    0.729362
      7          6           0       -4.268717   -0.756186    0.850659
      8          6           0       -2.901579   -0.447701    1.263572
      9          6           0       -3.047815    1.009867    1.676113
     10          6           0       -4.402376    1.450179    1.183084
     11          6           0       -3.012507    1.363610    3.209218
     12          6           0       -1.983174   -0.597230    0.118499
     13          6           0       -0.442772   -0.320404    0.478644
     14          6           0        0.466231   -0.632018   -0.700618
     15          8           0        0.186993   -1.107574   -1.759893
     16          8           0        1.713914   -0.378961   -0.166586
     17          7           0       -7.113239    2.536480    0.341286
     18          6           0       -6.076825    3.339751    0.773097
     19          6           0       -6.365656    4.721468    0.786748
     20          6           0       -7.721303    4.830762    0.392104
     21          6           0       -8.166830    3.512486    0.057435
     22          6           0       -5.505812    5.915288    1.023173
     23          6           0       -8.579101    6.059802    0.252071
     24          6           0       -8.353862    7.223209    0.804183
     25          7           0       -9.139349    0.636930   -0.380825
     26          6           0       -9.877142    1.710165   -0.609420
     27          6           0      -11.196726    1.408716   -1.123929
     28          6           0      -11.176677    0.054512   -1.297370
     29          6           0       -9.888023   -0.426937   -0.862595
     30          6           0      -12.284952    2.469378   -1.374842
     31          6           0      -12.255673   -0.743468   -1.818264
     32          6           0      -12.249734   -1.161448   -3.225195
     33          7           0       -7.181196   -1.401582   -0.179912
     34          6           0       -8.270036   -2.310790   -0.432337
     35          6           0       -7.791372   -3.671905   -0.546261
     36          6           0       -6.468614   -3.579980   -0.195867
     37          6           0       -6.101405   -2.236080    0.043357
     38          6           0       -8.491846   -4.900108   -0.869164
     39          6           0       -5.274903   -4.336314    0.208188
     40          8           0       -5.224971   -5.632823    0.232486
     41          6           0       -4.137521   -3.382061    0.540368
     42          6           0       -3.540220   -3.731094    1.902723
     43          8           0       -3.672130   -3.215927    2.993899
     44          8           0       -2.707675   -4.697710    1.730633
     45          6           0       -2.045044   -5.203828    3.002293
     46          6           0        2.718627   -0.569913   -1.121391
     47          6           0        4.101255   -0.352368   -0.628545
     48          6           0        5.101480    0.483105   -0.932182
     49          6           0        4.937020    1.495248   -2.124744
     50          6           0        6.364824    0.489302   -0.216339
     51          6           0        7.642653   -0.099003   -0.994649
     52          6           0        8.940809    0.056289   -0.151082
     53          6           0       10.229361   -0.387544   -0.916700
     54          6           0       10.070186   -1.867141   -1.307899
     55          6           0       11.480548   -0.247563   -0.018543
     56          6           0       12.746762   -0.385814   -0.754574
     57          6           0       13.874118   -0.201825    0.176385
     58          6           0       15.252720   -0.243953   -0.481903
     59          6           0       15.522562   -1.659055   -0.925756
     60          6           0       16.361073    0.421863    0.449995
     61          6           0       17.762332    0.412178   -0.194178
     62          6           0       18.773235    1.246920    0.779588
     63          6           0       20.212909    1.250742    0.205590
     64          6           0       20.484452    1.917799   -1.129819
     65          6           0       21.155137    1.807211    1.364293
     66          1           0       -3.808128    3.667756    1.417446
     67          1           0      -10.291051    3.675988   -0.628143
     68          1           0      -10.180473   -2.455535   -0.990060
     69          1           0       -2.717968   -1.017066    2.092157
     70          1           0       -2.383147    1.630217    1.241394
     71          1           0       -2.002988    1.032705    3.538997
     72          1           0       -3.020912    2.333724    3.351596
     73          1           0       -3.738908    0.820903    3.748549
     74          1           0       -1.940412   -1.665365   -0.173210
     75          1           0       -2.269201    0.023967   -0.692451
     76          1           0       -0.362775    0.733520    0.730008
     77          1           0       -0.261499   -0.880735    1.287478
     78          1           0       -5.866690    6.773956    0.427546
     79          1           0       -5.272279    6.285272    2.131547
     80          1           0       -4.449808    5.725280    0.620408
     81          1           0       -9.415495    5.953053   -0.556302
     82          1           0       -9.054862    8.010151    0.258899
     83          1           0       -7.795002    7.408791    1.622768
     84          1           0      -11.947875    3.135618   -2.166522
     85          1           0      -13.103817    1.807875   -2.004171
     86          1           0      -12.606949    3.066061   -0.416100
     87          1           0      -12.392351   -1.725979   -1.342495
     88          1           0      -13.168029   -0.045270   -1.819336
     89          1           0      -13.188495   -1.636238   -3.541560
     90          1           0      -12.252118   -0.331472   -4.070305
     91          1           0      -11.272167   -1.615092   -3.498828
     92          1           0       -8.829228   -4.882753   -1.989488
     93          1           0       -7.846198   -5.803754   -0.818227
     94          1           0       -9.512653   -5.257665   -0.246021
     95          1           0       -3.260513   -3.403324   -0.049181
     96          1           0       -1.253853   -4.488637    3.405946
     97          1           0       -2.933378   -5.102347    3.652238
     98          1           0       -1.669874   -6.101045    2.540808
     99          1           0        2.494441   -1.625561   -1.540723
    100          1           0        2.338583    0.115131   -1.793513
    101          1           0        4.446444   -0.905190    0.159586
    102          1           0        3.939979    1.877829   -2.314770
    103          1           0        5.387563    2.418089   -1.956389
    104          1           0        5.384960    0.995602   -2.961994
    105          1           0        6.703454    1.301634    0.171401
    106          1           0        6.440822   -0.232512    0.665901
    107          1           0        7.640386   -1.094876   -1.213484
    108          1           0        7.693544    0.447254   -2.108045
    109          1           0        9.073258    1.066569    0.206612
    110          1           0        9.042051   -0.731827    0.663088
    111          1           0       10.314034    0.255951   -1.830520
    112          1           0        9.245669   -2.077588   -2.064883
    113          1           0       10.983443   -2.156064   -1.707587
    114          1           0        9.746947   -2.502941   -0.472134
    115          1           0       11.484374    0.784243    0.317958
    116          1           0       11.192891   -0.970621    0.836472
    117          1           0       12.942831   -1.538295   -1.063249
    118          1           0       12.723955    0.342294   -1.470172
    119          1           0       13.735084    1.054557    0.346354
    120          1           0       13.723039   -0.863277    1.118313
    121          1           0       15.082386    0.298589   -1.450386
    122          1           0       15.462132   -2.345331    0.132466
    123          1           0       14.879937   -1.841038   -1.714754
    124          1           0       16.490439   -1.895753   -1.321740
    125          1           0       16.034045    1.393269    0.642866
    126          1           0       16.342507   -0.138676    1.218063
    127          1           0       18.217186   -0.621722   -0.330212
    128          1           0       17.872149    0.905838   -1.357041
    129          1           0       18.527891    2.171901    0.866282
    130          1           0       18.692226    0.706159    1.845983
    131          1           0       20.501818    0.237885    0.029205
    132          1           0       20.125219    3.195746   -1.157150
    133          1           0       21.613758    1.961719   -1.476011
    134          1           0       19.815756    1.370490   -1.896796
    135          1           0       21.296058    1.100798    2.322465
    136          1           0       22.241904    2.231094    1.233551
    137          1           0       20.593503    2.766225    1.785548
 ---------------------------------------------------------------------

 SCF Done:  E(RCAM-B3LYP) =  -2933.45381986     A.U. after   16 cycles

 Excitation energies and oscillator strengths:

 Excited State   1:      Singlet-A      2.0838 eV  595.00 nm  f=0.2474  <S**2>=0.000
     240 -> 243        0.23488
     241 -> 242        0.65929
 This state for optimization and/or second-order correction.
 Total Energy, E(TD-HF/TD-DFT) =  -2933.37724319
 Copying the excited state density for this state as the 1-particle RhoCI density.

 The electronic state is 1-A.
 Alpha  occ. eigenvalues --  -46.79125 -19.21568 -19.21539 -19.18543 -19.15706
 Alpha  occ. eigenvalues --  -19.14435 -14.37621 -14.35251 -14.34843 -14.34840
 Alpha  occ. eigenvalues --  -10.35002 -10.33558 -10.29784 -10.27500 -10.26655
 Alpha  occ. eigenvalues --  -10.26302 -10.26161 -10.25902 -10.25884 -10.24785
 Alpha  occ. eigenvalues --  -10.24773 -10.24373 -10.23946 -10.23789 -10.23757
 Alpha  occ. eigenvalues --  -10.23752 -10.23644 -10.23367 -10.23365 -10.23335
 Alpha  occ. eigenvalues --  -10.23332 -10.23321 -10.23276 -10.22950 -10.22855
 Alpha  occ. eigenvalues --  -10.22649 -10.22636 -10.22503 -10.22403 -10.22335
 Alpha  occ. eigenvalues --  -10.22315 -10.22234 -10.22078 -10.21998 -10.21944
 Alpha  occ. eigenvalues --  -10.21943 -10.21925 -10.21898 -10.21721 -10.21696
 Alpha  occ. eigenvalues --  -10.21653 -10.21637 -10.21377 -10.21330 -10.21186
 Alpha  occ. eigenvalues --  -10.21146 -10.20942 -10.20842 -10.20691 -10.20610
 Alpha  occ. eigenvalues --  -10.20547 -10.20090 -10.20065 -10.19907 -10.19552
 Alpha  occ. eigenvalues --   -3.07849  -1.82777  -1.82318  -1.82275  -1.14174
 Alpha  occ. eigenvalues --   -1.13970  -1.06722  -1.03163  -1.00629  -0.99448
 Alpha  occ. eigenvalues --   -0.99013  -0.96661  -0.96167  -0.87706  -0.86838
 Alpha  occ. eigenvalues --   -0.86294  -0.85860  -0.85142  -0.84296  -0.83986
 Alpha  occ. eigenvalues --   -0.83114  -0.82981  -0.82131  -0.81579  -0.81415
 Alpha  occ. eigenvalues --   -0.80494  -0.79927  -0.79056  -0.78504  -0.78100
 Alpha  occ. eigenvalues --   -0.77444  -0.76223  -0.75556  -0.75175  -0.73691
 Alpha  occ. eigenvalues --   -0.72857  -0.72499  -0.72115  -0.71769  -0.70755
 Alpha  occ. eigenvalues --   -0.70366  -0.70012  -0.69565  -0.68758  -0.67584
 Alpha  occ. eigenvalues --   -0.67437  -0.66324  -0.65241  -0.64933  -0.63898
 Alpha  occ. eigenvalues --   -0.62387  -0.62357  -0.61415  -0.60432  -0.60123
 Alpha  occ. eigenvalues --   -0.59556  -0.59237  -0.58825  -0.58424  -0.57734
 Alpha  occ. eigenvalues --   -0.57548  -0.56985  -0.56436  -0.56091  -0.55681
 Alpha  occ. eigenvalues --   -0.54700  -0.54160  -0.53783  -0.53356  -0.53272
 Alpha  occ. eigenvalues --   -0.52667  -0.52395  -0.52222  -0.51841  -0.51643
 Alpha  occ. eigenvalues --   -0.51249  -0.50891  -0.50705  -0.49902  -0.49540
 Alpha  occ. eigenvalues --   -0.49152  -0.48972  -0.48638  -0.48577  -0.48120
 Alpha  occ. eigenvalues --   -0.47650  -0.47417  -0.47207  -0.47102  -0.46768
 Alpha  occ. eigenvalues --   -0.46444  -0.46407  -0.46239  -0.45998  -0.45776
 Alpha  occ. eigenvalues --   -0.45700  -0.45396  -0.45220  -0.45069  -0.44844
 Alpha  occ. eigenvalues --   -0.44601  -0.44233  -0.44018  -0.43563  -0.43354
 Alpha  occ. eigenvalues --   -0.43265  -0.43201  -0.42940  -0.42816  -0.42598
 Alpha  occ. eigenvalues --   -0.42285  -0.41721  -0.41612  -0.41587  -0.41448
 Alpha  occ. eigenvalues --   -0.41290  -0.40927  -0.40811  -0.40707  -0.40641
 Alpha  occ. eigenvalues --   -0.40579  -0.40218  -0.40152  -0.39908  -0.39842
 Alpha  occ. eigenvalues --   -0.39709  -0.39578  -0.39319  -0.39206  -0.38747
 Alpha  occ. eigenvalues --   -0.38608  -0.38407  -0.38251  -0.38131  -0.37994
 Alpha  occ. eigenvalues --   -0.37628  -0.37525  -0.37329  -0.37208  -0.37098
 Alpha  occ. eigenvalues --   -0.36849  -0.36504  -0.36410  -0.36174  -0.36046
 Alpha  occ. eigenvalues --   -0.35797  -0.35672  -0.35231  -0.35208  -0.34952
 Alpha  occ. eigenvalues --   -0.34462  -0.34389  -0.34065  -0.33910  -0.33737
 Alpha  occ. eigenvalues --   -0.33250  -0.33110  -0.32963  -0.32866  -0.32730
 Alpha  occ. eigenvalues --   -0.32662  -0.32447  -0.31858  -0.31416  -0.30698
 Alpha  occ. eigenvalues --   -0.30291  -0.29876  -0.29309  -0.28133  -0.27052
 Alpha  occ. eigenvalues --   -0.26608  -0.25755  -0.25592  -0.25444  -0.21382
 Alpha  occ. eigenvalues --   -0.20089
 Alpha virt. eigenvalues --   -0.06970  -0.03724  -0.00627   0.02508   0.03646
 Alpha virt. eigenvalues --    0.03883   0.04392   0.04740   0.05524   0.05728
 Alpha virt. eigenvalues --    0.06618   0.08227   0.08341   0.09169   0.09434

 Mulliken charges:
               1
     1  Mg   0.806623
     2  C    0.104510
     3  C   -0.203812
     4  C   -0.186433
     5  C   -0.167525
     6  N   -0.609017
     7  C    0.219225
     8  C   -0.123867
     9  C   -0.166056
    10  C    0.376350
    11  C   -0.305251
    12  C   -0.179624
    13  C   -0.271175
    14  C    0.609561
    15  O   -0.448859
    16  O   -0.472787
    17  N   -0.720293
    18  C    0.334175
    19  C    0.051111
    20  C    0.025232
    21  C    0.285710
    22  C   -0.392745
    23  C   -0.063671
    24  C   -0.226459
    25  N   -0.680806
    26  C    0.302981
    27  C    0.021317
    28  C    0.077232
    29  C    0.333492
    30  C   -0.371173
    31  C   -0.257254
    32  C   -0.307847
    33  N   -0.714160
    34  C    0.202118
    35  C    0.059014
    36  C    0.056275
    37  C    0.264932
    38  C   -0.408261
    39  C    0.356928
    40  O   -0.517865
    41  C   -0.307597
    42  C    0.608070
    43  O   -0.501298
    44  O   -0.435468
    45  C   -0.098676
    46  C    0.035413
    47  C   -0.120290
    48  C    0.125716
    49  C   -0.375886
    50  C   -0.232267
    51  C   -0.175092
    52  C   -0.168150
    53  C   -0.083425
    54  C   -0.315165
    55  C   -0.153471
    56  C   -0.152925
    57  C   -0.144216
    58  C   -0.074732
    59  C   -0.292625
    60  C   -0.137343
    61  C   -0.188876
    62  C   -0.156280
    63  C   -0.041461
    64  C   -0.278938
    65  C   -0.309466
    66  H    0.052058
    67  H    0.068800
    68  H    0.072498
    69  H    0.127068
    70  H    0.098225
    71  H    0.093431
    72  H    0.124829
    73  H    0.132942
    74  H    0.109729
    75  H    0.118937
    76  H    0.130901
    77  H    0.145564
    78  H    0.130797
    79  H    0.109380
    80  H    0.105777
    81  H    0.091162
    82  H    0.089085
    83  H    0.114165
    84  H    0.136444
    85  H    0.093102
    86  H    0.128294
    87  H    0.114752
    88  H    0.091367
    89  H    0.112245
    90  H    0.076335
    91  H    0.108471
    92  H    0.109656
    93  H    0.156695
    94  H    0.097167
    95  H    0.170820
    96  H    0.126471
    97  H    0.162368
    98  H    0.146210
    99  H    0.113117
   100  H    0.109060
   101  H    0.072730
   102  H    0.113071
   103  H    0.114049
   104  H    0.132118
   105  H    0.115240
   106  H    0.092894
   107  H    0.113864
   108  H    0.056584
   109  H    0.087343
   110  H    0.081228
   111  H    0.073171
   112  H    0.094331
   113  H    0.109825
   114  H    0.096384
   115  H    0.087990
   116  H    0.076722
   117  H    0.080718
   118  H    0.104394
   119  H    0.032363
   120  H    0.083015
   121  H    0.072547
   122  H    0.057196
   123  H    0.115389
   124  H    0.103547
   125  H    0.101596
   126  H    0.104587
   127  H    0.092775
   128  H    0.057988
   129  H    0.110719
   130  H    0.078514
   131  H    0.099421
   132  H    0.045250
   133  H    0.105636
   134  H    0.097941
   135  H    0.083760
   136  H    0.089707
   137  H    0.080075
 Sum of Mulliken charges =  -0.00000

 Dipole moment (field-independent basis, Debye):
    X=              2.7229    Y=              5.5637    Z=             -0.3779  Tot=              6.2058
 Quadrupole moment (field-independent basis, Debye-Ang):
   XX=           -352.1769   YY=           -396.8648   ZZ=           -398.9858
   XY=            -37.2195   XZ=             16.4410   YZ=             -4.1669

 Normal termination of Gaussian 16 at Mon Sep 23 10:00:09 2019.
