 Gaussian 09, Revision D.01,
 Gaussian 09:  ES64L-G09RevD.01 24-Apr-2013

 -------------------------------------
 # td=(NStates=1) CAM-B3LYP/6-31G(d,p)
 -------------------------------------

 --
 TD
 --
 Symbolic Z-matrix:
 Charge =  0 Multiplicity = 1

                         Standard orientation:
 ---------------------------------------------------------------------
 Center     Atomic      Atomic             Coordinates (Angstroms)
 Number     Number       Type             X           Y           Z
 ---------------------------------------------------------------------
      1         12           0       -7.100499    0.624219    0.054535
      2          6           0       -4.787201   -1.932479    0.412486
      3          6           0       -4.876783    2.829120    1.037504
      4          6           0       -9.431839    3.091709   -0.414556
      5          6           0       -9.543890   -1.797547   -0.885307
      6          7           0       -5.125487    0.361667    0.708093
      7          6           0       -4.369046   -0.630047    0.823771
      8          6           0       -2.913560   -0.268334    1.175678
      9          6           0       -2.962596    1.177189    1.572433
     10          6           0       -4.398968    1.502863    1.061624
     11          6           0       -2.903607    1.397866    3.100626
     12          6           0       -1.855751   -0.702817    0.006415
     13          6           0       -0.473071   -0.534212    0.473940
     14          6           0        0.566370   -0.682225   -0.620302
     15          8           0        0.208551   -1.011759   -1.794978
     16          8           0        1.861395   -0.579419   -0.296807
     17          7           0       -7.089023    2.722141    0.079815
     18          6           0       -6.076069    3.437079    0.584928
     19          6           0       -6.410306    4.807265    0.706662
     20          6           0       -7.723545    4.971773    0.310387
     21          6           0       -8.138173    3.499408   -0.114103
     22          6           0       -5.507317    5.897760    1.065724
     23          6           0       -8.670475    5.976148    0.379494
     24          6           0       -8.351947    7.171145    1.061705
     25          7           0       -9.116397    0.589743   -0.569508
     26          6           0       -9.896327    1.802639   -0.630906
     27          6           0      -11.200721    1.456037   -1.137475
     28          6           0      -11.254465    0.064002   -1.194214
     29          6           0       -9.930309   -0.403143   -0.870875
     30          6           0      -12.261129    2.427570   -1.362756
     31          6           0      -12.409273   -0.864215   -1.538126
     32          6           0      -12.223367   -1.292497   -3.032591
     33          7           0       -7.256668   -1.400100   -0.147258
     34          6           0       -8.272667   -2.198687   -0.446599
     35          6           0       -7.867886   -3.688758   -0.439071
     36          6           0       -6.451315   -3.562090   -0.020019
     37          6           0       -6.146970   -2.201626    0.085330
     38          6           0       -8.554051   -4.906053   -0.772544
     39          6           0       -5.220422   -4.366025    0.246362
     40          8           0       -5.118470   -5.564147    0.260930
     41          6           0       -4.106374   -3.303408    0.555835
     42          6           0       -3.558311   -3.540578    2.006206
     43          8           0       -3.766301   -3.033689    3.041507
     44          8           0       -2.768489   -4.629327    1.873343
     45          6           0       -2.225326   -5.209567    3.141885
     46          6           0        2.908585   -0.767469   -1.320551
     47          6           0        4.165795   -0.293801   -0.731119
     48          6           0        5.137009    0.411989   -1.153751
     49          6           0        4.911714    1.089125   -2.493443
     50          6           0        6.567666    0.600827   -0.432822
     51          6           0        7.648970   -0.150666   -1.207200
     52          6           0        8.941859   -0.104463   -0.329351
     53          6           0       10.243413   -0.589334   -0.866960
     54          6           0       10.191805   -2.056417   -1.215482
     55          6           0       11.323799   -0.208753    0.020812
     56          6           0       12.721397   -0.466162   -0.667036
     57          6           0       13.888910   -0.037792    0.269144
     58          6           0       15.292272   -0.190324   -0.425277
     59          6           0       15.680766   -1.659419   -0.698416
     60          6           0       16.434582    0.291247    0.625241
     61          6           0       17.800933    0.514308   -0.080651
     62          6           0       18.754054    1.231800    0.803997
     63          6           0       20.145337    1.306882    0.268833
     64          6           0       20.219334    2.101580   -1.043969
     65          6           0       21.017962    1.964312    1.351422
     66          1           0       -4.282768    3.632631    1.325595
     67          1           0      -10.140156    3.813295   -0.600106
     68          1           0      -10.323630   -2.705927   -0.954892
     69          1           0       -2.682339   -0.974894    1.874847
     70          1           0       -2.269539    1.920068    1.188896
     71          1           0       -2.021870    1.123099    3.630439
     72          1           0       -3.020966    2.388989    3.589865
     73          1           0       -3.543065    0.644504    3.663067
     74          1           0       -2.078640   -1.775230   -0.451955
     75          1           0       -2.101675    0.145187   -0.835496
     76          1           0       -0.138429    0.348119    1.142055
     77          1           0       -0.342119   -1.329930    1.248254
     78          1           0       -5.551541    6.819214    0.489530
     79          1           0       -5.831345    6.370462    2.039319
     80          1           0       -4.648528    5.516458    0.988419
     81          1           0       -9.561228    5.824198   -0.269715
     82          1           0       -9.163512    7.988727    1.276497
     83          1           0       -7.370914    7.135113    1.834494
     84          1           0      -11.916675    3.133504   -2.198445
     85          1           0      -13.112050    1.905743   -1.781270
     86          1           0      -12.479713    3.045581   -0.443897
     87          1           0      -12.492833   -1.679341   -0.903648
     88          1           0      -13.386934   -0.179884   -1.507444
     89          1           0      -12.990909   -1.854912   -3.319375
     90          1           0      -11.989312   -0.454979   -3.617154
     91          1           0      -11.279166   -1.758159   -3.360008
     92          1           0       -9.146961   -4.727298   -1.679778
     93          1           0       -7.975763   -5.759835   -0.747447
     94          1           0       -9.383453   -5.212902   -0.012031
     95          1           0       -3.347449   -3.458833   -0.172601
     96          1           0       -2.006804   -4.391900    3.889687
     97          1           0       -3.125558   -5.806535    3.405081
     98          1           0       -1.356894   -5.856387    2.702148
     99          1           0        2.946619   -1.838757   -1.510879
    100          1           0        2.680637   -0.342472   -2.260648
    101          1           0        4.360509   -1.060965    0.154686
    102          1           0        3.841256    1.240455   -2.735387
    103          1           0        5.244093    2.096245   -2.424557
    104          1           0        5.631885    0.691735   -3.343784
    105          1           0        6.878630    1.719660   -0.442253
    106          1           0        6.472626    0.204005    0.740135
    107          1           0        7.433562   -1.023544   -1.646002
    108          1           0        7.927334    0.380490   -2.129641
    109          1           0        8.985635    1.141646   -0.057781
    110          1           0        8.764176   -0.434663    0.484281
    111          1           0       10.330741   -0.050155   -1.872062
    112          1           0        9.526677   -2.168674   -2.195157
    113          1           0       11.227463   -2.305953   -1.412213
    114          1           0        9.716668   -2.643165   -0.238341
    115          1           0       11.160247    0.879224    0.145776
    116          1           0       11.203265   -0.764972    0.980002
    117          1           0       12.879381   -1.504497   -0.756213
    118          1           0       12.600287    0.037351   -1.763890
    119          1           0       13.707339    0.994853    0.588432
    120          1           0       14.097135   -0.686786    1.008028
    121          1           0       15.498197    0.428141   -1.560007
    122          1           0       15.769201   -2.242563    0.086609
    123          1           0       14.948671   -2.156004   -1.363351
    124          1           0       16.659503   -1.902755   -1.114294
    125          1           0       16.224927    1.331102    0.969361
    126          1           0       16.611626   -0.518633    1.361910
    127          1           0       18.325737   -0.614102   -0.298297
    128          1           0       17.517360    1.155132   -1.091193
    129          1           0       18.352969    2.203749    1.002955
    130          1           0       18.768814    0.948014    1.884191
    131          1           0       20.574121    0.214123    0.100914
    132          1           0       20.029678    3.119393   -0.893457
    133          1           0       21.263729    2.311194   -1.295076
    134          1           0       19.584510    1.515417   -1.689092
    135          1           0       21.070105    1.477535    2.505750
    136          1           0       22.103004    1.915954    1.172131
    137          1           0       20.593106    3.090844    1.633294
 ---------------------------------------------------------------------

 SCF Done:  E(RCAM-B3LYP) =  -2932.60460917     A.U. after   18 cycles

 Excitation energies and oscillator strengths:

 Excited State   1:      Singlet-A      1.9671 eV  630.28 nm  f=0.2859  <S**2>=0.000
     240 -> 243       -0.24818
     241 -> 242        0.65243
 This state for optimization and/or second-order correction.
 Total Energy, E(TD-HF/TD-KS) =  -2932.53231883
 Copying the excited state density for this state as the 1-particle RhoCI density.

 The electronic state is 1-A.
 Alpha  occ. eigenvalues --  -46.85372 -19.26530 -19.24992 -19.21732 -19.20881
 Alpha  occ. eigenvalues --  -19.19490 -14.42164 -14.39450 -14.39005 -14.38633
 Alpha  occ. eigenvalues --  -10.39421 -10.39148 -10.35412 -10.32529 -10.31856
 Alpha  occ. eigenvalues --  -10.31106 -10.30843 -10.29844 -10.29803 -10.29430
 Alpha  occ. eigenvalues --  -10.29082 -10.29011 -10.28810 -10.28787 -10.28659
 Alpha  occ. eigenvalues --  -10.28652 -10.28624 -10.28420 -10.28420 -10.28298
 Alpha  occ. eigenvalues --  -10.27873 -10.27756 -10.27696 -10.27576 -10.27351
 Alpha  occ. eigenvalues --  -10.27325 -10.26931 -10.26736 -10.26632 -10.26612
 Alpha  occ. eigenvalues --  -10.26590 -10.26446 -10.26313 -10.26247 -10.26176
 Alpha  occ. eigenvalues --  -10.26106 -10.26015 -10.25751 -10.25736 -10.25722
 Alpha  occ. eigenvalues --  -10.25693 -10.25662 -10.25644 -10.25529 -10.25225
 Alpha  occ. eigenvalues --  -10.25171 -10.25157 -10.25075 -10.25073 -10.24548
 Alpha  occ. eigenvalues --  -10.24324 -10.24071 -10.23710 -10.23370 -10.23196
 Alpha  occ. eigenvalues --   -3.14205  -1.88927  -1.88430  -1.88377  -1.18645
 Alpha  occ. eigenvalues --   -1.16884  -1.12043  -1.09624  -1.06761  -1.05892
 Alpha  occ. eigenvalues --   -1.04287  -1.03303  -1.01620  -0.92319  -0.92161
 Alpha  occ. eigenvalues --   -0.91149  -0.90430  -0.90341  -0.89674  -0.88782
 Alpha  occ. eigenvalues --   -0.88451  -0.87919  -0.87313  -0.86885  -0.86268
 Alpha  occ. eigenvalues --   -0.85688  -0.84027  -0.83271  -0.83228  -0.82655
 Alpha  occ. eigenvalues --   -0.81845  -0.80440  -0.80342  -0.80040  -0.78185
 Alpha  occ. eigenvalues --   -0.76998  -0.76741  -0.76181  -0.76030  -0.75800
 Alpha  occ. eigenvalues --   -0.75675  -0.75135  -0.74577  -0.73824  -0.71933
 Alpha  occ. eigenvalues --   -0.71488  -0.70622  -0.69806  -0.69133  -0.67693
 Alpha  occ. eigenvalues --   -0.67491  -0.66857  -0.66409  -0.64340  -0.64084
 Alpha  occ. eigenvalues --   -0.63721  -0.63343  -0.62753  -0.62584  -0.61637
 Alpha  occ. eigenvalues --   -0.61474  -0.60716  -0.59864  -0.59644  -0.59031
 Alpha  occ. eigenvalues --   -0.58642  -0.58064  -0.57578  -0.57099  -0.56710
 Alpha  occ. eigenvalues --   -0.56501  -0.55624  -0.55404  -0.55104  -0.54949
 Alpha  occ. eigenvalues --   -0.54471  -0.53813  -0.53532  -0.53245  -0.52710
 Alpha  occ. eigenvalues --   -0.52597  -0.52280  -0.52083  -0.51820  -0.51677
 Alpha  occ. eigenvalues --   -0.51562  -0.51528  -0.51304  -0.51132  -0.50897
 Alpha  occ. eigenvalues --   -0.50658  -0.50477  -0.50042  -0.49787  -0.49191
 Alpha  occ. eigenvalues --   -0.49135  -0.48904  -0.48746  -0.48549  -0.48369
 Alpha  occ. eigenvalues --   -0.48111  -0.48092  -0.47719  -0.47458  -0.47404
 Alpha  occ. eigenvalues --   -0.47182  -0.46993  -0.46842  -0.46666  -0.46483
 Alpha  occ. eigenvalues --   -0.45962  -0.45734  -0.45527  -0.45254  -0.44998
 Alpha  occ. eigenvalues --   -0.44846  -0.44725  -0.44510  -0.44443  -0.44103
 Alpha  occ. eigenvalues --   -0.44021  -0.43919  -0.43873  -0.43642  -0.43416
 Alpha  occ. eigenvalues --   -0.43053  -0.42930  -0.42762  -0.42559  -0.42382
 Alpha  occ. eigenvalues --   -0.42315  -0.41818  -0.41735  -0.41401  -0.41253
 Alpha  occ. eigenvalues --   -0.41087  -0.40841  -0.40246  -0.40231  -0.40161
 Alpha  occ. eigenvalues --   -0.39869  -0.39827  -0.39632  -0.39032  -0.38613
 Alpha  occ. eigenvalues --   -0.38554  -0.38104  -0.37998  -0.37934  -0.37811
 Alpha  occ. eigenvalues --   -0.37444  -0.37272  -0.37072  -0.36933  -0.36457
 Alpha  occ. eigenvalues --   -0.36326  -0.35971  -0.35948  -0.35743  -0.35610
 Alpha  occ. eigenvalues --   -0.35381  -0.35357  -0.35158  -0.34504  -0.33261
 Alpha  occ. eigenvalues --   -0.32755  -0.32591  -0.32267  -0.31206  -0.30564
 Alpha  occ. eigenvalues --   -0.30257  -0.28312  -0.27302  -0.26140  -0.22452
 Alpha  occ. eigenvalues --   -0.20173
 Alpha virt. eigenvalues --   -0.06085  -0.03159   0.01441   0.03369   0.05460
 Alpha virt. eigenvalues --    0.05906   0.06477   0.06667   0.06940   0.07956
 Alpha virt. eigenvalues --    0.09217   0.10606   0.11104   0.11355   0.11712

 Mulliken charges:
               1
     1  Mg   0.830691
     2  C   -0.026394
     3  C   -0.179410
     4  C   -0.150091
     5  C   -0.178449
     6  N   -0.609204
     7  C    0.344579
     8  C   -0.151900
     9  C   -0.117713
    10  C    0.295215
    11  C   -0.329937
    12  C   -0.161980
    13  C   -0.261935
    14  C    0.609683
    15  O   -0.507306
    16  O   -0.480678
    17  N   -0.691592
    18  C    0.300509
    19  C    0.003273
    20  C    0.043142
    21  C    0.262366
    22  C   -0.353756
    23  C   -0.082558
    24  C   -0.260573
    25  N   -0.683409
    26  C    0.258546
    27  C    0.038837
    28  C   -0.010366
    29  C    0.318096
    30  C   -0.377878
    31  C   -0.224492
    32  C   -0.316521
    33  N   -0.717533
    34  C    0.294988
    35  C    0.042629
    36  C   -0.036569
    37  C    0.308161
    38  C   -0.399309
    39  C    0.376185
    40  O   -0.442744
    41  C   -0.305213
    42  C    0.604966
    43  O   -0.451894
    44  O   -0.469283
    45  C   -0.098945
    46  C    0.017982
    47  C   -0.121980
    48  C    0.123652
    49  C   -0.380256
    50  C   -0.212007
    51  C   -0.181780
    52  C   -0.129510
    53  C   -0.064702
    54  C   -0.283184
    55  C   -0.162861
    56  C   -0.185736
    57  C   -0.159468
    58  C   -0.061664
    59  C   -0.328494
    60  C   -0.177186
    61  C   -0.165366
    62  C   -0.147804
    63  C   -0.049393
    64  C   -0.302014
    65  C   -0.300697
    66  H    0.058814
    67  H    0.073150
    68  H    0.095397
    69  H    0.118858
    70  H    0.119141
    71  H    0.108790
    72  H    0.112540
    73  H    0.116147
    74  H    0.124637
    75  H    0.099426
    76  H    0.131489
    77  H    0.138621
    78  H    0.134957
    79  H    0.113715
    80  H    0.106313
    81  H    0.100521
    82  H    0.098209
    83  H    0.077546
    84  H    0.112078
    85  H    0.113681
    86  H    0.123363
    87  H    0.113328
    88  H    0.084780
    89  H    0.108727
    90  H    0.114698
    91  H    0.105104
    92  H    0.132059
    93  H    0.160301
    94  H    0.117919
    95  H    0.164357
    96  H    0.144916
    97  H    0.148531
    98  H    0.131386
    99  H    0.133138
   100  H    0.132855
   101  H    0.067626
   102  H    0.122553
   103  H    0.116861
   104  H    0.108287
   105  H    0.106638
   106  H    0.088735
   107  H    0.111992
   108  H    0.093164
   109  H    0.031550
   110  H    0.095754
   111  H    0.069665
   112  H    0.089333
   113  H    0.108733
   114  H    0.073433
   115  H    0.094939
   116  H    0.085669
   117  H    0.109298
   118  H    0.079416
   119  H    0.096504
   120  H    0.108635
   121  H    0.039784
   122  H    0.110376
   123  H    0.093255
   124  H    0.107902
   125  H    0.087514
   126  H    0.098447
   127  H    0.055094
   128  H    0.080399
   129  H    0.091976
   130  H    0.090038
   131  H    0.072574
   132  H    0.106412
   133  H    0.097405
   134  H    0.116771
   135  H    0.063594
   136  H    0.103467
   137  H    0.074954
 Sum of Mulliken charges =   0.00000

 Dipole moment (field-independent basis, Debye):
    X=              3.3855    Y=              2.0943    Z=              1.4256  Tot=              4.2285
 Quadrupole moment (field-independent basis, Debye-Ang):
   XX=           -353.5296   YY=           -394.5458   ZZ=           -397.8300
   XY=             -9.2338   XZ=              9.5767   YZ=             -2.6152

 Normal termination of Gaussian 09 at Wed Jul  3 16:02:05 2019.
