 Gaussian 09, Revision D.01,
 Gaussian 09:  ES64L-G09RevD.01 24-Apr-2013

 -------------------------------------
 # td=(NStates=1) CAM-B3LYP/6-31G(d,p)
 -------------------------------------

 --
 TD
 --
 Symbolic Z-matrix:
 Charge =  0 Multiplicity = 1

                         Standard orientation:
 ---------------------------------------------------------------------
 Center     Atomic      Atomic             Coordinates (Angstroms)
 Number     Number       Type             X           Y           Z
 ---------------------------------------------------------------------
      1         12           0       -7.244448    0.556562    0.112795
      2          6           0       -4.857133   -1.936174    0.509390
      3          6           0       -4.740254    2.896169    1.079997
      4          6           0       -9.385433    3.082517   -0.432821
      5          6           0       -9.516954   -1.744894   -0.752300
      6          7           0       -5.069453    0.506298    0.694169
      7          6           0       -4.332186   -0.678136    0.759153
      8          6           0       -2.927076   -0.409051    1.157527
      9          6           0       -3.004311    1.163212    1.633779
     10          6           0       -4.332009    1.491132    1.077509
     11          6           0       -2.954922    1.253400    3.114370
     12          6           0       -1.907707   -0.690313    0.126617
     13          6           0       -0.410327   -0.472810    0.599815
     14          6           0        0.557800   -0.675166   -0.561575
     15          8           0        0.114848   -0.991275   -1.757123
     16          8           0        1.768819   -0.456988   -0.188270
     17          7           0       -7.045962    2.592176    0.173924
     18          6           0       -6.029418    3.419274    0.708551
     19          6           0       -6.364178    4.795719    0.746986
     20          6           0       -7.746537    4.788444    0.275727
     21          6           0       -8.102251    3.520440   -0.036285
     22          6           0       -5.532497    5.888318    1.144811
     23          6           0       -8.627506    5.932159    0.219588
     24          6           0       -8.640151    7.132843    0.765269
     25          7           0       -9.144217    0.574487   -0.481130
     26          6           0       -9.859653    1.732793   -0.612978
     27          6           0      -11.243013    1.439443   -1.139428
     28          6           0      -11.248186    0.002043   -1.169636
     29          6           0       -9.913829   -0.443510   -0.759272
     30          6           0      -12.325185    2.368062   -1.354977
     31          6           0      -12.238276   -0.784195   -1.756194
     32          6           0      -12.381677   -0.932527   -3.314314
     33          7           0       -7.183195   -1.383942   -0.075061
     34          6           0       -8.350457   -2.286110   -0.393602
     35          6           0       -7.809650   -3.605479   -0.407130
     36          6           0       -6.337694   -3.579794   -0.072750
     37          6           0       -6.165505   -2.245518    0.095320
     38          6           0       -8.462542   -4.930552   -0.768273
     39          6           0       -5.283183   -4.399091    0.263880
     40          8           0       -5.068379   -5.551625    0.128858
     41          6           0       -4.132105   -3.270895    0.608755
     42          6           0       -3.410469   -3.660894    1.842497
     43          8           0       -3.655832   -3.129695    2.836141
     44          8           0       -2.663047   -4.675301    1.726625
     45          6           0       -1.985434   -5.131102    2.971532
     46          6           0        2.838965   -0.553234   -1.192112
     47          6           0        4.123212   -0.322761   -0.505957
     48          6           0        5.147843    0.443668   -0.872982
     49          6           0        5.111440    1.394657   -2.080030
     50          6           0        6.424589    0.395757   -0.088154
     51          6           0        7.578261   -0.148823   -0.925171
     52          6           0        8.929132   -0.104507   -0.086051
     53          6           0       10.151737   -0.598694   -0.927640
     54          6           0        9.948203   -2.101673   -1.442046
     55          6           0       11.392849   -0.259078   -0.141113
     56          6           0       12.766958   -0.500206   -0.823012
     57          6           0       13.848024   -0.137514    0.084316
     58          6           0       15.359550   -0.297366   -0.473279
     59          6           0       15.724772   -1.720381   -0.933190
     60          6           0       16.298553    0.383983    0.433117
     61          6           0       17.686689    0.553585   -0.151496
     62          6           0       18.699726    1.319257    0.861292
     63          6           0       20.222774    1.384894    0.304431
     64          6           0       20.148301    2.246330   -1.081446
     65          6           0       21.328567    1.949452    1.243947
     66          1           0       -3.988384    3.742794    1.472923
     67          1           0      -10.063419    3.964488   -0.527457
     68          1           0      -10.226354   -2.340148   -1.195636
     69          1           0       -2.706056   -0.872985    2.117948
     70          1           0       -2.203093    1.593072    1.289852
     71          1           0       -1.914837    1.087324    3.537643
     72          1           0       -2.845336    2.344177    3.332159
     73          1           0       -3.642184    0.854478    3.990396
     74          1           0       -1.927526   -1.732593   -0.528593
     75          1           0       -1.957646    0.183414   -0.590508
     76          1           0       -0.314874    0.448482    1.148765
     77          1           0       -0.262413   -1.315593    1.347105
     78          1           0       -5.896293    6.716547    0.361967
     79          1           0       -5.697468    6.042003    2.281394
     80          1           0       -4.495155    5.787905    1.011961
     81          1           0       -9.416959    5.555952   -0.454651
     82          1           0       -9.490116    7.802846    0.636316
     83          1           0       -7.855072    7.270155    1.608887
     84          1           0      -12.025497    2.894923   -2.237818
     85          1           0      -13.249933    1.786147   -1.589650
     86          1           0      -12.683039    2.938809   -0.442324
     87          1           0      -12.312232   -1.885583   -1.543110
     88          1           0      -13.146608   -0.237352   -1.409485
     89          1           0      -13.313766   -1.546840   -3.674946
     90          1           0      -12.193089    0.001172   -3.945405
     91          1           0      -11.504255   -1.455552   -3.607609
     92          1           0       -8.653317   -4.961763   -1.884106
     93          1           0       -7.862793   -5.997431   -0.443240
     94          1           0       -9.387412   -5.050777   -0.203437
     95          1           0       -3.588141   -3.207544   -0.320414
     96          1           0       -1.641123   -4.262422    3.603782
     97          1           0       -2.689488   -5.849331    3.567613
     98          1           0       -1.189248   -5.786957    2.555238
     99          1           0        3.063378   -1.493438   -1.572593
    100          1           0        2.672228    0.206549   -2.063534
    101          1           0        4.417029   -0.887384    0.295937
    102          1           0        4.027838    1.380909   -2.355265
    103          1           0        5.467123    2.414808   -1.835398
    104          1           0        5.769949    1.037675   -2.953654
    105          1           0        6.581672    1.449480    0.161523
    106          1           0        6.236887   -0.242968    0.790781
    107          1           0        7.375213   -1.140471   -1.159026
    108          1           0        7.688336    0.325762   -1.866126
    109          1           0        9.367668    0.900818    0.228222
    110          1           0        8.788573   -0.782516    0.641398
    111          1           0       10.041005    0.027576   -1.916120
    112          1           0        8.907946   -2.271765   -2.163552
    113          1           0       10.836223   -2.519048   -1.899349
    114          1           0        9.681268   -2.753687   -0.638894
    115          1           0       11.287065    0.839914    0.054194
    116          1           0       11.297157   -0.786526    0.846547
    117          1           0       12.698936   -1.489819   -1.259801
    118          1           0       12.646920   -0.166202   -1.676241
    119          1           0       13.655197    0.824068    0.286823
    120          1           0       13.917231   -0.789160    1.127693
    121          1           0       15.280161    0.498296   -1.483110
    122          1           0       15.745886   -2.508461    0.054142
    123          1           0       14.984322   -2.048825   -1.732853
    124          1           0       16.642582   -1.649589   -1.311436
    125          1           0       15.775462    1.344504    1.017454
    126          1           0       16.464670   -0.119318    1.366126
    127          1           0       18.067035   -0.429013   -0.497798
    128          1           0       17.552398    1.070799   -1.062942
    129          1           0       18.320503    2.524861    1.132476
    130          1           0       18.865889    0.538994    1.899209
    131          1           0       20.764589    0.445323    0.071181
    132          1           0       19.849601    3.243997   -0.830840
    133          1           0       21.235363    2.353681   -1.394545
    134          1           0       19.631685    1.759091   -1.795424
    135          1           0       21.207727    1.356567    2.211344
    136          1           0       22.199212    1.706669    0.833766
    137          1           0       21.011680    2.910597    1.439662
 ---------------------------------------------------------------------

 SCF Done:  E(RCAM-B3LYP) =  -2932.57587604     A.U. after   18 cycles

 Excitation energies and oscillator strengths:

 Excited State   1:      Singlet-A      1.9888 eV  623.41 nm  f=0.2085  <S**2>=0.000
     240 -> 243       -0.21731
     241 -> 242        0.65500
 This state for optimization and/or second-order correction.
 Total Energy, E(TD-HF/TD-KS) =  -2932.50278842
 Copying the excited state density for this state as the 1-particle RhoCI density.

 The electronic state is 1-A.
 Alpha  occ. eigenvalues --  -46.83294 -19.28862 -19.25700 -19.19724 -19.19689
 Alpha  occ. eigenvalues --  -19.18156 -14.41290 -14.39265 -14.38557 -14.38369
 Alpha  occ. eigenvalues --  -10.39860 -10.36504 -10.33759 -10.33294 -10.32756
 Alpha  occ. eigenvalues --  -10.30727 -10.30215 -10.30119 -10.29512 -10.29391
 Alpha  occ. eigenvalues --  -10.29391 -10.28941 -10.28720 -10.27959 -10.27768
 Alpha  occ. eigenvalues --  -10.27680 -10.27629 -10.27402 -10.27214 -10.27174
 Alpha  occ. eigenvalues --  -10.27106 -10.27020 -10.26993 -10.26976 -10.26971
 Alpha  occ. eigenvalues --  -10.26883 -10.26824 -10.26696 -10.26645 -10.26620
 Alpha  occ. eigenvalues --  -10.26506 -10.26413 -10.26394 -10.26339 -10.26320
 Alpha  occ. eigenvalues --  -10.26270 -10.26207 -10.26190 -10.26172 -10.26161
 Alpha  occ. eigenvalues --  -10.25906 -10.25873 -10.25814 -10.25759 -10.25731
 Alpha  occ. eigenvalues --  -10.25659 -10.25549 -10.25472 -10.25099 -10.25061
 Alpha  occ. eigenvalues --  -10.25030 -10.24067 -10.23743 -10.23346 -10.23037
 Alpha  occ. eigenvalues --   -3.12490  -1.87174  -1.86759  -1.86664  -1.20414
 Alpha  occ. eigenvalues --   -1.19904  -1.12268  -1.10047  -1.04767  -1.04658
 Alpha  occ. eigenvalues --   -1.04263  -1.01481  -1.01155  -0.92281  -0.92143
 Alpha  occ. eigenvalues --   -0.90985  -0.89829  -0.89696  -0.89323  -0.88945
 Alpha  occ. eigenvalues --   -0.88522  -0.87573  -0.87321  -0.86679  -0.86362
 Alpha  occ. eigenvalues --   -0.85377  -0.84741  -0.83890  -0.83102  -0.82383
 Alpha  occ. eigenvalues --   -0.81594  -0.81109  -0.80138  -0.79928  -0.77947
 Alpha  occ. eigenvalues --   -0.77886  -0.77367  -0.76447  -0.76208  -0.75649
 Alpha  occ. eigenvalues --   -0.75615  -0.74925  -0.74560  -0.73282  -0.71899
 Alpha  occ. eigenvalues --   -0.71610  -0.70899  -0.70071  -0.69464  -0.68372
 Alpha  occ. eigenvalues --   -0.67412  -0.66806  -0.66594  -0.65770  -0.64740
 Alpha  occ. eigenvalues --   -0.63980  -0.63324  -0.63009  -0.61787  -0.61758
 Alpha  occ. eigenvalues --   -0.60823  -0.60382  -0.60307  -0.59780  -0.59310
 Alpha  occ. eigenvalues --   -0.58399  -0.58281  -0.57256  -0.56987  -0.56626
 Alpha  occ. eigenvalues --   -0.56092  -0.55842  -0.55324  -0.55093  -0.54852
 Alpha  occ. eigenvalues --   -0.54449  -0.54165  -0.53750  -0.53262  -0.53076
 Alpha  occ. eigenvalues --   -0.52779  -0.52617  -0.52552  -0.52003  -0.51874
 Alpha  occ. eigenvalues --   -0.51445  -0.50976  -0.50886  -0.50641  -0.50407
 Alpha  occ. eigenvalues --   -0.50199  -0.50044  -0.49930  -0.49783  -0.49527
 Alpha  occ. eigenvalues --   -0.49179  -0.49078  -0.48844  -0.48482  -0.48242
 Alpha  occ. eigenvalues --   -0.48051  -0.47948  -0.47854  -0.47649  -0.47007
 Alpha  occ. eigenvalues --   -0.46744  -0.46396  -0.46236  -0.46122  -0.45802
 Alpha  occ. eigenvalues --   -0.45685  -0.45548  -0.45455  -0.45231  -0.45096
 Alpha  occ. eigenvalues --   -0.44893  -0.44786  -0.44661  -0.44447  -0.44188
 Alpha  occ. eigenvalues --   -0.44081  -0.43747  -0.43664  -0.43338  -0.43238
 Alpha  occ. eigenvalues --   -0.43183  -0.42800  -0.42620  -0.42371  -0.42259
 Alpha  occ. eigenvalues --   -0.42134  -0.41978  -0.41806  -0.41593  -0.41361
 Alpha  occ. eigenvalues --   -0.41162  -0.40884  -0.40643  -0.40564  -0.40027
 Alpha  occ. eigenvalues --   -0.39905  -0.39768  -0.39742  -0.39284  -0.38977
 Alpha  occ. eigenvalues --   -0.38554  -0.38151  -0.37891  -0.37815  -0.37708
 Alpha  occ. eigenvalues --   -0.37212  -0.37032  -0.36314  -0.36305  -0.36224
 Alpha  occ. eigenvalues --   -0.36199  -0.36007  -0.35993  -0.35605  -0.35366
 Alpha  occ. eigenvalues --   -0.34933  -0.34294  -0.34099  -0.33013  -0.32980
 Alpha  occ. eigenvalues --   -0.32616  -0.32286  -0.32017  -0.30196  -0.29899
 Alpha  occ. eigenvalues --   -0.28809  -0.28257  -0.27397  -0.26379  -0.22741
 Alpha  occ. eigenvalues --   -0.21002
 Alpha virt. eigenvalues --   -0.06977  -0.02917   0.01572   0.05108   0.05334
 Alpha virt. eigenvalues --    0.06313   0.06757   0.07297   0.07814   0.08885
 Alpha virt. eigenvalues --    0.09672   0.11009   0.11078   0.11166   0.11187

 Mulliken charges:
               1
     1  Mg   0.833598
     2  C    0.061188
     3  C   -0.219494
     4  C   -0.198656
     5  C   -0.171691
     6  N   -0.590251
     7  C    0.285279
     8  C   -0.180411
     9  C   -0.122572
    10  C    0.359884
    11  C   -0.331092
    12  C   -0.161566
    13  C   -0.281369
    14  C    0.615727
    15  O   -0.528998
    16  O   -0.428475
    17  N   -0.717296
    18  C    0.292607
    19  C    0.051881
    20  C   -0.000662
    21  C    0.328582
    22  C   -0.383892
    23  C   -0.032284
    24  C   -0.281033
    25  N   -0.719384
    26  C    0.283404
    27  C    0.023943
    28  C    0.032228
    29  C    0.338067
    30  C   -0.376938
    31  C   -0.268585
    32  C   -0.309541
    33  N   -0.765205
    34  C    0.292525
    35  C   -0.008336
    36  C    0.059302
    37  C    0.328092
    38  C   -0.377087
    39  C    0.329032
    40  O   -0.436303
    41  C   -0.358143
    42  C    0.606752
    43  O   -0.464260
    44  O   -0.430735
    45  C   -0.098387
    46  C    0.008164
    47  C   -0.141324
    48  C    0.109578
    49  C   -0.353967
    50  C   -0.218383
    51  C   -0.188339
    52  C   -0.162385
    53  C   -0.071753
    54  C   -0.314382
    55  C   -0.185824
    56  C   -0.158699
    57  C   -0.145765
    58  C   -0.054327
    59  C   -0.286155
    60  C   -0.158623
    61  C   -0.182485
    62  C   -0.142540
    63  C   -0.081754
    64  C   -0.313298
    65  C   -0.299506
    66  H    0.069637
    67  H    0.088847
    68  H    0.084514
    69  H    0.134836
    70  H    0.101951
    71  H    0.097956
    72  H    0.100251
    73  H    0.132514
    74  H    0.120487
    75  H    0.108216
    76  H    0.129557
    77  H    0.127806
    78  H    0.123235
    79  H    0.124308
    80  H    0.127794
    81  H    0.072940
    82  H    0.111955
    83  H    0.099457
    84  H    0.136417
    85  H    0.110831
    86  H    0.127206
    87  H    0.105476
    88  H    0.100011
    89  H    0.100478
    90  H    0.098325
    91  H    0.114541
    92  H    0.127255
    93  H    0.125138
    94  H    0.121741
    95  H    0.160981
    96  H    0.144383
    97  H    0.130789
    98  H    0.132032
    99  H    0.155765
   100  H    0.129478
   101  H    0.083174
   102  H    0.098603
   103  H    0.116697
   104  H    0.115984
   105  H    0.103425
   106  H    0.093062
   107  H    0.106572
   108  H    0.097770
   109  H    0.084130
   110  H    0.103323
   111  H    0.066804
   112  H    0.067556
   113  H    0.107574
   114  H    0.107589
   115  H    0.085689
   116  H    0.089397
   117  H    0.078542
   118  H    0.099585
   119  H    0.104609
   120  H    0.063374
   121  H    0.031544
   122  H    0.073581
   123  H    0.105107
   124  H    0.118980
   125  H    0.063413
   126  H    0.096189
   127  H    0.101428
   128  H    0.105826
   129  H    0.069775
   130  H    0.049964
   131  H    0.082611
   132  H    0.103784
   133  H    0.080483
   134  H    0.116813
   135  H    0.087238
   136  H    0.115805
   137  H    0.109216
 Sum of Mulliken charges =   0.00000

 Dipole moment (field-independent basis, Debye):
    X=              3.3115    Y=              3.6719    Z=              1.1648  Tot=              5.0799
 Quadrupole moment (field-independent basis, Debye-Ang):
   XX=           -331.0730   YY=           -394.8402   ZZ=           -396.0582
   XY=            -23.2018   XZ=              2.9709   YZ=             -1.1479

 Normal termination of Gaussian 09 at Fri Jul  5 08:32:22 2019.
