 Gaussian 09, Revision D.01,
 Gaussian 09:  ES64L-G09RevD.01 24-Apr-2013

 -------------------------------------
 # td=(NStates=1) CAM-B3LYP/6-31G(d,p)
 -------------------------------------

 --
 TD
 --
 Symbolic Z-matrix:
 Charge =  0 Multiplicity = 1

                         Standard orientation:
 ---------------------------------------------------------------------
 Center     Atomic      Atomic             Coordinates (Angstroms)
 Number     Number       Type             X           Y           Z
 ---------------------------------------------------------------------
      1         12           0       -7.160880    0.616382    0.045290
      2          6           0       -4.866504   -1.946235    0.410787
      3          6           0       -4.758266    2.751138    1.154169
      4          6           0       -9.316632    3.093462   -0.457335
      5          6           0       -9.521560   -1.734733   -0.829410
      6          7           0       -5.121570    0.414945    0.671878
      7          6           0       -4.310847   -0.723011    0.835482
      8          6           0       -2.924883   -0.492105    1.152083
      9          6           0       -2.956729    1.012239    1.560819
     10          6           0       -4.377186    1.413230    1.131144
     11          6           0       -2.619812    1.243277    3.099866
     12          6           0       -1.865564   -0.767684   -0.024203
     13          6           0       -0.414912   -0.431329    0.489384
     14          6           0        0.560186   -0.633830   -0.628247
     15          8           0        0.267815   -0.773262   -1.803666
     16          8           0        1.804702   -0.556848   -0.169749
     17          7           0       -7.118594    2.631566    0.155947
     18          6           0       -5.962540    3.330232    0.763714
     19          6           0       -6.332044    4.720608    0.869553
     20          6           0       -7.592441    4.885313    0.177791
     21          6           0       -8.100058    3.511013   -0.045901
     22          6           0       -5.388194    5.840598    1.299840
     23          6           0       -8.387033    6.061708    0.150635
     24          6           0       -8.352816    7.203390    0.792135
     25          7           0       -9.051453    0.717510   -0.606980
     26          6           0       -9.809352    1.864715   -0.707451
     27          6           0      -11.206709    1.498557   -0.952769
     28          6           0      -11.233988    0.124148   -1.116288
     29          6           0       -9.887546   -0.365017   -0.840799
     30          6           0      -12.264504    2.496366   -1.070685
     31          6           0      -12.462381   -0.574583   -1.629899
     32          6           0      -12.384735   -0.986111   -3.117192
     33          7           0       -7.243943   -1.377433   -0.090072
     34          6           0       -8.288571   -2.190481   -0.519782
     35          6           0       -7.873407   -3.698470   -0.448947
     36          6           0       -6.549352   -3.536874   -0.031927
     37          6           0       -6.190280   -2.169465    0.028714
     38          6           0       -8.691516   -4.893772   -0.714742
     39          6           0       -5.371730   -4.289873    0.201613
     40          8           0       -5.319436   -5.541008    0.210511
     41          6           0       -4.190431   -3.323987    0.521245
     42          6           0       -3.477538   -3.742197    1.765034
     43          8           0       -3.782804   -3.310966    2.878436
     44          8           0       -2.656899   -4.711037    1.515883
     45          6           0       -2.079628   -5.261074    2.746922
     46          6           0        2.875550   -0.736946   -1.204551
     47          6           0        4.037250   -0.458610   -0.532634
     48          6           0        5.084373    0.362159   -0.918484
     49          6           0        5.106942    1.346195   -2.086006
     50          6           0        6.459020    0.461136   -0.127807
     51          6           0        7.584723   -0.153638   -0.999139
     52          6           0        8.832745   -0.093171   -0.126964
     53          6           0       10.175711   -0.633231   -0.882175
     54          6           0       10.031296   -2.046115   -1.409318
     55          6           0       11.364669   -0.359239   -0.008988
     56          6           0       12.730998   -0.438186   -0.657046
     57          6           0       13.775883   -0.105977    0.369182
     58          6           0       15.292562   -0.171569   -0.317361
     59          6           0       15.594865   -1.588489   -0.833828
     60          6           0       16.334111    0.412512    0.521111
     61          6           0       17.822582    0.464012   -0.092563
     62          6           0       18.800028    1.214006    0.713895
     63          6           0       20.266435    1.339756    0.174730
     64          6           0       20.172260    2.114217   -1.161647
     65          6           0       21.170460    1.985544    1.226482
     66          1           0       -3.991336    3.379250    1.286250
     67          1           0      -10.072009    4.007178   -0.519409
     68          1           0      -10.564901   -2.254648   -1.142036
     69          1           0       -2.499863   -1.032345    1.952895
     70          1           0       -2.258278    1.561637    0.996042
     71          1           0       -1.606076    0.967286    3.352008
     72          1           0       -2.791273    2.212922    3.280289
     73          1           0       -3.450961    0.666712    3.688951
     74          1           0       -1.977996   -1.741984   -0.461809
     75          1           0       -1.916121   -0.118817   -0.794806
     76          1           0       -0.491015    0.826689    0.531007
     77          1           0       -0.181785   -0.869616    1.403490
     78          1           0       -5.420037    6.677310    0.594037
     79          1           0       -5.614687    5.967993    2.320107
     80          1           0       -4.357685    5.332461    1.036054
     81          1           0       -9.267275    6.138131   -0.545868
     82          1           0       -9.151356    8.012208    0.519115
     83          1           0       -7.550657    7.226811    1.600347
     84          1           0      -12.022267    3.088877   -1.974322
     85          1           0      -13.203630    1.911501   -1.156493
     86          1           0      -12.378552    3.127941    0.004645
     87          1           0      -12.657789   -1.491212   -1.184627
     88          1           0      -13.479375    0.031733   -1.394034
     89          1           0      -13.385441   -1.665207   -3.326524
     90          1           0      -12.244245   -0.132592   -3.584064
     91          1           0      -11.364311   -1.475932   -3.301618
     92          1           0       -9.133361   -4.717745   -1.612711
     93          1           0       -8.042829   -5.725283   -0.843229
     94          1           0       -9.652765   -5.075220    0.019142
     95          1           0       -3.513703   -3.509027   -0.316367
     96          1           0       -1.778272   -4.421652    3.386126
     97          1           0       -2.720417   -5.780246    3.374404
     98          1           0       -1.197971   -5.805276    2.419164
     99          1           0        2.781882   -1.673836   -1.650099
    100          1           0        2.612254    0.018089   -1.964748
    101          1           0        4.122597   -0.984143    0.374026
    102          1           0        4.258207    1.293052   -2.522965
    103          1           0        5.215651    2.366873   -1.814048
    104          1           0        6.034656    1.231501   -2.824552
    105          1           0        6.673718    1.310809    0.391081
    106          1           0        6.226579   -0.140236    0.805120
    107          1           0        7.290542   -1.264046   -1.161270
    108          1           0        7.693016    0.254794   -1.957578
    109          1           0        8.845862    0.928278    0.172438
    110          1           0        8.588100   -0.725791    0.693142
    111          1           0       10.348841   -0.106687   -1.807910
    112          1           0        9.049010   -1.952923   -2.017026
    113          1           0       10.756755   -2.296739   -2.159560
    114          1           0       10.071277   -2.814389   -0.579142
    115          1           0       11.267814    0.676621    0.432004
    116          1           0       11.375250   -1.129070    0.657822
    117          1           0       12.839792   -1.412517   -0.849922
    118          1           0       12.764176    0.065042   -1.654538
    119          1           0       13.484931    0.804750    0.619886
    120          1           0       13.833674   -0.846651    1.145841
    121          1           0       15.076438    0.458092   -1.173046
    122          1           0       15.011017   -2.343858    0.083406
    123          1           0       14.839830   -1.721757   -1.711668
    124          1           0       16.584171   -1.881467   -1.120658
    125          1           0       16.052192    1.519030    1.043601
    126          1           0       16.317905   -0.303359    1.251471
    127          1           0       18.258128   -0.634505    0.013140
    128          1           0       17.637938    0.703477   -1.141480
    129          1           0       18.470633    2.323184    0.933069
    130          1           0       18.925838    0.660249    1.702063
    131          1           0       20.742437    0.200369    0.069731
    132          1           0       19.927202    3.171744   -1.055773
    133          1           0       21.204993    2.208125   -1.866601
    134          1           0       19.381312    1.762400   -1.908040
    135          1           0       21.316427    1.498180    2.267295
    136          1           0       22.192379    2.257684    0.670986
    137          1           0       20.659515    3.020872    1.524699
 ---------------------------------------------------------------------

 SCF Done:  E(RCAM-B3LYP) =  -2932.66472548     A.U. after   16 cycles

 Excitation energies and oscillator strengths:

 Excited State   1:      Singlet-A      1.9197 eV  645.84 nm  f=0.2563  <S**2>=0.000
     240 -> 243       -0.23695
     241 -> 242        0.65962
 This state for optimization and/or second-order correction.
 Total Energy, E(TD-HF/TD-KS) =  -2932.59417699
 Copying the excited state density for this state as the 1-particle RhoCI density.

 The electronic state is 1-A.
 Alpha  occ. eigenvalues --  -46.83326 -19.27866 -19.26240 -19.20609 -19.20065
 Alpha  occ. eigenvalues --  -19.19648 -14.42242 -14.39948 -14.38743 -14.38557
 Alpha  occ. eigenvalues --  -10.39081 -10.38999 -10.34422 -10.31159 -10.31155
 Alpha  occ. eigenvalues --  -10.30948 -10.30456 -10.30066 -10.29790 -10.29681
 Alpha  occ. eigenvalues --  -10.28999 -10.28918 -10.28850 -10.28847 -10.28303
 Alpha  occ. eigenvalues --  -10.28196 -10.28089 -10.28038 -10.27868 -10.27628
 Alpha  occ. eigenvalues --  -10.27266 -10.27254 -10.27114 -10.27058 -10.26916
 Alpha  occ. eigenvalues --  -10.26893 -10.26858 -10.26619 -10.26590 -10.26530
 Alpha  occ. eigenvalues --  -10.26298 -10.26260 -10.26222 -10.26162 -10.26112
 Alpha  occ. eigenvalues --  -10.26101 -10.26087 -10.25949 -10.25911 -10.25851
 Alpha  occ. eigenvalues --  -10.25837 -10.25766 -10.25705 -10.25703 -10.25665
 Alpha  occ. eigenvalues --  -10.25599 -10.25341 -10.25239 -10.25221 -10.25111
 Alpha  occ. eigenvalues --  -10.25029 -10.24657 -10.24145 -10.23717 -10.23430
 Alpha  occ. eigenvalues --   -3.12577  -1.87267  -1.86825  -1.86764  -1.20105
 Alpha  occ. eigenvalues --   -1.18208  -1.08821  -1.08808  -1.08362  -1.05045
 Alpha  occ. eigenvalues --   -1.03943  -1.02209  -1.00652  -0.92896  -0.91675
 Alpha  occ. eigenvalues --   -0.91140  -0.90251  -0.89614  -0.89261  -0.88340
 Alpha  occ. eigenvalues --   -0.88314  -0.88219  -0.87595  -0.87358  -0.87005
 Alpha  occ. eigenvalues --   -0.85556  -0.84760  -0.84147  -0.83775  -0.82719
 Alpha  occ. eigenvalues --   -0.82186  -0.81993  -0.80970  -0.80471  -0.79031
 Alpha  occ. eigenvalues --   -0.77707  -0.77206  -0.76563  -0.76352  -0.75277
 Alpha  occ. eigenvalues --   -0.74931  -0.74560  -0.74324  -0.73767  -0.72356
 Alpha  occ. eigenvalues --   -0.71594  -0.70758  -0.69417  -0.69061  -0.68602
 Alpha  occ. eigenvalues --   -0.67052  -0.66654  -0.65670  -0.65504  -0.64874
 Alpha  occ. eigenvalues --   -0.64357  -0.64055  -0.63522  -0.62153  -0.61933
 Alpha  occ. eigenvalues --   -0.61681  -0.61013  -0.60212  -0.60102  -0.58835
 Alpha  occ. eigenvalues --   -0.58319  -0.58174  -0.57817  -0.57287  -0.57223
 Alpha  occ. eigenvalues --   -0.56841  -0.56443  -0.55875  -0.55466  -0.55289
 Alpha  occ. eigenvalues --   -0.54895  -0.54575  -0.54300  -0.53835  -0.53606
 Alpha  occ. eigenvalues --   -0.52789  -0.52572  -0.52162  -0.51912  -0.51673
 Alpha  occ. eigenvalues --   -0.51514  -0.51214  -0.51191  -0.50922  -0.50797
 Alpha  occ. eigenvalues --   -0.50390  -0.50062  -0.49930  -0.49704  -0.49666
 Alpha  occ. eigenvalues --   -0.49462  -0.49121  -0.48936  -0.48581  -0.48276
 Alpha  occ. eigenvalues --   -0.48168  -0.47932  -0.47573  -0.47279  -0.47065
 Alpha  occ. eigenvalues --   -0.46966  -0.46827  -0.46572  -0.46177  -0.45976
 Alpha  occ. eigenvalues --   -0.45841  -0.45709  -0.45404  -0.45183  -0.45099
 Alpha  occ. eigenvalues --   -0.44920  -0.44642  -0.44375  -0.44231  -0.44171
 Alpha  occ. eigenvalues --   -0.44008  -0.43927  -0.43652  -0.43435  -0.43028
 Alpha  occ. eigenvalues --   -0.42603  -0.42587  -0.42301  -0.42291  -0.42084
 Alpha  occ. eigenvalues --   -0.42029  -0.41998  -0.41653  -0.41616  -0.41503
 Alpha  occ. eigenvalues --   -0.41212  -0.40855  -0.40763  -0.40653  -0.40524
 Alpha  occ. eigenvalues --   -0.40323  -0.40193  -0.40075  -0.39783  -0.39538
 Alpha  occ. eigenvalues --   -0.38862  -0.38840  -0.38600  -0.38080  -0.37916
 Alpha  occ. eigenvalues --   -0.37448  -0.37255  -0.37141  -0.36987  -0.36817
 Alpha  occ. eigenvalues --   -0.36749  -0.36546  -0.36540  -0.36402  -0.36126
 Alpha  occ. eigenvalues --   -0.35722  -0.35266  -0.34898  -0.33779  -0.33487
 Alpha  occ. eigenvalues --   -0.33254  -0.32451  -0.32294  -0.30632  -0.29806
 Alpha  occ. eigenvalues --   -0.29759  -0.29632  -0.27761  -0.26378  -0.23293
 Alpha  occ. eigenvalues --   -0.20366
 Alpha virt. eigenvalues --   -0.06313  -0.03352   0.00961   0.04383   0.04636
 Alpha virt. eigenvalues --    0.05919   0.06247   0.06647   0.06839   0.07667
 Alpha virt. eigenvalues --    0.08344   0.10361   0.11018   0.11445   0.11502

 Mulliken charges:
               1
     1  Mg   0.808003
     2  C    0.010872
     3  C   -0.202986
     4  C   -0.206724
     5  C   -0.173073
     6  N   -0.622156
     7  C    0.314917
     8  C   -0.148162
     9  C   -0.167579
    10  C    0.360389
    11  C   -0.307103
    12  C   -0.169527
    13  C   -0.272112
    14  C    0.626914
    15  O   -0.494519
    16  O   -0.490956
    17  N   -0.717966
    18  C    0.308946
    19  C   -0.050001
    20  C    0.021647
    21  C    0.353274
    22  C   -0.355672
    23  C   -0.063150
    24  C   -0.262031
    25  N   -0.716750
    26  C    0.326151
    27  C    0.039523
    28  C    0.007111
    29  C    0.284025
    30  C   -0.360017
    31  C   -0.257725
    32  C   -0.290144
    33  N   -0.707821
    34  C    0.241945
    35  C    0.053736
    36  C    0.019062
    37  C    0.327933
    38  C   -0.371558
    39  C    0.338687
    40  O   -0.493001
    41  C   -0.303545
    42  C    0.631424
    43  O   -0.509884
    44  O   -0.424267
    45  C   -0.100078
    46  C    0.006917
    47  C   -0.115658
    48  C    0.076033
    49  C   -0.342468
    50  C   -0.237877
    51  C   -0.183511
    52  C   -0.172822
    53  C   -0.073134
    54  C   -0.314272
    55  C   -0.160696
    56  C   -0.197144
    57  C   -0.172148
    58  C   -0.077450
    59  C   -0.296185
    60  C   -0.146613
    61  C   -0.175380
    62  C   -0.154802
    63  C   -0.032749
    64  C   -0.306026
    65  C   -0.292069
    66  H    0.067316
    67  H    0.082185
    68  H    0.102694
    69  H    0.129358
    70  H    0.107828
    71  H    0.114473
    72  H    0.123103
    73  H    0.114548
    74  H    0.120129
    75  H    0.133121
    76  H    0.113437
    77  H    0.131863
    78  H    0.138424
    79  H    0.141046
    80  H    0.098843
    81  H    0.076341
    82  H    0.103098
    83  H    0.086220
    84  H    0.130654
    85  H    0.105876
    86  H    0.099298
    87  H    0.110982
    88  H    0.086184
    89  H    0.089729
    90  H    0.127149
    91  H    0.099747
    92  H    0.139342
    93  H    0.155783
    94  H    0.117193
    95  H    0.157790
    96  H    0.135881
    97  H    0.154065
    98  H    0.126636
    99  H    0.143984
   100  H    0.131633
   101  H    0.098278
   102  H    0.110888
   103  H    0.126831
   104  H    0.099964
   105  H    0.114183
   106  H    0.086785
   107  H    0.096465
   108  H    0.104742
   109  H    0.096564
   110  H    0.102877
   111  H    0.078485
   112  H    0.095295
   113  H    0.110751
   114  H    0.093488
   115  H    0.076335
   116  H    0.094691
   117  H    0.104039
   118  H    0.081663
   119  H    0.100688
   120  H    0.094520
   121  H    0.081775
   122  H    0.047412
   123  H    0.102807
   124  H    0.122460
   125  H    0.057110
   126  H    0.098772
   127  H    0.077622
   128  H    0.098704
   129  H    0.072636
   130  H    0.088141
   131  H    0.061752
   132  H    0.111118
   133  H    0.066501
   134  H    0.106000
   135  H    0.104474
   136  H    0.092284
   137  H    0.078952
 Sum of Mulliken charges =   0.00000

 Dipole moment (field-independent basis, Debye):
    X=              3.1559    Y=              2.6908    Z=              0.2433  Tot=              4.1544
 Quadrupole moment (field-independent basis, Debye-Ang):
   XX=           -370.0668   YY=           -398.7262   ZZ=           -398.6112
   XY=            -12.0829   XZ=              8.6952   YZ=             -1.7595

 Normal termination of Gaussian 09 at Wed Jul  3 22:39:31 2019.
