 Gaussian 09, Revision D.01,
 Gaussian 09:  ES64L-G09RevD.01 24-Apr-2013

 -------------------------------------
 # td=(NStates=1) CAM-B3LYP/6-31G(d,p)
 -------------------------------------

 --
 TD
 --
 Symbolic Z-matrix:
 Charge =  0 Multiplicity = 1

                         Standard orientation:
 ---------------------------------------------------------------------
 Center     Atomic      Atomic             Coordinates (Angstroms)
 Number     Number       Type             X           Y           Z
 ---------------------------------------------------------------------
      1         12           0       -7.055388    0.522250    0.065490
      2          6           0       -4.833793   -1.935364    0.495910
      3          6           0       -4.792623    2.891541    1.155503
      4          6           0       -9.428901    3.155380   -0.315762
      5          6           0       -9.614422   -1.724471   -0.867270
      6          7           0       -5.063766    0.477112    0.621598
      7          6           0       -4.350636   -0.658016    0.703842
      8          6           0       -2.897114   -0.345187    1.148968
      9          6           0       -3.052663    1.116531    1.614136
     10          6           0       -4.397917    1.559781    1.014879
     11          6           0       -3.084320    1.198438    3.145024
     12          6           0       -1.875398   -0.562699   -0.088001
     13          6           0       -0.486406   -0.404130    0.482163
     14          6           0        0.484987   -0.651922   -0.523561
     15          8           0        0.207561   -1.069861   -1.610664
     16          8           0        1.753069   -0.521622   -0.077921
     17          7           0       -7.088584    2.590661    0.240758
     18          6           0       -6.000080    3.343732    0.710162
     19          6           0       -6.281398    4.711319    0.706430
     20          6           0       -7.630117    4.881334    0.385579
     21          6           0       -8.115571    3.419706    0.035602
     22          6           0       -5.285304    5.861888    1.195615
     23          6           0       -8.519622    6.074711    0.187768
     24          6           0       -8.374137    7.211520    0.827184
     25          7           0       -9.147082    0.695684   -0.561312
     26          6           0       -9.915011    1.824217   -0.722536
     27          6           0      -11.228056    1.530365   -1.113093
     28          6           0      -11.253676    0.162213   -1.258208
     29          6           0       -9.942905   -0.355962   -0.928477
     30          6           0      -12.240865    2.552408   -1.362410
     31          6           0      -12.375721   -0.716754   -1.764095
     32          6           0      -12.271398   -1.058281   -3.269178
     33          7           0       -7.192285   -1.380142   -0.086850
     34          6           0       -8.320218   -2.255343   -0.447714
     35          6           0       -7.883662   -3.547953   -0.412104
     36          6           0       -6.518559   -3.580794   -0.057917
     37          6           0       -6.219918   -2.121353    0.194506
     38          6           0       -8.717388   -4.779900   -0.723217
     39          6           0       -5.330770   -4.353779    0.144046
     40          8           0       -5.232796   -5.568194    0.218032
     41          6           0       -4.228230   -3.311424    0.573839
     42          6           0       -3.578402   -3.649795    1.798379
     43          8           0       -3.845702   -3.138301    2.865941
     44          8           0       -2.756542   -4.766092    1.746673
     45          6           0       -2.180800   -5.247814    2.943130
     46          6           0        2.677703   -0.653059   -1.173600
     47          6           0        4.123895   -0.572366   -0.546194
     48          6           0        5.199218    0.215875   -1.020843
     49          6           0        5.139892    0.987792   -2.284131
     50          6           0        6.338871    0.234306   -0.188428
     51          6           0        7.629118   -0.253193   -0.885847
     52          6           0        8.985989   -0.101174   -0.060207
     53          6           0       10.174787   -0.614866   -0.732055
     54          6           0       10.125219   -2.115204   -1.238454
     55          6           0       11.437776   -0.246220    0.053507
     56          6           0       12.722894   -0.484740   -0.706165
     57          6           0       14.008388   -0.267172    0.275494
     58          6           0       15.409837   -0.259983   -0.418716
     59          6           0       15.748364   -1.540742   -0.988407
     60          6           0       16.416323    0.398786    0.409177
     61          6           0       17.764936    0.641951   -0.278002
     62          6           0       18.830560    1.240877    0.761443
     63          6           0       20.150107    1.485265    0.205921
     64          6           0       20.310330    2.325878   -1.055591
     65          6           0       21.162741    2.067715    1.193683
     66          1           0       -4.040025    3.657763    1.429418
     67          1           0      -10.177974    3.944725   -0.722942
     68          1           0      -10.347297   -2.562632   -1.133713
     69          1           0       -2.517043   -1.123851    1.853606
     70          1           0       -2.225436    1.764776    1.303985
     71          1           0       -2.078815    0.972909    3.435834
     72          1           0       -3.616983    2.191406    3.454230
     73          1           0       -3.567881    0.451014    3.686880
     74          1           0       -1.991846   -1.582431   -0.360241
     75          1           0       -2.034039    0.102407   -0.836733
     76          1           0       -0.261771    0.649169    0.880050
     77          1           0       -0.298153   -1.088160    1.253014
     78          1           0       -5.502915    6.783806    0.851259
     79          1           0       -5.272652    5.990813    2.255179
     80          1           0       -4.180979    5.786972    1.007543
     81          1           0       -9.414989    5.722511   -0.610307
     82          1           0       -9.103258    8.076703    0.900556
     83          1           0       -7.588730    7.208861    1.760246
     84          1           0      -11.841422    3.549131   -1.872683
     85          1           0      -13.142296    2.374067   -1.921409
     86          1           0      -12.473660    2.983009   -0.318588
     87          1           0      -12.459880   -1.624525   -1.215869
     88          1           0      -13.341055   -0.209275   -1.365855
     89          1           0      -13.185837   -1.393228   -3.723378
     90          1           0      -11.929341   -0.126699   -3.819841
     91          1           0      -11.494457   -1.628984   -3.465139
     92          1           0       -9.201244   -4.588648   -1.734986
     93          1           0       -8.132388   -5.665873   -0.763263
     94          1           0       -9.331038   -4.821648    0.161988
     95          1           0       -3.479497   -3.413754   -0.209468
     96          1           0       -1.685221   -4.430030    3.502553
     97          1           0       -3.083112   -5.738470    3.452363
     98          1           0       -1.633772   -5.960170    2.591717
     99          1           0        2.545990   -1.561512   -1.676625
    100          1           0        2.628820    0.190195   -1.913523
    101          1           0        4.277499   -1.188161    0.250904
    102          1           0        4.084122    1.198129   -2.903156
    103          1           0        5.365011    2.070391   -2.337428
    104          1           0        5.649085    0.366022   -3.113299
    105          1           0        6.376385    1.214548    0.294050
    106          1           0        6.227046   -0.273841    0.849578
    107          1           0        7.434600   -1.362895   -1.079133
    108          1           0        7.542444    0.171634   -1.929012
    109          1           0        9.162476    0.989246    0.014558
    110          1           0        9.036422   -0.554856    0.906723
    111          1           0       10.234500   -0.270985   -1.654736
    112          1           0        9.166053   -2.233133   -1.649752
    113          1           0       10.926267   -2.673347   -1.934720
    114          1           0       10.369301   -2.782662   -0.172605
    115          1           0       11.577761    0.709395    0.611145
    116          1           0       11.431923   -0.908913    0.934166
    117          1           0       12.640307   -1.482919   -1.035401
    118          1           0       12.882658    0.235588   -1.823070
    119          1           0       13.644208    0.641890    0.796809
    120          1           0       14.022627   -1.031729    1.153545
    121          1           0       15.188355    0.532977   -1.330281
    122          1           0       15.954062   -2.253242   -0.255506
    123          1           0       14.985294   -2.192510   -1.637970
    124          1           0       16.724712   -1.669857   -1.663321
    125          1           0       16.229871    1.333284    0.937984
    126          1           0       16.689226   -0.338874    1.322631
    127          1           0       18.366771   -0.279312   -0.722582
    128          1           0       17.595650    1.184735   -1.123052
    129          1           0       18.414319    2.192723    1.219604
    130          1           0       18.762114    0.465798    1.577472
    131          1           0       20.529002    0.355604   -0.096783
    132          1           0       19.731319    3.144299   -0.874666
    133          1           0       21.367050    2.593644   -1.298263
    134          1           0       19.732444    1.761315   -1.748823
    135          1           0       21.119069    1.610218    2.232458
    136          1           0       22.349692    1.804217    0.789695
    137          1           0       21.076923    3.260368    1.364386
 ---------------------------------------------------------------------

 SCF Done:  E(RCAM-B3LYP) =  -2932.66536433     A.U. after   17 cycles

 Excitation energies and oscillator strengths:

 Excited State   1:      Singlet-A      2.1327 eV  581.36 nm  f=0.1994  <S**2>=0.000
     240 -> 242       -0.19412
     240 -> 243        0.22887
     241 -> 242        0.61777
     241 -> 243        0.13769
 This state for optimization and/or second-order correction.
 Total Energy, E(TD-HF/TD-KS) =  -2932.58699083
 Copying the excited state density for this state as the 1-particle RhoCI density.

 The electronic state is 1-A.
 Alpha  occ. eigenvalues --  -46.84271 -19.26106 -19.24356 -19.20464 -19.19992
 Alpha  occ. eigenvalues --  -19.19235 -14.42114 -14.39952 -14.39527 -14.38971
 Alpha  occ. eigenvalues --  -10.38165 -10.37991 -10.34464 -10.31867 -10.31147
 Alpha  occ. eigenvalues --  -10.30742 -10.30697 -10.30444 -10.29786 -10.29581
 Alpha  occ. eigenvalues --  -10.29575 -10.29014 -10.28960 -10.28907 -10.28640
 Alpha  occ. eigenvalues --  -10.28347 -10.28297 -10.28277 -10.28033 -10.27847
 Alpha  occ. eigenvalues --  -10.27825 -10.27687 -10.27664 -10.27626 -10.27594
 Alpha  occ. eigenvalues --  -10.27166 -10.27159 -10.27126 -10.27037 -10.27001
 Alpha  occ. eigenvalues --  -10.26854 -10.26812 -10.26748 -10.26519 -10.26497
 Alpha  occ. eigenvalues --  -10.26485 -10.26371 -10.26196 -10.26056 -10.25966
 Alpha  occ. eigenvalues --  -10.25929 -10.25822 -10.25749 -10.25718 -10.25649
 Alpha  occ. eigenvalues --  -10.25630 -10.25566 -10.25487 -10.25399 -10.25233
 Alpha  occ. eigenvalues --  -10.25190 -10.24827 -10.24343 -10.24333 -10.23361
 Alpha  occ. eigenvalues --   -3.13452  -1.88149  -1.87684  -1.87652  -1.18900
 Alpha  occ. eigenvalues --   -1.16628  -1.09843  -1.09762  -1.08190  -1.05798
 Alpha  occ. eigenvalues --   -1.04180  -1.03610  -1.02494  -0.92417  -0.91866
 Alpha  occ. eigenvalues --   -0.91103  -0.90760  -0.90279  -0.89639  -0.89051
 Alpha  occ. eigenvalues --   -0.88638  -0.88314  -0.88099  -0.87492  -0.86626
 Alpha  occ. eigenvalues --   -0.84813  -0.84318  -0.83430  -0.82733  -0.82547
 Alpha  occ. eigenvalues --   -0.81588  -0.81229  -0.80681  -0.79662  -0.78215
 Alpha  occ. eigenvalues --   -0.78057  -0.77447  -0.76724  -0.76364  -0.75925
 Alpha  occ. eigenvalues --   -0.75775  -0.74890  -0.74113  -0.73561  -0.72947
 Alpha  occ. eigenvalues --   -0.72175  -0.71329  -0.70237  -0.68737  -0.68129
 Alpha  occ. eigenvalues --   -0.67150  -0.66806  -0.65643  -0.65077  -0.64450
 Alpha  occ. eigenvalues --   -0.63985  -0.63597  -0.63031  -0.62858  -0.61158
 Alpha  occ. eigenvalues --   -0.60952  -0.60660  -0.60360  -0.59992  -0.59646
 Alpha  occ. eigenvalues --   -0.59036  -0.58386  -0.58030  -0.57570  -0.57341
 Alpha  occ. eigenvalues --   -0.56392  -0.55463  -0.55145  -0.54808  -0.54712
 Alpha  occ. eigenvalues --   -0.54389  -0.54323  -0.54040  -0.53396  -0.53078
 Alpha  occ. eigenvalues --   -0.52893  -0.52649  -0.52303  -0.51940  -0.51653
 Alpha  occ. eigenvalues --   -0.51383  -0.51361  -0.51052  -0.51035  -0.50618
 Alpha  occ. eigenvalues --   -0.50500  -0.50361  -0.50046  -0.49839  -0.49682
 Alpha  occ. eigenvalues --   -0.49433  -0.49206  -0.48671  -0.48627  -0.48516
 Alpha  occ. eigenvalues --   -0.48195  -0.48051  -0.47951  -0.47664  -0.47400
 Alpha  occ. eigenvalues --   -0.47252  -0.47061  -0.46516  -0.46472  -0.46356
 Alpha  occ. eigenvalues --   -0.46135  -0.45980  -0.45668  -0.45494  -0.45439
 Alpha  occ. eigenvalues --   -0.45093  -0.44948  -0.44398  -0.44261  -0.44100
 Alpha  occ. eigenvalues --   -0.43778  -0.43720  -0.43661  -0.43482  -0.43366
 Alpha  occ. eigenvalues --   -0.43315  -0.42995  -0.42725  -0.42467  -0.42221
 Alpha  occ. eigenvalues --   -0.42109  -0.41976  -0.41918  -0.41567  -0.41254
 Alpha  occ. eigenvalues --   -0.40973  -0.40845  -0.40568  -0.40490  -0.40241
 Alpha  occ. eigenvalues --   -0.39809  -0.39781  -0.39735  -0.39419  -0.39159
 Alpha  occ. eigenvalues --   -0.38979  -0.38917  -0.38485  -0.38435  -0.38088
 Alpha  occ. eigenvalues --   -0.37265  -0.37030  -0.36696  -0.36627  -0.36199
 Alpha  occ. eigenvalues --   -0.36143  -0.35904  -0.35382  -0.35240  -0.34921
 Alpha  occ. eigenvalues --   -0.34632  -0.34437  -0.34040  -0.33910  -0.33754
 Alpha  occ. eigenvalues --   -0.33345  -0.32982  -0.32725  -0.31024  -0.29791
 Alpha  occ. eigenvalues --   -0.29145  -0.28403  -0.28227  -0.27777  -0.23544
 Alpha  occ. eigenvalues --   -0.21559
 Alpha virt. eigenvalues --   -0.06420  -0.03525   0.01585   0.04322   0.05175
 Alpha virt. eigenvalues --    0.06005   0.06042   0.06414   0.06839   0.07638
 Alpha virt. eigenvalues --    0.08638   0.10280   0.10991   0.11411   0.11470

 Mulliken charges:
               1
     1  Mg   0.823754
     2  C    0.087084
     3  C   -0.200439
     4  C   -0.174826
     5  C   -0.164793
     6  N   -0.668271
     7  C    0.324176
     8  C   -0.171542
     9  C   -0.152338
    10  C    0.346592
    11  C   -0.307935
    12  C   -0.157928
    13  C   -0.280701
    14  C    0.626792
    15  O   -0.474683
    16  O   -0.486521
    17  N   -0.709940
    18  C    0.339301
    19  C    0.016026
    20  C   -0.025994
    21  C    0.327116
    22  C   -0.379429
    23  C   -0.024196
    24  C   -0.271548
    25  N   -0.665818
    26  C    0.249300
    27  C    0.084338
    28  C   -0.015364
    29  C    0.298598
    30  C   -0.396663
    31  C   -0.239922
    32  C   -0.308257
    33  N   -0.752804
    34  C    0.233667
    35  C   -0.014842
    36  C    0.006726
    37  C    0.323493
    38  C   -0.356790
    39  C    0.345794
    40  O   -0.466373
    41  C   -0.329144
    42  C    0.627503
    43  O   -0.479431
    44  O   -0.482169
    45  C   -0.057335
    46  C    0.023430
    47  C   -0.150000
    48  C    0.142224
    49  C   -0.384168
    50  C   -0.231723
    51  C   -0.205728
    52  C   -0.165413
    53  C   -0.054983
    54  C   -0.312940
    55  C   -0.192854
    56  C   -0.150409
    57  C   -0.185793
    58  C   -0.026596
    59  C   -0.312863
    60  C   -0.161012
    61  C   -0.187429
    62  C   -0.167166
    63  C   -0.040328
    64  C   -0.298513
    65  C   -0.286513
    66  H    0.098576
    67  H    0.084027
    68  H    0.113995
    69  H    0.112092
    70  H    0.098618
    71  H    0.109132
    72  H    0.098830
    73  H    0.140341
    74  H    0.125422
    75  H    0.121314
    76  H    0.124926
    77  H    0.146304
    78  H    0.133068
    79  H    0.129889
    80  H    0.107871
    81  H    0.088620
    82  H    0.116616
    83  H    0.097489
    84  H    0.101288
    85  H    0.126638
    86  H    0.120287
    87  H    0.108507
    88  H    0.089248
    89  H    0.111436
    90  H    0.099465
    91  H    0.123038
    92  H    0.112465
    93  H    0.149962
    94  H    0.136844
    95  H    0.161445
    96  H    0.119525
    97  H    0.120273
    98  H    0.130465
    99  H    0.140640
   100  H    0.106753
   101  H    0.092278
   102  H    0.090421
   103  H    0.125485
   104  H    0.126612
   105  H    0.107243
   106  H    0.093335
   107  H    0.098569
   108  H    0.097372
   109  H    0.105196
   110  H    0.098395
   111  H    0.107142
   112  H    0.114474
   113  H    0.102469
   114  H    0.049844
   115  H    0.087878
   116  H    0.091321
   117  H    0.108459
   118  H    0.038952
   119  H    0.090216
   120  H    0.077448
   121  H    0.058829
   122  H    0.113399
   123  H    0.094947
   124  H    0.091707
   125  H    0.107665
   126  H    0.058000
   127  H    0.074132
   128  H    0.105501
   129  H    0.074698
   130  H    0.100125
   131  H    0.054075
   132  H    0.109475
   133  H    0.108974
   134  H    0.103259
   135  H    0.092382
   136  H    0.066104
   137  H    0.082726
 Sum of Mulliken charges =   0.00000

 Dipole moment (field-independent basis, Debye):
    X=              0.7617    Y=              5.8246    Z=              0.0266  Tot=              5.8743
 Quadrupole moment (field-independent basis, Debye-Ang):
   XX=           -370.3582   YY=           -394.4795   ZZ=           -397.1348
   XY=            -27.7292   XZ=             11.8515   YZ=              3.3953

 Normal termination of Gaussian 09 at Wed Jul  3 07:44:11 2019.
