 Gaussian 16, Revision A.03,
 Gaussian 16:  ES64L-G16RevA.03 25-Dec-2016

 ----------------------------------------------------------------------
 # td=(NStates=1) iop(3/107=0140000000,3/108=0140000000) CAM-B3LYP/6-31
 G(d,p)
 ----------------------------------------------------------------------

 --
 TD
 --
 Symbolic Z-matrix:
 Charge =  0 Multiplicity = 1

                         Standard orientation:
 ---------------------------------------------------------------------
 Center     Atomic      Atomic             Coordinates (Angstroms)
 Number     Number       Type             X           Y           Z
 ---------------------------------------------------------------------
      1         12           0       -7.091708    0.655626    0.067838
      2          6           0       -4.869384   -2.028047    0.499451
      3          6           0       -4.743722    2.796187    1.046978
      4          6           0       -9.414398    3.125383   -0.289819
      5          6           0       -9.535315   -1.662051   -0.825148
      6          7           0       -5.000023    0.337827    0.649547
      7          6           0       -4.351321   -0.817864    0.828736
      8          6           0       -2.920372   -0.448446    1.147790
      9          6           0       -2.984242    1.048007    1.623396
     10          6           0       -4.279576    1.460552    1.038290
     11          6           0       -2.803061    1.150921    3.086998
     12          6           0       -1.947007   -0.727614    0.088838
     13          6           0       -0.425475   -0.597263    0.433802
     14          6           0        0.529198   -0.739765   -0.806162
     15          8           0        0.190017   -0.995747   -1.895159
     16          8           0        1.800163   -0.613961   -0.321466
     17          7           0       -7.133262    2.636395    0.288905
     18          6           0       -6.033377    3.332680    0.738636
     19          6           0       -6.324189    4.714605    0.802842
     20          6           0       -7.705346    4.895745    0.391723
     21          6           0       -8.150406    3.544796    0.062434
     22          6           0       -5.402912    5.765936    1.112600
     23          6           0       -8.492914    6.064182    0.145472
     24          6           0       -8.299347    7.283643    0.602221
     25          7           0       -9.098117    0.718757   -0.456714
     26          6           0       -9.876136    1.863549   -0.523437
     27          6           0      -11.231259    1.643495   -0.927412
     28          6           0      -11.290419    0.218609   -1.149295
     29          6           0       -9.974085   -0.352421   -0.790118
     30          6           0      -12.321371    2.581558   -1.187593
     31          6           0      -12.454531   -0.652549   -1.655778
     32          6           0      -12.346626   -0.914036   -3.086964
     33          7           0       -7.267332   -1.326949    0.004007
     34          6           0       -8.297299   -2.155573   -0.407096
     35          6           0       -7.925729   -3.492146   -0.395721
     36          6           0       -6.549706   -3.522802   -0.014353
     37          6           0       -6.202028   -2.193620    0.188063
     38          6           0       -8.847793   -4.695677   -0.784228
     39          6           0       -5.342061   -4.332822    0.208743
     40          8           0       -5.212922   -5.488165    0.185705
     41          6           0       -4.139060   -3.368967    0.506996
     42          6           0       -3.553419   -3.659081    1.898806
     43          8           0       -3.680452   -3.065783    2.947345
     44          8           0       -2.712352   -4.759915    1.737648
     45          6           0       -2.133737   -5.160500    2.944473
     46          6           0        2.865193   -0.940027   -1.353608
     47          6           0        4.197110   -0.648194   -0.603468
     48          6           0        5.095259    0.135452   -1.094845
     49          6           0        5.030205    0.943838   -2.419252
     50          6           0        6.506888    0.301103   -0.327516
     51          6           0        7.639101   -0.306777   -1.157861
     52          6           0        8.919217   -0.270341   -0.250601
     53          6           0       10.176770   -0.673243   -0.910249
     54          6           0       10.185632   -2.113493   -1.367744
     55          6           0       11.407343   -0.485796   -0.088112
     56          6           0       12.842826   -0.426038   -0.777588
     57          6           0       13.891114   -0.023757    0.207528
     58          6           0       15.237099   -0.053888   -0.490020
     59          6           0       15.613267   -1.501131   -0.951686
     60          6           0       16.447814    0.477998    0.441356
     61          6           0       17.821902    0.625489   -0.071733
     62          6           0       18.775050    1.272898    0.900000
     63          6           0       20.190461    1.565417    0.376038
     64          6           0       20.291572    2.420330   -0.792081
     65          6           0       20.998870    2.088968    1.525589
     66          1           0       -3.998205    3.549385    1.378755
     67          1           0      -10.076795    4.048154   -0.309411
     68          1           0      -10.184210   -2.328542   -1.167776
     69          1           0       -2.717605   -1.032430    2.046639
     70          1           0       -2.083471    1.709233    1.311319
     71          1           0       -1.784302    0.911650    3.419425
     72          1           0       -2.880022    2.357344    3.293337
     73          1           0       -3.615960    0.514667    3.599500
     74          1           0       -1.950321   -1.692131   -0.454700
     75          1           0       -2.406071   -0.007058   -0.778830
     76          1           0       -0.023213    0.236545    1.019149
     77          1           0       -0.263616   -1.385755    1.176747
     78          1           0       -5.823700    6.734678    0.575020
     79          1           0       -5.552828    5.979845    2.181880
     80          1           0       -4.427406    5.705188    0.801752
     81          1           0       -9.284349    5.923472   -0.445311
     82          1           0       -8.999390    7.992235    0.321079
     83          1           0       -7.350209    7.295725    1.398033
     84          1           0      -11.851271    2.976297   -2.290153
     85          1           0      -13.237564    2.066179   -1.316710
     86          1           0      -12.294579    3.360516   -0.513338
     87          1           0      -12.625439   -1.598069   -0.964456
     88          1           0      -13.249883   -0.068725   -1.404016
     89          1           0      -13.150865   -1.448986   -3.492527
     90          1           0      -12.512806    0.059679   -3.765322
     91          1           0      -11.408752   -1.493385   -3.328466
     92          1           0       -9.437827   -4.714566   -1.730372
     93          1           0       -8.245113   -5.577501   -0.758138
     94          1           0       -9.422843   -4.764357    0.050958
     95          1           0       -3.281793   -3.578086   -0.081276
     96          1           0       -1.301966   -4.576550    3.167061
     97          1           0       -3.043761   -5.196421    3.846698
     98          1           0       -1.748319   -6.249579    2.553127
     99          1           0        2.697880   -2.044628   -1.492491
    100          1           0        2.585702   -0.298869   -2.137255
    101          1           0        4.133503   -1.354292    0.191200
    102          1           0        4.084528    0.984021   -2.980515
    103          1           0        5.379271    1.904827   -2.260970
    104          1           0        5.841068    0.512375   -3.131131
    105          1           0        6.510435    1.352463    0.024062
    106          1           0        6.364470   -0.404842    0.524483
    107          1           0        7.418742   -1.383046   -1.321303
    108          1           0        8.054112    0.088332   -2.075423
    109          1           0        9.189342    0.785094    0.042435
    110          1           0        8.736925   -0.730305    0.808393
    111          1           0       10.348280   -0.013161   -1.975029
    112          1           0        9.594470   -2.534742   -2.161656
    113          1           0       11.121628   -2.385185   -1.659852
    114          1           0        9.995684   -2.839336   -0.694997
    115          1           0       11.236064    0.617381    0.368290
    116          1           0       11.446242   -1.205071    0.760050
    117          1           0       12.970803   -1.615041   -1.033518
    118          1           0       12.837489    0.232818   -1.625672
    119          1           0       13.589779    1.037898    0.583031
    120          1           0       13.869993   -0.669526    1.004587
    121          1           0       15.327726    0.460022   -1.496941
    122          1           0       15.930966   -2.384215   -0.033990
    123          1           0       14.830840   -1.893572   -1.639976
    124          1           0       16.423713   -1.311730   -1.487637
    125          1           0       15.964852    1.510027    0.750223
    126          1           0       16.492953   -0.311522    1.300280
    127          1           0       18.201304   -0.534818   -0.075938
    128          1           0       17.890861    1.194875   -1.031310
    129          1           0       18.305146    2.379267    1.033028
    130          1           0       18.813385    0.990753    1.930845
    131          1           0       20.712882    0.484688    0.109573
    132          1           0       19.447578    3.318177   -0.694763
    133          1           0       21.189500    2.783697   -1.142608
    134          1           0       19.974548    1.759642   -1.822789
    135          1           0       20.882481    1.382862    2.489762
    136          1           0       21.918468    2.236791    1.269580
    137          1           0       20.471247    3.003598    1.909532
 ---------------------------------------------------------------------

 SCF Done:  E(RCAM-B3LYP) =  -2933.50290327     A.U. after   16 cycles

 Excitation energies and oscillator strengths:

 Excited State   1:      Singlet-A      2.0900 eV  593.21 nm  f=0.2344  <S**2>=0.000
     240 -> 243       -0.26602
     241 -> 242        0.64560
 This state for optimization and/or second-order correction.
 Total Energy, E(TD-HF/TD-DFT) =  -2933.42609545
 Copying the excited state density for this state as the 1-particle RhoCI density.

 The electronic state is 1-A.
 Alpha  occ. eigenvalues --  -46.78875 -19.21589 -19.20511 -19.17702 -19.16901
 Alpha  occ. eigenvalues --  -19.15772 -14.37042 -14.34588 -14.34415 -14.34319
 Alpha  occ. eigenvalues --  -10.34645 -10.33824 -10.29923 -10.27908 -10.27067
 Alpha  occ. eigenvalues --  -10.26192 -10.25025 -10.24889 -10.24276 -10.24249
 Alpha  occ. eigenvalues --  -10.24101 -10.23756 -10.23633 -10.23564 -10.23540
 Alpha  occ. eigenvalues --  -10.23472 -10.22977 -10.22823 -10.22811 -10.22795
 Alpha  occ. eigenvalues --  -10.22759 -10.22675 -10.22506 -10.22404 -10.22388
 Alpha  occ. eigenvalues --  -10.22378 -10.22368 -10.22348 -10.22283 -10.22201
 Alpha  occ. eigenvalues --  -10.22197 -10.22168 -10.22162 -10.22106 -10.22045
 Alpha  occ. eigenvalues --  -10.21985 -10.21966 -10.21962 -10.21879 -10.21828
 Alpha  occ. eigenvalues --  -10.21756 -10.21690 -10.21505 -10.21451 -10.21385
 Alpha  occ. eigenvalues --  -10.21371 -10.21343 -10.21297 -10.21056 -10.20794
 Alpha  occ. eigenvalues --  -10.20668 -10.20647 -10.20546 -10.19807 -10.17644
 Alpha  occ. eigenvalues --   -3.07531  -1.82469  -1.82000  -1.81942  -1.12817
 Alpha  occ. eigenvalues --   -1.12397  -1.08962  -1.04971  -1.04639  -0.99039
 Alpha  occ. eigenvalues --   -0.97654  -0.97383  -0.95401  -0.87842  -0.86311
 Alpha  occ. eigenvalues --   -0.85626  -0.84972  -0.84433  -0.84318  -0.83995
 Alpha  occ. eigenvalues --   -0.83862  -0.83398  -0.82681  -0.81679  -0.80739
 Alpha  occ. eigenvalues --   -0.80428  -0.79547  -0.79349  -0.78828  -0.78304
 Alpha  occ. eigenvalues --   -0.76693  -0.76101  -0.75673  -0.75248  -0.73403
 Alpha  occ. eigenvalues --   -0.73061  -0.72344  -0.72030  -0.71347  -0.71174
 Alpha  occ. eigenvalues --   -0.70769  -0.70549  -0.69746  -0.68794  -0.68372
 Alpha  occ. eigenvalues --   -0.67136  -0.65388  -0.65185  -0.64355  -0.63587
 Alpha  occ. eigenvalues --   -0.62532  -0.62186  -0.60716  -0.59906  -0.59871
 Alpha  occ. eigenvalues --   -0.59418  -0.58419  -0.58065  -0.57642  -0.57359
 Alpha  occ. eigenvalues --   -0.57001  -0.56543  -0.56225  -0.55957  -0.54696
 Alpha  occ. eigenvalues --   -0.54567  -0.54134  -0.53359  -0.52971  -0.52077
 Alpha  occ. eigenvalues --   -0.51959  -0.51656  -0.51303  -0.51135  -0.50963
 Alpha  occ. eigenvalues --   -0.50658  -0.50298  -0.49898  -0.49627  -0.49334
 Alpha  occ. eigenvalues --   -0.49046  -0.48994  -0.48671  -0.48561  -0.48382
 Alpha  occ. eigenvalues --   -0.47958  -0.47541  -0.47349  -0.47161  -0.46954
 Alpha  occ. eigenvalues --   -0.46764  -0.46521  -0.46361  -0.46321  -0.46292
 Alpha  occ. eigenvalues --   -0.45935  -0.45834  -0.45388  -0.45169  -0.44963
 Alpha  occ. eigenvalues --   -0.44642  -0.44389  -0.44252  -0.44048  -0.43922
 Alpha  occ. eigenvalues --   -0.43712  -0.43612  -0.43312  -0.42681  -0.42520
 Alpha  occ. eigenvalues --   -0.42061  -0.41874  -0.41780  -0.41661  -0.41609
 Alpha  occ. eigenvalues --   -0.41456  -0.41404  -0.41132  -0.40927  -0.40903
 Alpha  occ. eigenvalues --   -0.40865  -0.40738  -0.40590  -0.40395  -0.39978
 Alpha  occ. eigenvalues --   -0.39854  -0.39720  -0.39407  -0.39342  -0.38844
 Alpha  occ. eigenvalues --   -0.38776  -0.38500  -0.38198  -0.38070  -0.38020
 Alpha  occ. eigenvalues --   -0.37634  -0.37506  -0.37099  -0.36963  -0.36756
 Alpha  occ. eigenvalues --   -0.36741  -0.36655  -0.36311  -0.36183  -0.35687
 Alpha  occ. eigenvalues --   -0.35258  -0.35138  -0.34969  -0.34817  -0.34494
 Alpha  occ. eigenvalues --   -0.34380  -0.34032  -0.33554  -0.33364  -0.33336
 Alpha  occ. eigenvalues --   -0.33077  -0.32743  -0.32539  -0.32463  -0.32102
 Alpha  occ. eigenvalues --   -0.31859  -0.31737  -0.31393  -0.30793  -0.30691
 Alpha  occ. eigenvalues --   -0.30424  -0.29847  -0.29571  -0.28408  -0.28372
 Alpha  occ. eigenvalues --   -0.26618  -0.26378  -0.24562  -0.23974  -0.21165
 Alpha  occ. eigenvalues --   -0.20239
 Alpha virt. eigenvalues --   -0.07057  -0.03597   0.00614   0.02586   0.03937
 Alpha virt. eigenvalues --    0.04926   0.05262   0.05421   0.05710   0.06607
 Alpha virt. eigenvalues --    0.07071   0.08920   0.09734   0.09766   0.09840

 Mulliken charges:
               1
     1  Mg   0.802176
     2  C    0.069442
     3  C   -0.199360
     4  C   -0.180252
     5  C   -0.161406
     6  N   -0.641404
     7  C    0.302639
     8  C   -0.177352
     9  C   -0.146220
    10  C    0.367018
    11  C   -0.287730
    12  C   -0.142841
    13  C   -0.279735
    14  C    0.602869
    15  O   -0.438832
    16  O   -0.501998
    17  N   -0.744846
    18  C    0.354532
    19  C    0.021122
    20  C    0.023094
    21  C    0.279690
    22  C   -0.407739
    23  C   -0.038687
    24  C   -0.248458
    25  N   -0.693806
    26  C    0.337025
    27  C    0.035508
    28  C   -0.017934
    29  C    0.307469
    30  C   -0.346971
    31  C   -0.225138
    32  C   -0.296748
    33  N   -0.749868
    34  C    0.313444
    35  C   -0.032167
    36  C    0.017695
    37  C    0.304153
    38  C   -0.374706
    39  C    0.355201
    40  O   -0.417005
    41  C   -0.313047
    42  C    0.611173
    43  O   -0.457997
    44  O   -0.441864
    45  C   -0.072347
    46  C   -0.008855
    47  C   -0.100312
    48  C    0.092472
    49  C   -0.362535
    50  C   -0.227582
    51  C   -0.169719
    52  C   -0.164727
    53  C   -0.033721
    54  C   -0.326380
    55  C   -0.174115
    56  C   -0.173546
    57  C   -0.133656
    58  C   -0.078079
    59  C   -0.291149
    60  C   -0.150648
    61  C   -0.157868
    62  C   -0.153510
    63  C   -0.024823
    64  C   -0.280614
    65  C   -0.286049
    66  H    0.076498
    67  H    0.072615
    68  H    0.060676
    69  H    0.112541
    70  H    0.094455
    71  H    0.117020
    72  H    0.073525
    73  H    0.118182
    74  H    0.114328
    75  H    0.083886
    76  H    0.122792
    77  H    0.129627
    78  H    0.109168
    79  H    0.132231
    80  H    0.126097
    81  H    0.078599
    82  H    0.100043
    83  H    0.085990
    84  H    0.104631
    85  H    0.123747
    86  H    0.132226
    87  H    0.093591
    88  H    0.104766
    89  H    0.112509
    90  H    0.088091
    91  H    0.110051
    92  H    0.120550
    93  H    0.140261
    94  H    0.143122
    95  H    0.163437
    96  H    0.129803
    97  H    0.108872
    98  H    0.103823
    99  H    0.121997
   100  H    0.129535
   101  H    0.098333
   102  H    0.115848
   103  H    0.127778
   104  H    0.114325
   105  H    0.111617
   106  H    0.107879
   107  H    0.108818
   108  H    0.104602
   109  H    0.083130
   110  H    0.077114
   111  H    0.044050
   112  H    0.092524
   113  H    0.102472
   114  H    0.105613
   115  H    0.051663
   116  H    0.090574
   117  H    0.082519
   118  H    0.098779
   119  H    0.076170
   120  H    0.104506
   121  H    0.078206
   122  H    0.048091
   123  H    0.098043
   124  H    0.119546
   125  H    0.066119
   126  H    0.078514
   127  H    0.072750
   128  H    0.096692
   129  H    0.052223
   130  H    0.098134
   131  H    0.056155
   132  H    0.075670
   133  H    0.119187
   134  H    0.064686
   135  H    0.077098
   136  H    0.105349
   137  H    0.093566
 Sum of Mulliken charges =  -0.00000

 Dipole moment (field-independent basis, Debye):
    X=              2.3322    Y=              3.7061    Z=             -0.5784  Tot=              4.4168
 Quadrupole moment (field-independent basis, Debye-Ang):
   XX=           -317.5428   YY=           -396.0278   ZZ=           -400.0194
   XY=            -17.6290   XZ=              9.7482   YZ=             -2.2626

 Normal termination of Gaussian 16 at Wed Sep 11 03:17:25 2019.
