 Gaussian 16, Revision A.03,
 Gaussian 16:  ES64L-G16RevA.03 25-Dec-2016

 ----------------------------------------------------------------------
 # td=(NStates=1) iop(3/107=0140000000,3/108=0140000000) CAM-B3LYP/6-31
 G(d,p)
 ----------------------------------------------------------------------

 --
 TD
 --
 Symbolic Z-matrix:
 Charge =  0 Multiplicity = 1

                         Standard orientation:
 ---------------------------------------------------------------------
 Center     Atomic      Atomic             Coordinates (Angstroms)
 Number     Number       Type             X           Y           Z
 ---------------------------------------------------------------------
      1         12           0       -7.232498    0.616807    0.123599
      2          6           0       -4.838442   -1.957817    0.527398
      3          6           0       -4.774377    2.840960    1.210711
      4          6           0       -9.397879    3.144324   -0.418706
      5          6           0       -9.563133   -1.734880   -0.921136
      6          7           0       -5.101621    0.419030    0.775145
      7          6           0       -4.258439   -0.729779    0.858708
      8          6           0       -2.907341   -0.503897    1.378162
      9          6           0       -3.067212    1.053962    1.760000
     10          6           0       -4.374502    1.526511    1.158067
     11          6           0       -2.988081    1.280058    3.228527
     12          6           0       -1.945880   -0.633388    0.165498
     13          6           0       -0.503602   -0.481224    0.487643
     14          6           0        0.519072   -0.788765   -0.611441
     15          8           0        0.205721   -1.153980   -1.723889
     16          8           0        1.766409   -0.560449   -0.136283
     17          7           0       -7.070750    2.635983    0.299148
     18          6           0       -6.043751    3.350255    0.838862
     19          6           0       -6.397362    4.720120    0.754191
     20          6           0       -7.570519    4.816270    0.342926
     21          6           0       -8.115694    3.455310    0.031218
     22          6           0       -5.454187    5.951724    0.968968
     23          6           0       -8.431068    6.048662    0.162595
     24          6           0       -8.203140    7.236335    0.793441
     25          7           0       -9.179659    0.734065   -0.392470
     26          6           0       -9.923954    1.863991   -0.555003
     27          6           0      -11.243688    1.569883   -1.118952
     28          6           0      -11.303527    0.185136   -1.249323
     29          6           0       -9.988523   -0.383572   -0.894602
     30          6           0      -12.245438    2.606168   -1.371825
     31          6           0      -12.456120   -0.623707   -1.844013
     32          6           0      -12.193820   -0.907437   -3.325758
     33          7           0       -7.234358   -1.388528   -0.254517
     34          6           0       -8.338898   -2.229042   -0.634001
     35          6           0       -7.871508   -3.633795   -0.537771
     36          6           0       -6.486115   -3.569800   -0.167493
     37          6           0       -6.209143   -2.146060   -0.038050
     38          6           0       -8.789263   -4.768158   -0.890104
     39          6           0       -5.302442   -4.378871    0.076505
     40          8           0       -5.113770   -5.666592   -0.045989
     41          6           0       -4.272737   -3.348136    0.499358
     42          6           0       -3.662356   -3.726655    1.860276
     43          8           0       -3.774554   -3.163830    2.911677
     44          8           0       -2.936506   -4.870600    1.792622
     45          6           0       -2.259291   -5.200128    3.029826
     46          6           0        2.781117   -0.706531   -1.071111
     47          6           0        4.183466   -0.456601   -0.483926
     48          6           0        5.142880    0.323053   -0.852668
     49          6           0        5.030525    1.179846   -1.958145
     50          6           0        6.494104    0.356603   -0.123034
     51          6           0        7.647049   -0.365719   -0.959970
     52          6           0        8.850887   -0.022260   -0.117537
     53          6           0       10.192907   -0.508075   -0.768176
     54          6           0       10.131035   -1.901027   -1.202006
     55          6           0       11.430362   -0.208907    0.085510
     56          6           0       12.761938   -0.489191   -0.547587
     57          6           0       13.970120   -0.159734    0.212412
     58          6           0       15.378146   -0.184444   -0.420175
     59          6           0       15.714708   -1.579144   -0.884622
     60          6           0       16.458162    0.484926    0.425065
     61          6           0       17.859276    0.594083   -0.255304
     62          6           0       18.923405    1.334114    0.628713
     63          6           0       20.301532    1.378645    0.062108
     64          6           0       20.417412    2.174636   -1.240288
     65          6           0       21.289485    1.817037    1.146949
     66          1           0       -4.117746    3.508111    1.356980
     67          1           0       -9.967196    3.958707   -0.529046
     68          1           0      -10.375113   -2.296669   -1.318390
     69          1           0       -2.705738   -1.074632    2.196534
     70          1           0       -2.234440    1.455175    1.323774
     71          1           0       -1.864034    1.029276    3.488175
     72          1           0       -3.142609    2.309746    3.435509
     73          1           0       -3.832873    0.628778    3.585118
     74          1           0       -2.081732   -1.793412   -0.128136
     75          1           0       -2.325870   -0.053941   -0.604970
     76          1           0       -0.387659    0.433392    0.843093
     77          1           0       -0.306288   -1.289163    1.362044
     78          1           0       -5.743413    6.775359    0.431239
     79          1           0       -5.741217    6.326327    2.083451
     80          1           0       -4.479128    5.860123    0.653831
     81          1           0       -9.008036    5.840939   -0.694043
     82          1           0       -8.832545    8.051519    0.519776
     83          1           0       -7.401674    7.289494    1.617223
     84          1           0      -12.049885    3.076384   -2.385392
     85          1           0      -13.150058    1.732011   -1.326843
     86          1           0      -12.049565    3.482797   -0.452417
     87          1           0      -12.616126   -1.477044   -1.122671
     88          1           0      -13.394699    0.018112   -1.711818
     89          1           0      -12.814102   -1.716164   -3.969090
     90          1           0      -12.259566   -0.139428   -3.757299
     91          1           0      -11.190464   -1.477282   -3.406414
     92          1           0       -9.160367   -4.671941   -1.988839
     93          1           0       -7.977568   -5.777222   -0.885353
     94          1           0       -9.652240   -4.871685   -0.191814
     95          1           0       -3.482051   -3.299605   -0.427676
     96          1           0       -1.775188   -4.343573    3.386349
     97          1           0       -2.985548   -5.411102    3.737326
     98          1           0       -1.620578   -6.139749    2.683653
     99          1           0        2.844358   -1.868554   -1.324024
    100          1           0        2.607868   -0.008488   -1.916633
    101          1           0        4.269323   -1.094553    0.420025
    102          1           0        4.093542    1.080668   -2.676177
    103          1           0        5.280076    2.245311   -1.720365
    104          1           0        5.964830    0.731985   -2.654747
    105          1           0        6.867861    1.448472   -0.147381
    106          1           0        6.244952   -0.070466    0.834143
    107          1           0        7.533730   -1.411788   -0.856763
    108          1           0        7.529865   -0.066024   -1.973853
    109          1           0        8.832965    0.759574    0.417562
    110          1           0        8.784546   -0.633162    0.773160
    111          1           0       10.093189    0.068925   -1.730860
    112          1           0        9.239913   -2.295841   -1.810984
    113          1           0       11.018178   -2.191836   -1.759284
    114          1           0       10.134977   -2.646824   -0.169002
    115          1           0       11.333604    0.648221    0.544496
    116          1           0       11.339883   -1.069320    0.973220
    117          1           0       12.645197   -1.451717   -0.936821
    118          1           0       12.690920   -0.024262   -1.443442
    119          1           0       13.691578    0.825649    0.662701
    120          1           0       14.026606   -0.950063    0.959053
    121          1           0       15.246818    0.503701   -1.433673
    122          1           0       15.829141   -2.215275    0.140759
    123          1           0       14.891343   -1.990406   -1.487491
    124          1           0       16.515029   -1.696623   -1.595458
    125          1           0       16.242369    1.542248    0.746362
    126          1           0       16.533799    0.031194    1.389695
    127          1           0       18.007138   -0.565218   -0.590382
    128          1           0       17.836167    1.018748   -1.201376
    129          1           0       18.412467    2.301166    0.720165
    130          1           0       18.889817    0.856817    1.415694
    131          1           0       20.493496    0.304266   -0.326124
    132          1           0       20.102344    3.151030   -1.105155
    133          1           0       21.512599    2.192181   -1.584858
    134          1           0       19.744746    1.686862   -1.896927
    135          1           0       21.009365    1.316665    2.192071
    136          1           0       22.370070    1.945814    0.688844
    137          1           0       21.160001    2.970128    1.415056
 ---------------------------------------------------------------------

 SCF Done:  E(RCAM-B3LYP) =  -2933.38020268     A.U. after   15 cycles

 Excitation energies and oscillator strengths:

 Excited State   1:      Singlet-A      2.0397 eV  607.85 nm  f=0.2224  <S**2>=0.000
     240 -> 243       -0.22793
     241 -> 242        0.66050
 This state for optimization and/or second-order correction.
 Total Energy, E(TD-HF/TD-DFT) =  -2933.30524397
 Copying the excited state density for this state as the 1-particle RhoCI density.

 The electronic state is 1-A.
 Alpha  occ. eigenvalues --  -46.80064 -19.22787 -19.20673 -19.17257 -19.16791
 Alpha  occ. eigenvalues --  -19.15185 -14.37597 -14.35709 -14.35368 -14.35336
 Alpha  occ. eigenvalues --  -10.35045 -10.34308 -10.30314 -10.28256 -10.26303
 Alpha  occ. eigenvalues --  -10.26158 -10.25924 -10.25649 -10.25228 -10.25216
 Alpha  occ. eigenvalues --  -10.25176 -10.25053 -10.25006 -10.24891 -10.24717
 Alpha  occ. eigenvalues --  -10.24507 -10.23955 -10.23724 -10.23310 -10.23281
 Alpha  occ. eigenvalues --  -10.23107 -10.23043 -10.23017 -10.22968 -10.22901
 Alpha  occ. eigenvalues --  -10.22649 -10.22604 -10.22588 -10.22510 -10.22200
 Alpha  occ. eigenvalues --  -10.22019 -10.21906 -10.21895 -10.21884 -10.21870
 Alpha  occ. eigenvalues --  -10.21851 -10.21782 -10.21695 -10.21625 -10.21565
 Alpha  occ. eigenvalues --  -10.21284 -10.21241 -10.21201 -10.21072 -10.21027
 Alpha  occ. eigenvalues --  -10.20868 -10.20816 -10.20812 -10.20767 -10.20592
 Alpha  occ. eigenvalues --  -10.20444 -10.19517 -10.19294 -10.18959 -10.18615
 Alpha  occ. eigenvalues --   -3.08613  -1.83560  -1.83068  -1.83026  -1.14287
 Alpha  occ. eigenvalues --   -1.13052  -1.05578  -1.03954  -1.00535  -0.99815
 Alpha  occ. eigenvalues --   -0.98438  -0.97025  -0.95764  -0.87410  -0.87318
 Alpha  occ. eigenvalues --   -0.86362  -0.85660  -0.85188  -0.84830  -0.84357
 Alpha  occ. eigenvalues --   -0.84022  -0.83496  -0.83034  -0.82113  -0.81554
 Alpha  occ. eigenvalues --   -0.81065  -0.79711  -0.79044  -0.78569  -0.78013
 Alpha  occ. eigenvalues --   -0.77503  -0.76406  -0.76088  -0.75816  -0.73830
 Alpha  occ. eigenvalues --   -0.73253  -0.72753  -0.71530  -0.71326  -0.71145
 Alpha  occ. eigenvalues --   -0.70737  -0.70101  -0.69872  -0.69550  -0.68133
 Alpha  occ. eigenvalues --   -0.66811  -0.66267  -0.66144  -0.64853  -0.64185
 Alpha  occ. eigenvalues --   -0.63715  -0.63368  -0.62059  -0.62042  -0.60927
 Alpha  occ. eigenvalues --   -0.60280  -0.59586  -0.59115  -0.58797  -0.58113
 Alpha  occ. eigenvalues --   -0.57487  -0.56737  -0.56101  -0.55797  -0.55432
 Alpha  occ. eigenvalues --   -0.55103  -0.54449  -0.53760  -0.53211  -0.53130
 Alpha  occ. eigenvalues --   -0.52531  -0.52115  -0.51918  -0.51752  -0.51300
 Alpha  occ. eigenvalues --   -0.51038  -0.50760  -0.50441  -0.50152  -0.49619
 Alpha  occ. eigenvalues --   -0.49350  -0.48987  -0.48853  -0.48611  -0.48422
 Alpha  occ. eigenvalues --   -0.48367  -0.47864  -0.47575  -0.47415  -0.47192
 Alpha  occ. eigenvalues --   -0.47073  -0.47001  -0.46428  -0.46297  -0.45963
 Alpha  occ. eigenvalues --   -0.45770  -0.45761  -0.45402  -0.45303  -0.45262
 Alpha  occ. eigenvalues --   -0.44980  -0.44728  -0.44613  -0.44124  -0.43931
 Alpha  occ. eigenvalues --   -0.43658  -0.43376  -0.43095  -0.42894  -0.42798
 Alpha  occ. eigenvalues --   -0.42692  -0.42346  -0.42195  -0.41877  -0.41658
 Alpha  occ. eigenvalues --   -0.41488  -0.41229  -0.41033  -0.40785  -0.40341
 Alpha  occ. eigenvalues --   -0.40245  -0.40213  -0.39928  -0.39865  -0.39681
 Alpha  occ. eigenvalues --   -0.39429  -0.39403  -0.39266  -0.38954  -0.38740
 Alpha  occ. eigenvalues --   -0.38678  -0.38593  -0.38475  -0.38312  -0.38084
 Alpha  occ. eigenvalues --   -0.37975  -0.37851  -0.37513  -0.37427  -0.37329
 Alpha  occ. eigenvalues --   -0.37170  -0.36986  -0.36838  -0.36161  -0.36135
 Alpha  occ. eigenvalues --   -0.35889  -0.35488  -0.35201  -0.34899  -0.34610
 Alpha  occ. eigenvalues --   -0.34041  -0.33853  -0.33691  -0.33467  -0.33070
 Alpha  occ. eigenvalues --   -0.33017  -0.32814  -0.32614  -0.32546  -0.32241
 Alpha  occ. eigenvalues --   -0.32182  -0.32061  -0.31576  -0.30985  -0.30621
 Alpha  occ. eigenvalues --   -0.30397  -0.30259  -0.29914  -0.28444  -0.26883
 Alpha  occ. eigenvalues --   -0.26845  -0.26493  -0.26255  -0.25505  -0.21787
 Alpha  occ. eigenvalues --   -0.20206
 Alpha virt. eigenvalues --   -0.07164  -0.04115  -0.00759   0.02047   0.03615
 Alpha virt. eigenvalues --    0.03724   0.04691   0.05137   0.05347   0.05487
 Alpha virt. eigenvalues --    0.06046   0.07315   0.08523   0.09144   0.09610

 Mulliken charges:
               1
     1  Mg   0.817715
     2  C    0.071903
     3  C   -0.144972
     4  C   -0.138064
     5  C   -0.167800
     6  N   -0.625407
     7  C    0.292883
     8  C   -0.141578
     9  C   -0.161567
    10  C    0.351176
    11  C   -0.282828
    12  C   -0.167114
    13  C   -0.249955
    14  C    0.607074
    15  O   -0.459783
    16  O   -0.443999
    17  N   -0.737059
    18  C    0.285163
    19  C    0.006964
    20  C    0.014556
    21  C    0.313219
    22  C   -0.373733
    23  C   -0.048303
    24  C   -0.246962
    25  N   -0.707555
    26  C    0.327272
    27  C    0.034713
    28  C    0.013177
    29  C    0.252017
    30  C   -0.350118
    31  C   -0.263334
    32  C   -0.260881
    33  N   -0.720188
    34  C    0.273330
    35  C    0.039236
    36  C    0.023776
    37  C    0.322148
    38  C   -0.382818
    39  C    0.353329
    40  O   -0.509315
    41  C   -0.339143
    42  C    0.624526
    43  O   -0.468896
    44  O   -0.445397
    45  C   -0.080796
    46  C    0.030327
    47  C   -0.162909
    48  C    0.182239
    49  C   -0.365822
    50  C   -0.243422
    51  C   -0.175419
    52  C   -0.166661
    53  C   -0.052684
    54  C   -0.295804
    55  C   -0.159108
    56  C   -0.174876
    57  C   -0.158374
    58  C   -0.043105
    59  C   -0.304619
    60  C   -0.170361
    61  C   -0.204856
    62  C   -0.135212
    63  C   -0.045774
    64  C   -0.310042
    65  C   -0.303298
    66  H    0.048885
    67  H    0.054779
    68  H    0.086584
    69  H    0.123589
    70  H    0.093785
    71  H    0.091840
    72  H    0.114629
    73  H    0.123066
    74  H    0.088252
    75  H    0.124556
    76  H    0.133142
    77  H    0.114367
    78  H    0.138870
    79  H    0.102895
    80  H    0.118216
    81  H    0.096599
    82  H    0.106815
    83  H    0.098210
    84  H    0.131007
    85  H    0.093371
    86  H    0.097555
    87  H    0.109426
    88  H    0.091794
    89  H    0.079844
    90  H    0.121265
    91  H    0.101381
    92  H    0.122646
    93  H    0.121078
    94  H    0.133731
    95  H    0.164562
    96  H    0.126601
    97  H    0.139863
    98  H    0.117660
    99  H    0.104942
   100  H    0.102346
   101  H    0.071000
   102  H    0.103326
   103  H    0.119534
   104  H    0.080575
   105  H    0.093613
   106  H    0.109619
   107  H    0.120821
   108  H    0.100507
   109  H    0.089772
   110  H    0.086359
   111  H    0.079207
   112  H    0.099181
   113  H    0.109659
   114  H    0.053651
   115  H    0.091929
   116  H    0.049612
   117  H    0.094439
   118  H    0.095300
   119  H    0.083732
   120  H    0.086976
   121  H    0.046122
   122  H    0.080071
   123  H    0.104348
   124  H    0.113922
   125  H    0.078741
   126  H    0.092051
   127  H    0.060019
   128  H    0.101193
   129  H    0.089375
   130  H    0.097333
   131  H    0.079902
   132  H    0.108015
   133  H    0.089441
   134  H    0.108858
   135  H    0.094565
   136  H    0.092019
   137  H    0.080232
 Sum of Mulliken charges =  -0.00000

 Dipole moment (field-independent basis, Debye):
    X=              1.6491    Y=              6.4053    Z=              0.0840  Tot=              6.6147
 Quadrupole moment (field-independent basis, Debye-Ang):
   XX=           -361.3142   YY=           -401.4290   ZZ=           -397.0491
   XY=            -22.4733   XZ=             10.7450   YZ=             -3.6645

 Normal termination of Gaussian 16 at Mon Sep 16 21:32:00 2019.
