 Gaussian 16, Revision A.03,
 Gaussian 16:  ES64L-G16RevA.03 25-Dec-2016

 ----------------------------------------------------------------------
 # td=(NStates=1) iop(3/107=0140000000,3/108=0140000000) CAM-B3LYP/6-31
 G(d,p)
 ----------------------------------------------------------------------

 --
 TD
 --
 Symbolic Z-matrix:
 Charge =  0 Multiplicity = 1

                         Standard orientation:
 ---------------------------------------------------------------------
 Center     Atomic      Atomic             Coordinates (Angstroms)
 Number     Number       Type             X           Y           Z
 ---------------------------------------------------------------------
      1         12           0       -7.212202    0.594589    0.093467
      2          6           0       -4.877138   -1.986264    0.436738
      3          6           0       -4.760262    2.833751    0.961629
      4          6           0       -9.519959    3.121463   -0.312638
      5          6           0       -9.534215   -1.597960   -0.943841
      6          7           0       -5.129983    0.452353    0.716015
      7          6           0       -4.423941   -0.711882    0.667050
      8          6           0       -2.980317   -0.349534    1.136198
      9          6           0       -3.050389    1.091924    1.514338
     10          6           0       -4.468531    1.542726    1.138604
     11          6           0       -2.917344    1.310240    3.047840
     12          6           0       -1.909112   -0.609598    0.101730
     13          6           0       -0.400193   -0.484598    0.568498
     14          6           0        0.515329   -0.711411   -0.525100
     15          8           0        0.364488   -1.024037   -1.672295
     16          8           0        1.802535   -0.378861   -0.130966
     17          7           0       -7.126659    2.636087    0.406394
     18          6           0       -6.031008    3.379055    0.636897
     19          6           0       -6.437185    4.771907    0.679465
     20          6           0       -7.752122    4.845069    0.423665
     21          6           0       -8.170622    3.440332    0.093791
     22          6           0       -5.506886    5.990691    1.037149
     23          6           0       -8.612687    6.012130    0.147203
     24          6           0       -8.370176    7.227522    0.678526
     25          7           0       -9.157429    0.673517   -0.568824
     26          6           0       -9.937127    1.820898   -0.696100
     27          6           0      -11.306789    1.567349   -1.064257
     28          6           0      -11.300549    0.129289   -1.241109
     29          6           0       -9.995927   -0.349889   -0.933871
     30          6           0      -12.398592    2.503701   -1.222320
     31          6           0      -12.450082   -0.691566   -1.813603
     32          6           0      -12.288534   -1.215785   -3.234119
     33          7           0       -7.344893   -1.387235   -0.198565
     34          6           0       -8.357327   -2.210287   -0.476034
     35          6           0       -7.953891   -3.651720   -0.458896
     36          6           0       -6.663633   -3.557702   -0.066974
     37          6           0       -6.315118   -2.145106    0.074227
     38          6           0       -8.839308   -4.878446   -0.798017
     39          6           0       -5.368561   -4.366127    0.223763
     40          8           0       -5.258885   -5.566882    0.226929
     41          6           0       -4.277146   -3.323165    0.490635
     42          6           0       -3.590718   -3.569794    1.878238
     43          8           0       -3.767819   -2.986143    2.847100
     44          8           0       -2.846829   -4.749232    1.820838
     45          6           0       -2.181755   -5.225374    2.989645
     46          6           0        2.871010   -0.677773   -1.107825
     47          6           0        4.186259   -0.613412   -0.553931
     48          6           0        5.218326    0.201592   -0.889766
     49          6           0        5.176078    1.039091   -2.124142
     50          6           0        6.465014    0.243562   -0.053928
     51          6           0        7.675844   -0.315809   -0.795122
     52          6           0        9.031743   -0.242408   -0.072745
     53          6           0       10.266485   -0.689278   -0.790485
     54          6           0       10.168680   -2.184062   -1.228439
     55          6           0       11.533205   -0.242645    0.144453
     56          6           0       12.935492   -0.543411   -0.661328
     57          6           0       14.043578   -0.097411    0.224351
     58          6           0       15.451790   -0.218156   -0.454042
     59          6           0       15.754949   -1.591679   -0.822212
     60          6           0       16.459619    0.571581    0.304281
     61          6           0       17.864634    0.732306   -0.331337
     62          6           0       18.967073    1.323812    0.638689
     63          6           0       20.347842    1.446933    0.170103
     64          6           0       20.464647    2.095086   -1.196988
     65          6           0       21.275844    1.975263    1.244200
     66          1           0       -4.051262    3.655424    1.220782
     67          1           0      -10.165157    3.873313   -0.493011
     68          1           0      -10.417554   -2.300829   -1.137901
     69          1           0       -2.743368   -0.801538    2.111019
     70          1           0       -2.529376    1.565805    0.952697
     71          1           0       -1.920078    1.086100    3.506285
     72          1           0       -3.149503    2.262921    3.210247
     73          1           0       -3.724329    0.796828    3.609914
     74          1           0       -2.120937   -1.551084   -0.303008
     75          1           0       -2.154443    0.080461   -0.663492
     76          1           0       -0.117502    0.588684    1.010647
     77          1           0       -0.171440   -1.257778    1.315665
     78          1           0       -5.679603    6.894714    0.478103
     79          1           0       -5.505214    6.336664    1.933514
     80          1           0       -4.418381    5.729721    0.801455
     81          1           0       -9.605355    5.784710   -0.561417
     82          1           0       -9.120311    7.965365    0.617259
     83          1           0       -7.579044    7.438366    1.474570
     84          1           0      -12.268300    3.061118   -2.107114
     85          1           0      -13.188546    1.879245   -1.406369
     86          1           0      -12.484698    3.060529   -0.086102
     87          1           0      -12.637575   -1.455180   -1.123902
     88          1           0      -13.283070   -0.272909   -1.838485
     89          1           0      -13.246420   -1.569241   -3.486208
     90          1           0      -12.056409   -0.342715   -3.822592
     91          1           0      -11.535390   -2.009594   -3.250019
     92          1           0       -8.826504   -5.010524   -2.041339
     93          1           0       -8.339662   -5.950625   -0.312011
     94          1           0       -9.850332   -4.594683   -0.519208
     95          1           0       -3.709761   -3.610377   -0.226355
     96          1           0       -1.760938   -4.260670    3.508527
     97          1           0       -2.885389   -5.566110    3.617067
     98          1           0       -1.403064   -5.862928    2.764350
     99          1           0        2.383386   -1.592463   -1.525594
    100          1           0        2.703808    0.154800   -1.953011
    101          1           0        4.169971   -1.168309    0.502977
    102          1           0        4.278399    0.973318   -2.509236
    103          1           0        5.927319    1.967486   -1.976981
    104          1           0        5.744594    0.294904   -3.021944
    105          1           0        6.743888    1.335054    0.277583
    106          1           0        6.191953   -0.409992    0.761492
    107          1           0        7.405191   -1.295968   -1.165332
    108          1           0        7.888349    0.268805   -1.800243
    109          1           0        9.152195    0.657543    0.235887
    110          1           0        8.813373   -0.664941    0.940739
    111          1           0       10.355849    0.119134   -1.607112
    112          1           0        9.366683   -2.353128   -2.088967
    113          1           0       11.147982   -2.653149   -1.952851
    114          1           0       10.013381   -2.915747   -0.338988
    115          1           0       11.427426    0.867507    0.369956
    116          1           0       11.529110   -0.760876    1.195616
    117          1           0       13.025987   -1.536346   -0.876936
    118          1           0       13.000935   -0.141028   -1.605936
    119          1           0       13.928044    0.965528    0.378716
    120          1           0       14.037782   -0.536520    1.336296
    121          1           0       15.326785    0.375439   -1.452237
    122          1           0       15.962337   -2.185520    0.092062
    123          1           0       15.220675   -2.062186   -1.524273
    124          1           0       16.710157   -1.730895   -1.237480
    125          1           0       16.063871    1.571855    0.709346
    126          1           0       16.620717   -0.193786    1.237693
    127          1           0       18.304249   -0.247241   -0.632698
    128          1           0       17.717173    1.484325   -1.087736
    129          1           0       18.619107    2.362505    0.803175
    130          1           0       18.676102    0.979847    1.702586
    131          1           0       20.732910    0.460053   -0.011627
    132          1           0       20.177004    3.155671   -1.197724
    133          1           0       21.603428    1.994199   -1.416308
    134          1           0       20.042922    1.409686   -2.135002
    135          1           0       21.302506    1.398476    2.177023
    136          1           0       22.338611    1.840270    1.099552
    137          1           0       21.148211    3.061485    1.507925
 ---------------------------------------------------------------------

 SCF Done:  E(RCAM-B3LYP) =  -2933.43201959     A.U. after   16 cycles

 Excitation energies and oscillator strengths:

 Excited State   1:      Singlet-A      2.1238 eV  583.79 nm  f=0.2493  <S**2>=0.000
     240 -> 243        0.24380
     241 -> 242        0.65879
 This state for optimization and/or second-order correction.
 Total Energy, E(TD-HF/TD-DFT) =  -2933.35397276
 Copying the excited state density for this state as the 1-particle RhoCI density.

 The electronic state is 1-A.
 Alpha  occ. eigenvalues --  -46.80260 -19.20335 -19.19408 -19.17937 -19.16841
 Alpha  occ. eigenvalues --  -19.16376 -14.36902 -14.35551 -14.35417 -14.34451
 Alpha  occ. eigenvalues --  -10.34712 -10.33585 -10.31201 -10.26879 -10.26056
 Alpha  occ. eigenvalues --  -10.25634 -10.25468 -10.25360 -10.25266 -10.25063
 Alpha  occ. eigenvalues --  -10.24876 -10.24674 -10.24544 -10.24470 -10.24145
 Alpha  occ. eigenvalues --  -10.24083 -10.24035 -10.23537 -10.23328 -10.23297
 Alpha  occ. eigenvalues --  -10.23242 -10.23062 -10.22989 -10.22885 -10.22468
 Alpha  occ. eigenvalues --  -10.22387 -10.22267 -10.22260 -10.22211 -10.22066
 Alpha  occ. eigenvalues --  -10.22060 -10.22044 -10.21858 -10.21852 -10.21822
 Alpha  occ. eigenvalues --  -10.21759 -10.21522 -10.21431 -10.21380 -10.21216
 Alpha  occ. eigenvalues --  -10.21216 -10.21172 -10.20939 -10.20880 -10.20691
 Alpha  occ. eigenvalues --  -10.20467 -10.20244 -10.20228 -10.20116 -10.20086
 Alpha  occ. eigenvalues --  -10.19819 -10.19640 -10.19299 -10.19212 -10.18225
 Alpha  occ. eigenvalues --   -3.08790  -1.83745  -1.83273  -1.83173  -1.14339
 Alpha  occ. eigenvalues --   -1.11873  -1.07177  -1.05583  -1.02717  -1.00828
 Alpha  occ. eigenvalues --   -0.99327  -0.98321  -0.96904  -0.88036  -0.86376
 Alpha  occ. eigenvalues --   -0.85556  -0.85330  -0.84353  -0.84095  -0.83976
 Alpha  occ. eigenvalues --   -0.83630  -0.83553  -0.83071  -0.81586  -0.81328
 Alpha  occ. eigenvalues --   -0.79851  -0.79718  -0.79369  -0.77880  -0.77636
 Alpha  occ. eigenvalues --   -0.76493  -0.76384  -0.75855  -0.74820  -0.73712
 Alpha  occ. eigenvalues --   -0.73428  -0.73169  -0.72250  -0.71547  -0.71155
 Alpha  occ. eigenvalues --   -0.70891  -0.70625  -0.69018  -0.68660  -0.68179
 Alpha  occ. eigenvalues --   -0.67201  -0.66488  -0.65877  -0.64789  -0.63842
 Alpha  occ. eigenvalues --   -0.62614  -0.61995  -0.61482  -0.60895  -0.60702
 Alpha  occ. eigenvalues --   -0.59820  -0.58914  -0.58627  -0.58083  -0.57205
 Alpha  occ. eigenvalues --   -0.57092  -0.56845  -0.56277  -0.55539  -0.55008
 Alpha  occ. eigenvalues --   -0.54746  -0.54389  -0.53841  -0.53216  -0.52602
 Alpha  occ. eigenvalues --   -0.52312  -0.51832  -0.51415  -0.51255  -0.51188
 Alpha  occ. eigenvalues --   -0.50874  -0.50176  -0.50002  -0.49765  -0.49622
 Alpha  occ. eigenvalues --   -0.49469  -0.48996  -0.48939  -0.48373  -0.48232
 Alpha  occ. eigenvalues --   -0.47994  -0.47471  -0.47334  -0.46972  -0.46814
 Alpha  occ. eigenvalues --   -0.46402  -0.46182  -0.46030  -0.45959  -0.45807
 Alpha  occ. eigenvalues --   -0.45674  -0.45513  -0.45463  -0.45111  -0.45038
 Alpha  occ. eigenvalues --   -0.44748  -0.44326  -0.44153  -0.44045  -0.43874
 Alpha  occ. eigenvalues --   -0.43452  -0.43411  -0.43343  -0.43284  -0.42780
 Alpha  occ. eigenvalues --   -0.42532  -0.42299  -0.41997  -0.41872  -0.41633
 Alpha  occ. eigenvalues --   -0.41528  -0.41451  -0.41264  -0.40989  -0.40759
 Alpha  occ. eigenvalues --   -0.40479  -0.40366  -0.40201  -0.39973  -0.39685
 Alpha  occ. eigenvalues --   -0.39583  -0.39340  -0.39230  -0.39109  -0.38712
 Alpha  occ. eigenvalues --   -0.38443  -0.38316  -0.38230  -0.37979  -0.37789
 Alpha  occ. eigenvalues --   -0.37588  -0.37199  -0.37099  -0.37040  -0.36914
 Alpha  occ. eigenvalues --   -0.36843  -0.36752  -0.36377  -0.36194  -0.35601
 Alpha  occ. eigenvalues --   -0.35455  -0.35389  -0.35254  -0.35025  -0.34902
 Alpha  occ. eigenvalues --   -0.34826  -0.34349  -0.34040  -0.33950  -0.33330
 Alpha  occ. eigenvalues --   -0.33237  -0.33083  -0.32723  -0.32384  -0.32119
 Alpha  occ. eigenvalues --   -0.32102  -0.31325  -0.31066  -0.31005  -0.30220
 Alpha  occ. eigenvalues --   -0.29940  -0.29841  -0.29372  -0.28907  -0.27774
 Alpha  occ. eigenvalues --   -0.26929  -0.26134  -0.25434  -0.24903  -0.21544
 Alpha  occ. eigenvalues --   -0.20050
 Alpha virt. eigenvalues --   -0.06686  -0.03620   0.00503   0.02420   0.02708
 Alpha virt. eigenvalues --    0.04284   0.04384   0.05146   0.05219   0.05818
 Alpha virt. eigenvalues --    0.06897   0.08898   0.09580   0.09798   0.10028

 Mulliken charges:
               1
     1  Mg   0.811603
     2  C    0.099181
     3  C   -0.164812
     4  C   -0.137506
     5  C   -0.203687
     6  N   -0.648757
     7  C    0.288775
     8  C   -0.179398
     9  C   -0.082920
    10  C    0.303441
    11  C   -0.324457
    12  C   -0.171400
    13  C   -0.272949
    14  C    0.619507
    15  O   -0.470959
    16  O   -0.515722
    17  N   -0.700196
    18  C    0.317948
    19  C   -0.000595
    20  C    0.024313
    21  C    0.274465
    22  C   -0.384623
    23  C   -0.065333
    24  C   -0.252786
    25  N   -0.699924
    26  C    0.282868
    27  C    0.019343
    28  C   -0.002550
    29  C    0.344167
    30  C   -0.363431
    31  C   -0.230420
    32  C   -0.307232
    33  N   -0.701852
    34  C    0.234272
    35  C    0.023056
    36  C   -0.015558
    37  C    0.306572
    38  C   -0.355026
    39  C    0.362036
    40  O   -0.437205
    41  C   -0.276247
    42  C    0.600469
    43  O   -0.401742
    44  O   -0.480846
    45  C   -0.073990
    46  C    0.018610
    47  C   -0.123263
    48  C    0.139238
    49  C   -0.315982
    50  C   -0.224033
    51  C   -0.174808
    52  C   -0.149976
    53  C   -0.043947
    54  C   -0.292141
    55  C   -0.192177
    56  C   -0.175224
    57  C   -0.155632
    58  C   -0.044577
    59  C   -0.308523
    60  C   -0.169163
    61  C   -0.174323
    62  C   -0.166205
    63  C   -0.037167
    64  C   -0.303795
    65  C   -0.323887
    66  H    0.080417
    67  H    0.064538
    68  H    0.062385
    69  H    0.118733
    70  H    0.078636
    71  H    0.100268
    72  H    0.114794
    73  H    0.121339
    74  H    0.116136
    75  H    0.116407
    76  H    0.139920
    77  H    0.147839
    78  H    0.124678
    79  H    0.139917
    80  H    0.093836
    81  H    0.085896
    82  H    0.101322
    83  H    0.101768
    84  H    0.135446
    85  H    0.124081
    86  H    0.102236
    87  H    0.105567
    88  H    0.098223
    89  H    0.108389
    90  H    0.112421
    91  H    0.110153
    92  H    0.107523
    93  H    0.127618
    94  H    0.129901
    95  H    0.159750
    96  H    0.096712
    97  H    0.138194
    98  H    0.132544
    99  H    0.129057
   100  H    0.091801
   101  H    0.074484
   102  H    0.114705
   103  H    0.112206
   104  H    0.080882
   105  H    0.086138
   106  H    0.105144
   107  H    0.102235
   108  H    0.064391
   109  H    0.094518
   110  H    0.072381
   111  H    0.083394
   112  H    0.101969
   113  H    0.056964
   114  H    0.110306
   115  H    0.088576
   116  H    0.083421
   117  H    0.110389
   118  H    0.096834
   119  H    0.085538
   120  H    0.066965
   121  H    0.054287
   122  H    0.091105
   123  H    0.113469
   124  H    0.099763
   125  H    0.085640
   126  H    0.051734
   127  H    0.091116
   128  H    0.102572
   129  H    0.074090
   130  H    0.079286
   131  H    0.089182
   132  H    0.106407
   133  H    0.090114
   134  H    0.089226
   135  H    0.104960
   136  H    0.098962
   137  H    0.095285
 Sum of Mulliken charges =  -0.00000

 Dipole moment (field-independent basis, Debye):
    X=              0.3788    Y=              3.5724    Z=              0.5604  Tot=              3.6359
 Quadrupole moment (field-independent basis, Debye-Ang):
   XX=           -322.8873   YY=           -392.8504   ZZ=           -396.5006
   XY=            -19.1143   XZ=              8.2080   YZ=             -1.0906

 Normal termination of Gaussian 16 at Sun Sep 22 19:30:18 2019.
