 Gaussian 16, Revision A.03,
 Gaussian 16:  ES64L-G16RevA.03 25-Dec-2016

 ----------------------------------------------------------------------
 # td=(NStates=1) iop(3/107=0140000000,3/108=0140000000) CAM-B3LYP/6-31
 G(d,p)
 ----------------------------------------------------------------------

 --
 TD
 --
 Symbolic Z-matrix:
 Charge =  0 Multiplicity = 1

                         Standard orientation:
 ---------------------------------------------------------------------
 Center     Atomic      Atomic             Coordinates (Angstroms)
 Number     Number       Type             X           Y           Z
 ---------------------------------------------------------------------
      1         12           0       -7.019995    0.746022    0.092008
      2          6           0       -4.932086   -1.961032    0.536350
      3          6           0       -4.728010    2.755187    1.179095
      4          6           0       -9.388704    3.211158   -0.417239
      5          6           0       -9.579674   -1.723840   -0.966569
      6          7           0       -5.104668    0.483314    0.546564
      7          6           0       -4.316002   -0.651567    0.693110
      8          6           0       -2.970483   -0.342532    1.068493
      9          6           0       -3.059661    1.057009    1.622066
     10          6           0       -4.357059    1.493422    1.103549
     11          6           0       -3.008504    1.192179    3.160736
     12          6           0       -1.880067   -0.523269    0.004850
     13          6           0       -0.377240   -0.661488    0.483234
     14          6           0        0.566132   -0.657241   -0.607699
     15          8           0        0.294093   -0.742303   -1.803111
     16          8           0        1.839359   -0.521487   -0.223538
     17          7           0       -7.174103    2.639714    0.528596
     18          6           0       -6.009171    3.425275    0.948666
     19          6           0       -6.378262    4.840110    0.818979
     20          6           0       -7.619567    4.937193    0.308490
     21          6           0       -8.095059    3.493373    0.092750
     22          6           0       -5.350458    5.909151    1.183877
     23          6           0       -8.510355    6.076373    0.200356
     24          6           0       -8.362240    7.270556    0.734819
     25          7           0       -9.181568    0.696527   -0.472473
     26          6           0       -9.849179    1.877932   -0.661312
     27          6           0      -11.167910    1.533163   -1.236189
     28          6           0      -11.246434    0.128726   -1.249509
     29          6           0      -10.016636   -0.417580   -0.824258
     30          6           0      -12.318941    2.649526   -1.465422
     31          6           0      -12.382320   -0.684063   -1.786390
     32          6           0      -12.243464   -1.166243   -3.240996
     33          7           0       -7.234151   -1.362632   -0.142300
     34          6           0       -8.326738   -2.197841   -0.520462
     35          6           0       -7.856158   -3.616522   -0.471812
     36          6           0       -6.633347   -3.558495    0.027050
     37          6           0       -6.228687   -2.137517    0.168227
     38          6           0       -8.687358   -4.798465   -0.842824
     39          6           0       -5.441951   -4.410979    0.301627
     40          8           0       -5.359175   -5.581464    0.318506
     41          6           0       -4.314302   -3.278157    0.576694
     42          6           0       -3.738196   -3.744262    1.937227
     43          8           0       -3.838303   -3.120690    2.890818
     44          8           0       -2.835451   -4.762924    1.721055
     45          6           0       -2.298817   -5.414566    2.957385
     46          6           0        2.922320   -0.704303   -1.139295
     47          6           0        4.156543   -0.519421   -0.557660
     48          6           0        5.177097    0.325286   -0.987936
     49          6           0        5.155853    1.181928   -2.224790
     50          6           0        6.519048    0.301748   -0.243651
     51          6           0        7.701919   -0.344079   -0.922429
     52          6           0        8.956327   -0.242412   -0.207553
     53          6           0       10.233199   -0.707244   -0.917816
     54          6           0       10.116976   -2.206434   -1.328037
     55          6           0       11.481975   -0.350296    0.047981
     56          6           0       12.800806   -0.677137   -0.709159
     57          6           0       14.031168   -0.142741    0.131986
     58          6           0       15.356683   -0.185230   -0.680747
     59          6           0       15.814911   -1.670051   -0.950785
     60          6           0       16.449823    0.398642    0.397587
     61          6           0       17.879495    0.568073   -0.201841
     62          6           0       18.796366    1.300017    0.749890
     63          6           0       20.217391    1.519319    0.245951
     64          6           0       20.243732    2.474216   -1.028288
     65          6           0       21.056325    2.014072    1.434928
     66          1           0       -4.089446    3.428621    1.569820
     67          1           0      -10.138979    3.874489   -0.561967
     68          1           0      -10.401940   -2.577088   -1.158844
     69          1           0       -2.734205   -1.149990    1.824966
     70          1           0       -2.254242    1.681370    1.122860
     71          1           0       -1.978307    0.979647    3.502816
     72          1           0       -3.188971    2.350177    3.394228
     73          1           0       -3.783897    0.434014    3.685248
     74          1           0       -1.980367   -1.601006   -0.501016
     75          1           0       -1.875174    0.176069   -0.760535
     76          1           0       -0.325491    0.157963    1.334028
     77          1           0       -0.248736   -1.527234    1.238644
     78          1           0       -5.516798    6.784395    0.526116
     79          1           0       -5.719435    6.206040    2.186030
     80          1           0       -4.410172    5.499278    1.234354
     81          1           0       -9.434248    5.939005   -0.514729
     82          1           0       -9.448688    7.927413    0.622921
     83          1           0       -7.486642    7.586350    1.549285
     84          1           0      -11.918124    3.412056   -2.208147
     85          1           0      -13.132546    2.049476   -1.790472
     86          1           0      -12.522811    3.225606   -0.598783
     87          1           0      -12.681314   -1.695072   -1.284759
     88          1           0      -13.313025   -0.036283   -1.777574
     89          1           0      -12.916794   -2.167856   -3.632257
     90          1           0      -12.314939   -0.484406   -3.948610
     91          1           0      -11.312955   -1.837140   -3.114249
     92          1           0       -9.003956   -4.727416   -1.750019
     93          1           0       -8.093942   -5.766207   -0.700604
     94          1           0       -9.487889   -5.040225   -0.130603
     95          1           0       -3.492458   -3.387427   -0.236610
     96          1           0       -1.751018   -4.581618    3.616292
     97          1           0       -3.127022   -5.925158    3.539037
     98          1           0       -1.490318   -6.152828    2.600545
     99          1           0        2.777396   -1.707586   -1.526281
    100          1           0        2.773572    0.056452   -1.944037
    101          1           0        4.437188   -1.202748    0.205315
    102          1           0        4.270607    1.437075   -2.463272
    103          1           0        5.659836    2.256194   -1.886129
    104          1           0        5.629889    0.615825   -3.096453
    105          1           0        6.571841    1.358465    0.207583
    106          1           0        6.397158   -0.299523    0.608976
    107          1           0        7.468494   -1.408754   -1.029395
    108          1           0        7.826739   -0.096741   -2.049641
    109          1           0        9.036961    0.779180    0.213897
    110          1           0        8.787463   -1.068397    0.674401
    111          1           0       10.254658   -0.057848   -1.766080
    112          1           0        9.201100   -2.445268   -1.913569
    113          1           0       11.141892   -2.466547   -1.722280
    114          1           0        9.930003   -2.761889   -0.320682
    115          1           0       11.375949    0.650631    0.543955
    116          1           0       11.410610   -1.128293    0.967925
    117          1           0       12.820220   -1.650755   -1.031331
    118          1           0       12.866391   -0.286985   -1.515443
    119          1           0       13.799420    0.811654    0.450456
    120          1           0       14.172039   -0.787163    1.124197
    121          1           0       15.392533    0.455175   -1.602038
    122          1           0       15.767410   -2.228352    0.041018
    123          1           0       15.191492   -2.288536   -1.722399
    124          1           0       16.657107   -1.731252   -1.279731
    125          1           0       16.104395    1.399604    0.727451
    126          1           0       16.480775   -0.302589    1.232047
    127          1           0       18.240076   -0.268048   -0.241548
    128          1           0       17.624017    1.125613   -1.069798
    129          1           0       18.540607    2.441155    0.799233
    130          1           0       18.707993    0.759447    1.782038
    131          1           0       20.583489    0.671614   -0.159187
    132          1           0       19.998368    3.450928   -0.523782
    133          1           0       21.242577    2.530255   -1.406642
    134          1           0       19.301369    2.219007   -1.642612
    135          1           0       20.914072    1.497775    2.458272
    136          1           0       22.106191    1.911804    1.214372
    137          1           0       20.643840    2.952874    1.875418
 ---------------------------------------------------------------------

 SCF Done:  E(RCAM-B3LYP) =  -2933.42410433     A.U. after   16 cycles

 Excitation energies and oscillator strengths:

 Excited State   1:      Singlet-A      1.9724 eV  628.61 nm  f=0.2548  <S**2>=0.000
     240 -> 243        0.22738
     241 -> 242        0.66341
 This state for optimization and/or second-order correction.
 Total Energy, E(TD-HF/TD-DFT) =  -2933.35162139
 Copying the excited state density for this state as the 1-particle RhoCI density.

 The electronic state is 1-A.
 Alpha  occ. eigenvalues --  -46.79778 -19.21275 -19.20934 -19.17425 -19.17072
 Alpha  occ. eigenvalues --  -19.16007 -14.37844 -14.35730 -14.34998 -14.34031
 Alpha  occ. eigenvalues --  -10.34458 -10.33982 -10.30577 -10.28963 -10.27018
 Alpha  occ. eigenvalues --  -10.26480 -10.26444 -10.25513 -10.25356 -10.25162
 Alpha  occ. eigenvalues --  -10.24867 -10.24129 -10.24100 -10.24091 -10.23911
 Alpha  occ. eigenvalues --  -10.23833 -10.23828 -10.23746 -10.23741 -10.23704
 Alpha  occ. eigenvalues --  -10.23361 -10.23321 -10.23241 -10.23219 -10.22773
 Alpha  occ. eigenvalues --  -10.22676 -10.22519 -10.22379 -10.22371 -10.22352
 Alpha  occ. eigenvalues --  -10.22210 -10.22141 -10.22052 -10.22041 -10.21890
 Alpha  occ. eigenvalues --  -10.21823 -10.21815 -10.21724 -10.21457 -10.21296
 Alpha  occ. eigenvalues --  -10.21223 -10.21208 -10.21102 -10.21028 -10.20940
 Alpha  occ. eigenvalues --  -10.20901 -10.20893 -10.20614 -10.20584 -10.20500
 Alpha  occ. eigenvalues --  -10.20464 -10.20200 -10.19663 -10.18290 -10.18276
 Alpha  occ. eigenvalues --   -3.08437  -1.83369  -1.82896  -1.82865  -1.14059
 Alpha  occ. eigenvalues --   -1.13012  -1.09010  -1.05208  -1.03300  -1.00113
 Alpha  occ. eigenvalues --   -0.98044  -0.97053  -0.94924  -0.87333  -0.86757
 Alpha  occ. eigenvalues --   -0.85683  -0.85106  -0.84695  -0.84248  -0.84007
 Alpha  occ. eigenvalues --   -0.83108  -0.82768  -0.82600  -0.81728  -0.81089
 Alpha  occ. eigenvalues --   -0.80440  -0.79710  -0.78818  -0.77675  -0.77389
 Alpha  occ. eigenvalues --   -0.76498  -0.75890  -0.75634  -0.75260  -0.74285
 Alpha  occ. eigenvalues --   -0.73140  -0.72154  -0.71975  -0.71055  -0.70839
 Alpha  occ. eigenvalues --   -0.70669  -0.70056  -0.69434  -0.68665  -0.68010
 Alpha  occ. eigenvalues --   -0.66968  -0.66688  -0.65149  -0.63899  -0.63462
 Alpha  occ. eigenvalues --   -0.62327  -0.61855  -0.61542  -0.61123  -0.60484
 Alpha  occ. eigenvalues --   -0.59312  -0.59192  -0.58883  -0.58761  -0.58142
 Alpha  occ. eigenvalues --   -0.56963  -0.56918  -0.56260  -0.55470  -0.54663
 Alpha  occ. eigenvalues --   -0.54583  -0.54142  -0.53503  -0.53329  -0.52952
 Alpha  occ. eigenvalues --   -0.52737  -0.52525  -0.51880  -0.51282  -0.51040
 Alpha  occ. eigenvalues --   -0.50516  -0.50413  -0.50180  -0.49812  -0.49278
 Alpha  occ. eigenvalues --   -0.49182  -0.48901  -0.48740  -0.48093  -0.48035
 Alpha  occ. eigenvalues --   -0.47780  -0.47752  -0.47374  -0.47286  -0.46864
 Alpha  occ. eigenvalues --   -0.46753  -0.46441  -0.46364  -0.45887  -0.45804
 Alpha  occ. eigenvalues --   -0.45554  -0.45318  -0.45126  -0.44874  -0.44777
 Alpha  occ. eigenvalues --   -0.44337  -0.44215  -0.44085  -0.43995  -0.43953
 Alpha  occ. eigenvalues --   -0.43841  -0.43639  -0.43259  -0.42742  -0.42703
 Alpha  occ. eigenvalues --   -0.42507  -0.42501  -0.42213  -0.42131  -0.41843
 Alpha  occ. eigenvalues --   -0.41674  -0.41593  -0.41470  -0.41262  -0.40955
 Alpha  occ. eigenvalues --   -0.40797  -0.40651  -0.40173  -0.39657  -0.39475
 Alpha  occ. eigenvalues --   -0.39313  -0.39121  -0.39007  -0.38909  -0.38792
 Alpha  occ. eigenvalues --   -0.38561  -0.38447  -0.38405  -0.38225  -0.38130
 Alpha  occ. eigenvalues --   -0.37856  -0.37593  -0.37347  -0.37296  -0.37190
 Alpha  occ. eigenvalues --   -0.37030  -0.36961  -0.36532  -0.36237  -0.35991
 Alpha  occ. eigenvalues --   -0.35947  -0.35526  -0.35508  -0.35044  -0.34606
 Alpha  occ. eigenvalues --   -0.34526  -0.34328  -0.34021  -0.33550  -0.33246
 Alpha  occ. eigenvalues --   -0.33098  -0.33024  -0.32777  -0.32586  -0.32353
 Alpha  occ. eigenvalues --   -0.32226  -0.32199  -0.32084  -0.30894  -0.30158
 Alpha  occ. eigenvalues --   -0.29480  -0.29402  -0.28722  -0.28585  -0.27429
 Alpha  occ. eigenvalues --   -0.26959  -0.26493  -0.25402  -0.24261  -0.21736
 Alpha  occ. eigenvalues --   -0.19377
 Alpha virt. eigenvalues --   -0.06756  -0.04077   0.00145   0.02387   0.02516
 Alpha virt. eigenvalues --    0.02978   0.04152   0.04645   0.05699   0.05798
 Alpha virt. eigenvalues --    0.06433   0.08778   0.09115   0.09165   0.09481

 Mulliken charges:
               1
     1  Mg   0.824896
     2  C    0.124358
     3  C   -0.189691
     4  C   -0.118173
     5  C   -0.168224
     6  N   -0.674247
     7  C    0.330035
     8  C   -0.165728
     9  C   -0.155466
    10  C    0.392236
    11  C   -0.291413
    12  C   -0.167378
    13  C   -0.290220
    14  C    0.629952
    15  O   -0.488337
    16  O   -0.474006
    17  N   -0.717156
    18  C    0.243913
    19  C   -0.003637
    20  C    0.031036
    21  C    0.319024
    22  C   -0.365535
    23  C   -0.051530
    24  C   -0.253551
    25  N   -0.688705
    26  C    0.300572
    27  C   -0.021123
    28  C    0.037400
    29  C    0.296453
    30  C   -0.365580
    31  C   -0.265131
    32  C   -0.281562
    33  N   -0.721000
    34  C    0.234996
    35  C    0.013056
    36  C    0.012180
    37  C    0.322253
    38  C   -0.382548
    39  C    0.372864
    40  O   -0.418787
    41  C   -0.400193
    42  C    0.608424
    43  O   -0.409455
    44  O   -0.468236
    45  C   -0.091919
    46  C    0.028362
    47  C   -0.107193
    48  C    0.082798
    49  C   -0.335951
    50  C   -0.216449
    51  C   -0.172413
    52  C   -0.149067
    53  C   -0.059438
    54  C   -0.313969
    55  C   -0.179463
    56  C   -0.160638
    57  C   -0.159906
    58  C   -0.085368
    59  C   -0.284533
    60  C   -0.198560
    61  C   -0.142956
    62  C   -0.167963
    63  C   -0.054336
    64  C   -0.321616
    65  C   -0.311708
    66  H    0.054754
    67  H    0.071351
    68  H    0.092201
    69  H    0.119377
    70  H    0.110120
    71  H    0.111186
    72  H    0.097683
    73  H    0.124251
    74  H    0.102676
    75  H    0.129330
    76  H    0.121471
    77  H    0.138070
    78  H    0.130803
    79  H    0.128041
    80  H    0.120090
    81  H    0.088659
    82  H    0.079378
    83  H    0.092790
    84  H    0.111919
    85  H    0.117052
    86  H    0.132344
    87  H    0.096965
    88  H    0.088945
    89  H    0.056457
    90  H    0.122520
    91  H    0.098329
    92  H    0.134726
    93  H    0.132341
    94  H    0.129878
    95  H    0.152531
    96  H    0.114764
    97  H    0.137784
    98  H    0.128726
    99  H    0.119335
   100  H    0.107364
   101  H    0.081509
   102  H    0.129655
   103  H    0.085384
   104  H    0.127950
   105  H    0.092395
   106  H    0.106018
   107  H    0.099245
   108  H    0.071188
   109  H    0.084790
   110  H    0.055340
   111  H    0.090091
   112  H    0.111897
   113  H    0.103572
   114  H    0.092413
   115  H    0.091467
   116  H    0.069433
   117  H    0.096908
   118  H    0.100419
   119  H    0.097714
   120  H    0.069955
   121  H    0.079290
   122  H    0.091132
   123  H    0.075073
   124  H    0.114122
   125  H    0.084395
   126  H    0.085542
   127  H    0.100105
   128  H    0.093812
   129  H    0.064895
   130  H    0.075802
   131  H    0.091282
   132  H    0.095205
   133  H    0.113312
   134  H    0.103075
   135  H    0.086370
   136  H    0.101920
   137  H    0.098366
 Sum of Mulliken charges =  -0.00000

 Dipole moment (field-independent basis, Debye):
    X=              4.5717    Y=              2.3416    Z=              1.1270  Tot=              5.2586
 Quadrupole moment (field-independent basis, Debye-Ang):
   XX=           -369.2961   YY=           -390.1752   ZZ=           -397.9545
   XY=            -17.9183   XZ=             -0.1586   YZ=             -2.1816

 Normal termination of Gaussian 16 at Wed Sep 18 10:13:39 2019.
