 Gaussian 09, Revision D.01,
 Gaussian 09:  ES64L-G09RevD.01 24-Apr-2013

 -------------------------------------
 # td=(NStates=1) CAM-B3LYP/6-31G(d,p)
 -------------------------------------

 --
 TD
 --
 Symbolic Z-matrix:
 Charge =  0 Multiplicity = 1

                         Standard orientation:
 ---------------------------------------------------------------------
 Center     Atomic      Atomic             Coordinates (Angstroms)
 Number     Number       Type             X           Y           Z
 ---------------------------------------------------------------------
      1         12           0       -7.122606    0.554369    0.025695
      2          6           0       -4.788202   -1.944294    0.519665
      3          6           0       -4.877576    2.817959    1.174990
      4          6           0       -9.416819    3.141948   -0.455557
      5          6           0       -9.411412   -1.722168   -0.901070
      6          7           0       -5.077827    0.412432    0.715517
      7          6           0       -4.297556   -0.651895    0.829650
      8          6           0       -2.872147   -0.352933    1.256080
      9          6           0       -3.004468    1.211787    1.697774
     10          6           0       -4.405912    1.525017    1.135109
     11          6           0       -2.923221    1.364489    3.185238
     12          6           0       -1.928867   -0.696925    0.006010
     13          6           0       -0.455152   -0.363904    0.525907
     14          6           0        0.480261   -0.537105   -0.618779
     15          8           0        0.142963   -0.795778   -1.799263
     16          8           0        1.776980   -0.448127   -0.169353
     17          7           0       -7.093964    2.588756    0.305373
     18          6           0       -6.087415    3.285463    0.719825
     19          6           0       -6.450597    4.654896    0.865187
     20          6           0       -7.780058    4.726400    0.351292
     21          6           0       -8.207614    3.374447    0.104571
     22          6           0       -5.512940    5.807362    1.180355
     23          6           0       -8.573149    5.911853    0.164988
     24          6           0       -8.440368    7.135651    0.862144
     25          7           0       -9.064340    0.621260   -0.598073
     26          6           0       -9.860574    1.720271   -0.745848
     27          6           0      -11.154531    1.483472   -1.216046
     28          6           0      -11.221820    0.064561   -1.389938
     29          6           0       -9.934343   -0.414690   -1.009652
     30          6           0      -12.247002    2.457947   -1.302637
     31          6           0      -12.409204   -0.751267   -1.804948
     32          6           0      -12.273826   -1.228503   -3.321915
     33          7           0       -7.109061   -1.407387   -0.179521
     34          6           0       -8.218772   -2.264743   -0.514623
     35          6           0       -7.827087   -3.615996   -0.424774
     36          6           0       -6.514022   -3.592671    0.034504
     37          6           0       -6.146860   -2.179437    0.163996
     38          6           0       -8.600363   -4.843243   -0.756051
     39          6           0       -5.332433   -4.439383    0.246089
     40          8           0       -5.176818   -5.576795    0.344542
     41          6           0       -4.119396   -3.357204    0.576142
     42          6           0       -3.455685   -3.679581    1.895332
     43          8           0       -3.781999   -3.074434    2.992113
     44          8           0       -2.569533   -4.703129    1.737180
     45          6           0       -1.901566   -5.063579    2.952157
     46          6           0        2.858778   -0.566570   -1.263181
     47          6           0        4.160288   -0.370926   -0.558547
     48          6           0        5.069740    0.420727   -0.899988
     49          6           0        5.071253    1.285256   -2.112672
     50          6           0        6.473900    0.542334   -0.130450
     51          6           0        7.605059   -0.069125   -0.891928
     52          6           0        8.809543   -0.179497    0.014559
     53          6           0       10.042228   -0.593089   -0.709074
     54          6           0       10.101350   -1.979353   -1.313505
     55          6           0       11.389275   -0.339824    0.034116
     56          6           0       12.717914   -0.598526   -0.757852
     57          6           0       13.930618   -0.243225    0.134905
     58          6           0       15.299307   -0.355319   -0.623300
     59          6           0       15.737817   -1.704369   -0.959560
     60          6           0       16.376847    0.462561    0.306470
     61          6           0       17.699485    0.629368   -0.273015
     62          6           0       18.699261    1.388549    0.706133
     63          6           0       20.150910    1.268110    0.198564
     64          6           0       20.336119    2.103723   -1.066649
     65          6           0       21.035594    1.882003    1.346069
     66          1           0       -4.170121    3.604006    1.472657
     67          1           0      -10.063791    3.847786   -0.814767
     68          1           0      -10.249724   -2.354077   -1.241035
     69          1           0       -2.574163   -1.028537    2.141397
     70          1           0       -2.285631    1.611333    1.272583
     71          1           0       -1.924354    1.149557    3.666151
     72          1           0       -3.052124    2.343908    3.414979
     73          1           0       -3.533036    0.771904    3.697841
     74          1           0       -2.003352   -1.679907   -0.338828
     75          1           0       -2.170662   -0.013706   -0.782820
     76          1           0       -0.468496    0.832245    0.958890
     77          1           0       -0.146607   -1.098582    1.130482
     78          1           0       -5.785156    6.781269    0.673741
     79          1           0       -5.381779    5.967736    2.332078
     80          1           0       -4.475166    5.532836    0.790225
     81          1           0       -9.365900    5.918263   -0.797367
     82          1           0       -9.033712    7.996615    0.476313
     83          1           0       -7.615483    7.219196    1.645777
     84          1           0      -12.030346    3.086129   -2.142859
     85          1           0      -13.048938    1.861939   -1.663148
     86          1           0      -12.609101    3.100019   -0.327846
     87          1           0      -12.728016   -1.496584   -1.296635
     88          1           0      -13.395237   -0.065751   -1.818737
     89          1           0      -13.111826   -1.920162   -3.426681
     90          1           0      -12.059247   -0.286659   -3.855183
     91          1           0      -11.300497   -1.814946   -3.446001
     92          1           0       -9.062923   -4.937574   -1.885685
     93          1           0       -8.083187   -5.726571   -0.362139
     94          1           0       -9.694816   -4.685077   -0.172166
     95          1           0       -3.380357   -3.454043   -0.124957
     96          1           0       -1.442145   -4.046874    3.456198
     97          1           0       -2.572530   -5.530441    3.825461
     98          1           0       -1.258097   -5.785930    2.601620
     99          1           0        2.675565   -1.537369   -1.886602
    100          1           0        2.668518    0.117319   -1.807989
    101          1           0        4.147478   -1.145744    0.224796
    102          1           0        4.089485    1.345093   -2.601573
    103          1           0        5.523654    2.239733   -1.998565
    104          1           0        5.699546    0.773384   -2.838118
    105          1           0        6.837608    1.551454   -0.081985
    106          1           0        6.147178   -0.025423    0.795861
    107          1           0        7.371459   -1.029358   -1.239167
    108          1           0        8.016657    0.803956   -1.695251
    109          1           0        8.997900    0.959286    0.501050
    110          1           0        8.659784   -0.724002    0.859377
    111          1           0       10.167660    0.005766   -1.701115
    112          1           0        9.174805   -2.363823   -1.914108
    113          1           0       10.928656   -2.391441   -1.833019
    114          1           0        9.987103   -2.784104   -0.499641
    115          1           0       11.585970    0.685648    0.250518
    116          1           0       11.296067   -0.913539    0.972916
    117          1           0       12.942289   -1.643343   -0.936972
    118          1           0       12.835181   -0.095064   -1.724688
    119          1           0       13.762227    0.805291    0.249140
    120          1           0       14.076679   -0.886552    0.917670
    121          1           0       15.287181    0.304555   -1.509386
    122          1           0       15.749921   -2.286057    0.002145
    123          1           0       15.033841   -2.310267   -1.583742
    124          1           0       16.655189   -1.679139   -1.487722
    125          1           0       15.880286    1.332705    0.800935
    126          1           0       16.517750   -0.041400    1.431877
    127          1           0       18.200102   -0.220773   -0.546297
    128          1           0       17.546926    1.182837   -1.210761
    129          1           0       18.122721    2.520723    0.661402
    130          1           0       18.584376    0.858691    1.722744
    131          1           0       20.382383    0.163497    0.295250
    132          1           0       20.197132    3.298576   -0.925767
    133          1           0       21.495914    2.194768   -1.369274
    134          1           0       19.546029    1.790537   -1.977854
    135          1           0       21.196039    1.244585    2.121254
    136          1           0       22.005451    2.158323    1.042126
    137          1           0       20.471158    2.868734    1.610237
 ---------------------------------------------------------------------

 SCF Done:  E(RCAM-B3LYP) =  -2932.61428862     A.U. after   16 cycles

 Excitation energies and oscillator strengths:

 Excited State   1:      Singlet-A      2.2681 eV  546.64 nm  f=0.1399  <S**2>=0.000
     240 -> 242       -0.30336
     240 -> 243        0.24241
     241 -> 242        0.52728
     241 -> 243        0.23804
 This state for optimization and/or second-order correction.
 Total Energy, E(TD-HF/TD-KS) =  -2932.53093728
 Copying the excited state density for this state as the 1-particle RhoCI density.

 The electronic state is 1-A.
 Alpha  occ. eigenvalues --  -46.83813 -19.27636 -19.25704 -19.21294 -19.20497
 Alpha  occ. eigenvalues --  -19.20372 -14.41061 -14.39114 -14.38914 -14.38754
 Alpha  occ. eigenvalues --  -10.39401 -10.38937 -10.35436 -10.32552 -10.30907
 Alpha  occ. eigenvalues --  -10.30665 -10.30250 -10.29180 -10.29077 -10.28827
 Alpha  occ. eigenvalues --  -10.28750 -10.28711 -10.28662 -10.28566 -10.28330
 Alpha  occ. eigenvalues --  -10.28191 -10.28033 -10.28025 -10.27672 -10.27643
 Alpha  occ. eigenvalues --  -10.27638 -10.27494 -10.27217 -10.27194 -10.27115
 Alpha  occ. eigenvalues --  -10.27077 -10.27007 -10.26899 -10.26683 -10.26670
 Alpha  occ. eigenvalues --  -10.26652 -10.26474 -10.26459 -10.26415 -10.26224
 Alpha  occ. eigenvalues --  -10.26124 -10.25999 -10.25961 -10.25886 -10.25875
 Alpha  occ. eigenvalues --  -10.25862 -10.25789 -10.25451 -10.25309 -10.25274
 Alpha  occ. eigenvalues --  -10.25176 -10.25161 -10.25113 -10.24824 -10.24781
 Alpha  occ. eigenvalues --  -10.24338 -10.23831 -10.23795 -10.23739 -10.23690
 Alpha  occ. eigenvalues --   -3.12945  -1.87649  -1.87174  -1.87138  -1.17209
 Alpha  occ. eigenvalues --   -1.15226  -1.14936  -1.06584  -1.05788  -1.05417
 Alpha  occ. eigenvalues --   -1.04536  -1.03594  -1.01614  -0.92468  -0.90796
 Alpha  occ. eigenvalues --   -0.90722  -0.89924  -0.89373  -0.89139  -0.88392
 Alpha  occ. eigenvalues --   -0.88258  -0.88086  -0.87695  -0.87434  -0.86345
 Alpha  occ. eigenvalues --   -0.85649  -0.84036  -0.83614  -0.83426  -0.82061
 Alpha  occ. eigenvalues --   -0.81719  -0.81076  -0.80787  -0.79756  -0.78130
 Alpha  occ. eigenvalues --   -0.77587  -0.76612  -0.76416  -0.75584  -0.75379
 Alpha  occ. eigenvalues --   -0.75129  -0.74854  -0.74524  -0.73109  -0.72455
 Alpha  occ. eigenvalues --   -0.72037  -0.70879  -0.69558  -0.69193  -0.68059
 Alpha  occ. eigenvalues --   -0.67200  -0.66311  -0.66080  -0.64626  -0.64611
 Alpha  occ. eigenvalues --   -0.63542  -0.63397  -0.63317  -0.62819  -0.61999
 Alpha  occ. eigenvalues --   -0.61425  -0.60863  -0.60462  -0.59400  -0.59244
 Alpha  occ. eigenvalues --   -0.58220  -0.57560  -0.57255  -0.56883  -0.56739
 Alpha  occ. eigenvalues --   -0.56362  -0.56005  -0.55734  -0.54921  -0.54820
 Alpha  occ. eigenvalues --   -0.54486  -0.53931  -0.53802  -0.53429  -0.53085
 Alpha  occ. eigenvalues --   -0.52797  -0.52494  -0.51705  -0.51626  -0.51360
 Alpha  occ. eigenvalues --   -0.51147  -0.51042  -0.50888  -0.50625  -0.50477
 Alpha  occ. eigenvalues --   -0.50265  -0.50030  -0.49925  -0.49708  -0.49573
 Alpha  occ. eigenvalues --   -0.49375  -0.49173  -0.49017  -0.48784  -0.48638
 Alpha  occ. eigenvalues --   -0.48584  -0.48066  -0.47726  -0.47546  -0.47517
 Alpha  occ. eigenvalues --   -0.46802  -0.46347  -0.46295  -0.46251  -0.46118
 Alpha  occ. eigenvalues --   -0.45894  -0.45729  -0.45594  -0.45323  -0.45173
 Alpha  occ. eigenvalues --   -0.44826  -0.44800  -0.44597  -0.44401  -0.44127
 Alpha  occ. eigenvalues --   -0.43763  -0.43585  -0.43482  -0.43351  -0.43024
 Alpha  occ. eigenvalues --   -0.42880  -0.42737  -0.42589  -0.42456  -0.42323
 Alpha  occ. eigenvalues --   -0.42230  -0.42001  -0.41918  -0.41721  -0.41650
 Alpha  occ. eigenvalues --   -0.41315  -0.40843  -0.40677  -0.40331  -0.40122
 Alpha  occ. eigenvalues --   -0.39893  -0.39859  -0.39681  -0.39658  -0.39277
 Alpha  occ. eigenvalues --   -0.38910  -0.38834  -0.38371  -0.38312  -0.37928
 Alpha  occ. eigenvalues --   -0.37714  -0.37011  -0.36824  -0.36631  -0.36340
 Alpha  occ. eigenvalues --   -0.35673  -0.35656  -0.35518  -0.35400  -0.35230
 Alpha  occ. eigenvalues --   -0.34827  -0.34612  -0.34561  -0.33498  -0.33150
 Alpha  occ. eigenvalues --   -0.32702  -0.32404  -0.32209  -0.31407  -0.30536
 Alpha  occ. eigenvalues --   -0.29854  -0.29489  -0.27489  -0.26729  -0.22843
 Alpha  occ. eigenvalues --   -0.21530
 Alpha virt. eigenvalues --   -0.05557  -0.03538   0.02154   0.03891   0.05021
 Alpha virt. eigenvalues --    0.05448   0.06177   0.07005   0.07499   0.07524
 Alpha virt. eigenvalues --    0.08886   0.10527   0.10881   0.11411   0.11717

 Mulliken charges:
               1
     1  Mg   0.817861
     2  C    0.031145
     3  C   -0.199092
     4  C   -0.129310
     5  C   -0.198679
     6  N   -0.634752
     7  C    0.338790
     8  C   -0.193241
     9  C   -0.098813
    10  C    0.325614
    11  C   -0.305963
    12  C   -0.174133
    13  C   -0.248564
    14  C    0.608181
    15  O   -0.500938
    16  O   -0.517719
    17  N   -0.728466
    18  C    0.375625
    19  C    0.007474
    20  C    0.003903
    21  C    0.329651
    22  C   -0.385226
    23  C   -0.102650
    24  C   -0.251692
    25  N   -0.683009
    26  C    0.269080
    27  C   -0.001450
    28  C    0.044877
    29  C    0.243994
    30  C   -0.365211
    31  C   -0.247816
    32  C   -0.309144
    33  N   -0.733462
    34  C    0.263590
    35  C    0.106470
    36  C   -0.062071
    37  C    0.337773
    38  C   -0.371547
    39  C    0.370969
    40  O   -0.398083
    41  C   -0.321988
    42  C    0.626687
    43  O   -0.513669
    44  O   -0.441529
    45  C   -0.073467
    46  C    0.045468
    47  C   -0.143872
    48  C    0.121921
    49  C   -0.376794
    50  C   -0.209648
    51  C   -0.163932
    52  C   -0.158487
    53  C   -0.046952
    54  C   -0.321195
    55  C   -0.164037
    56  C   -0.201350
    57  C   -0.171201
    58  C   -0.076480
    59  C   -0.300665
    60  C   -0.169717
    61  C   -0.175932
    62  C   -0.156520
    63  C   -0.054341
    64  C   -0.287889
    65  C   -0.308637
    66  H    0.075976
    67  H    0.095552
    68  H    0.079696
    69  H    0.121836
    70  H    0.084104
    71  H    0.094838
    72  H    0.114540
    73  H    0.138423
    74  H    0.129815
    75  H    0.129052
    76  H    0.117780
    77  H    0.147495
    78  H    0.125690
    79  H    0.112067
    80  H    0.110168
    81  H    0.080866
    82  H    0.109531
    83  H    0.111446
    84  H    0.122572
    85  H    0.112276
    86  H    0.110033
    87  H    0.117866
    88  H    0.082199
    89  H    0.110286
    90  H    0.119210
    91  H    0.098579
    92  H    0.119438
    93  H    0.151740
    94  H    0.097236
    95  H    0.145504
    96  H    0.112921
    97  H    0.122648
    98  H    0.131883
    99  H    0.126331
   100  H    0.111016
   101  H    0.096719
   102  H    0.109258
   103  H    0.119605
   104  H    0.133522
   105  H    0.106559
   106  H    0.098858
   107  H    0.112088
   108  H    0.074370
   109  H    0.056179
   110  H    0.105965
   111  H    0.069939
   112  H    0.082340
   113  H    0.125438
   114  H    0.073671
   115  H    0.092688
   116  H    0.088783
   117  H    0.091008
   118  H    0.093372
   119  H    0.093865
   120  H    0.102606
   121  H    0.076597
   122  H    0.095326
   123  H    0.097323
   124  H    0.111243
   125  H    0.092419
   126  H    0.034973
   127  H    0.103099
   128  H    0.088331
   129  H    0.064188
   130  H    0.086229
   131  H    0.096482
   132  H    0.093515
   133  H    0.087792
   134  H    0.086695
   135  H    0.107487
   136  H    0.097662
   137  H    0.093453
 Sum of Mulliken charges =   0.00000

 Dipole moment (field-independent basis, Debye):
    X=              3.0998    Y=              3.3308    Z=             -0.5990  Tot=              4.5893
 Quadrupole moment (field-independent basis, Debye-Ang):
   XX=           -339.1512   YY=           -388.0198   ZZ=           -401.5177
   XY=            -19.2083   XZ=             12.8609   YZ=             -1.8471

 Normal termination of Gaussian 09 at Sat Jul  6 17:14:58 2019.
