 Gaussian 09, Revision D.01,
 Gaussian 09:  ES64L-G09RevD.01 24-Apr-2013

 -------------------------------------
 # td=(NStates=1) CAM-B3LYP/6-31G(d,p)
 -------------------------------------

 --
 TD
 --
 Symbolic Z-matrix:
 Charge =  0 Multiplicity = 1

                         Standard orientation:
 ---------------------------------------------------------------------
 Center     Atomic      Atomic             Coordinates (Angstroms)
 Number     Number       Type             X           Y           Z
 ---------------------------------------------------------------------
      1         12           0       -7.204620    0.622167    0.083725
      2          6           0       -4.812907   -2.044645    0.631332
      3          6           0       -4.773489    2.810409    1.090840
      4          6           0       -9.322707    3.097465   -0.320594
      5          6           0       -9.457986   -1.733590   -0.978369
      6          7           0       -5.044274    0.467494    0.725763
      7          6           0       -4.346821   -0.722468    0.879886
      8          6           0       -2.921559   -0.428822    1.276600
      9          6           0       -3.034343    1.071573    1.659309
     10          6           0       -4.313403    1.488292    1.116432
     11          6           0       -3.199630    1.260620    3.279661
     12          6           0       -1.898873   -0.633715    0.221956
     13          6           0       -0.398544   -0.501784    0.535414
     14          6           0        0.524664   -0.736437   -0.641360
     15          8           0        0.283355   -1.184885   -1.684459
     16          8           0        1.781201   -0.287824   -0.224279
     17          7           0       -7.144197    2.492855    0.378476
     18          6           0       -6.065084    3.281459    0.740239
     19          6           0       -6.395005    4.774297    0.826858
     20          6           0       -7.733217    4.764583    0.406656
     21          6           0       -8.129034    3.513677    0.171536
     22          6           0       -5.489378    5.913174    1.199351
     23          6           0       -8.541780    6.011776    0.181487
     24          6           0       -8.565589    7.165692    0.834624
     25          7           0       -9.159932    0.716311   -0.530096
     26          6           0       -9.850638    1.776674   -0.678945
     27          6           0      -11.203122    1.477854   -1.193834
     28          6           0      -11.247655    0.191262   -1.327643
     29          6           0       -9.931192   -0.402303   -0.983392
     30          6           0      -12.147590    2.638339   -1.667863
     31          6           0      -12.455637   -0.694082   -1.851331
     32          6           0      -12.437091   -1.095146   -3.453632
     33          7           0       -7.187865   -1.322802   -0.135065
     34          6           0       -8.237207   -2.220310   -0.644634
     35          6           0       -7.765651   -3.570902   -0.641996
     36          6           0       -6.512683   -3.513216   -0.187010
     37          6           0       -6.158281   -2.174196    0.171190
     38          6           0       -8.657306   -4.798974   -0.872361
     39          6           0       -5.376010   -4.331978    0.111705
     40          8           0       -5.245442   -5.648507    0.144206
     41          6           0       -4.244815   -3.415269    0.605648
     42          6           0       -3.617566   -3.688051    1.947565
     43          8           0       -3.849347   -3.107408    3.036033
     44          8           0       -2.834143   -4.812993    1.826708
     45          6           0       -2.309576   -5.265582    3.063271
     46          6           0        2.830294   -0.573603   -1.131929
     47          6           0        4.120130   -0.285490   -0.412879
     48          6           0        5.170851    0.383076   -0.851349
     49          6           0        5.114100    1.265583   -2.075898
     50          6           0        6.420587    0.421148   -0.058770
     51          6           0        7.718432    0.053990   -0.836795
     52          6           0        8.962840   -0.283480    0.012643
     53          6           0       10.197784   -0.590455   -0.820496
     54          6           0       10.076968   -2.064071   -1.278663
     55          6           0       11.499131   -0.211087    0.039657
     56          6           0       12.854550   -0.456645   -0.694441
     57          6           0       13.949918   -0.010536    0.160372
     58          6           0       15.276721   -0.121800   -0.529981
     59          6           0       15.633917   -1.537318   -1.000009
     60          6           0       16.463677    0.368041    0.445341
     61          6           0       17.851604    0.522731   -0.313303
     62          6           0       18.782293    1.220771    0.664310
     63          6           0       20.280386    1.313188    0.114657
     64          6           0       20.454489    2.062405   -1.229169
     65          6           0       21.327060    1.875616    1.168290
     66          1           0       -3.995732    3.694780    1.393238
     67          1           0       -9.971834    4.084945   -0.499426
     68          1           0      -10.339583   -2.371628   -1.264235
     69          1           0       -2.548566   -1.059150    2.148562
     70          1           0       -2.099466    1.818621    1.559209
     71          1           0       -1.892429    1.175286    3.445548
     72          1           0       -3.516767    2.206050    3.574982
     73          1           0       -3.874292    0.466556    3.791569
     74          1           0       -1.940541   -1.648139   -0.227910
     75          1           0       -2.215958    0.008928   -0.696509
     76          1           0       -0.194344    0.658394    0.915011
     77          1           0       -0.012914   -1.049720    1.359198
     78          1           0       -5.857789    6.982077    0.989650
     79          1           0       -5.398749    5.848176    2.375571
     80          1           0       -4.430886    5.894457    0.739999
     81          1           0       -9.057694    6.061459   -0.739667
     82          1           0       -9.187941    7.857170    0.577065
     83          1           0       -8.069356    7.189305    1.765104
     84          1           0      -11.868481    2.872299   -2.546284
     85          1           0      -13.102189    1.967816   -1.851152
     86          1           0      -12.371329    3.394806   -0.895760
     87          1           0      -12.389500   -1.673151   -1.324135
     88          1           0      -13.274181   -0.305499   -1.661686
     89          1           0      -13.279579   -1.676006   -3.901235
     90          1           0      -12.450202   -0.305161   -4.043053
     91          1           0      -11.538507   -1.784110   -3.619246
     92          1           0       -9.105208   -4.846582   -1.798880
     93          1           0       -8.143548   -5.774476   -0.904657
     94          1           0       -9.523291   -5.033507   -0.362654
     95          1           0       -3.404464   -3.538994   -0.278189
     96          1           0       -1.796326   -4.481050    3.560038
     97          1           0       -3.260970   -5.451426    3.706506
     98          1           0       -1.632584   -6.171582    2.781451
     99          1           0        2.672359   -1.667661   -1.339156
    100          1           0        2.649190    0.092269   -1.993111
    101          1           0        4.256382   -0.861657    0.487375
    102          1           0        4.005286    1.201463   -2.447935
    103          1           0        5.516642    2.234541   -1.950490
    104          1           0        5.729738    0.827599   -2.999883
    105          1           0        6.481053    1.464024    0.486916
    106          1           0        6.262364   -0.443527    0.694736
    107          1           0        7.558416   -0.900281   -1.327569
    108          1           0        7.941167    0.659537   -1.694869
    109          1           0        8.971573    0.576731    0.510674
    110          1           0        8.820497   -0.985627    0.686811
    111          1           0       10.024635    0.329463   -1.691963
    112          1           0        9.210243   -2.613929   -1.899126
    113          1           0       10.869111   -2.491068   -1.955706
    114          1           0       10.251352   -2.543710   -0.174198
    115          1           0       11.437001    0.733004    0.555781
    116          1           0       11.492188   -1.090096    0.946744
    117          1           0       13.050034   -1.477231   -1.045114
    118          1           0       12.576511    0.091942   -1.707941
    119          1           0       13.765445    0.970327    0.661457
    120          1           0       13.980356   -0.596460    1.052653
    121          1           0       15.350530    0.490171   -1.386814
    122          1           0       15.548873   -2.296388   -0.059323
    123          1           0       14.844155   -1.814372   -1.605926
    124          1           0       16.607827   -1.660901   -1.671442
    125          1           0       16.318197    1.217484    1.027295
    126          1           0       16.600596   -0.539650    1.121325
    127          1           0       18.261769   -0.525299   -0.662569
    128          1           0       17.877346    1.082697   -1.374690
    129          1           0       18.326218    2.170434    0.985252
    130          1           0       18.773206    0.930544    1.755242
    131          1           0       20.623866    0.306308   -0.019794
    132          1           0       20.257150    2.860608   -1.125600
    133          1           0       21.542274    2.144017   -1.685112
    134          1           0       19.946187    1.558300   -2.019675
    135          1           0       21.368702    1.353503    2.194102
    136          1           0       22.419875    2.067877    1.022170
    137          1           0       20.927049    2.817538    1.436462
 ---------------------------------------------------------------------

 SCF Done:  E(RCAM-B3LYP) =  -2932.52469872     A.U. after   17 cycles

 Excitation energies and oscillator strengths:

 Excited State   1:      Singlet-A      2.1674 eV  572.05 nm  f=0.1891  <S**2>=0.000
     240 -> 242        0.14264
     240 -> 243       -0.27761
     241 -> 242        0.61699
     241 -> 243        0.11232
 This state for optimization and/or second-order correction.
 Total Energy, E(TD-HF/TD-KS) =  -2932.44505006
 Copying the excited state density for this state as the 1-particle RhoCI density.

 The electronic state is 1-A.
 Alpha  occ. eigenvalues --  -46.83351 -19.26135 -19.24586 -19.22395 -19.21691
 Alpha  occ. eigenvalues --  -19.18986 -14.41606 -14.39921 -14.39782 -14.39635
 Alpha  occ. eigenvalues --  -10.39999 -10.39210 -10.34927 -10.31603 -10.31470
 Alpha  occ. eigenvalues --  -10.31466 -10.31341 -10.30890 -10.29918 -10.29417
 Alpha  occ. eigenvalues --  -10.29249 -10.29197 -10.29127 -10.28984 -10.28957
 Alpha  occ. eigenvalues --  -10.28877 -10.28796 -10.28740 -10.28551 -10.28371
 Alpha  occ. eigenvalues --  -10.28303 -10.28296 -10.27884 -10.27842 -10.27714
 Alpha  occ. eigenvalues --  -10.27667 -10.27475 -10.27467 -10.27254 -10.27233
 Alpha  occ. eigenvalues --  -10.27175 -10.26925 -10.26828 -10.26698 -10.26602
 Alpha  occ. eigenvalues --  -10.26599 -10.26416 -10.26274 -10.26084 -10.25792
 Alpha  occ. eigenvalues --  -10.25770 -10.25726 -10.25707 -10.25436 -10.25307
 Alpha  occ. eigenvalues --  -10.25173 -10.25111 -10.25012 -10.24853 -10.24787
 Alpha  occ. eigenvalues --  -10.24624 -10.24555 -10.24331 -10.22529 -10.22227
 Alpha  occ. eigenvalues --   -3.12769  -1.87430  -1.87021  -1.86992  -1.18984
 Alpha  occ. eigenvalues --   -1.17165  -1.11116  -1.08064  -1.05367  -1.04728
 Alpha  occ. eigenvalues --   -1.04451  -1.02922  -1.01893  -0.92872  -0.91464
 Alpha  occ. eigenvalues --   -0.90793  -0.90327  -0.89884  -0.89100  -0.88755
 Alpha  occ. eigenvalues --   -0.87920  -0.87852  -0.87297  -0.86883  -0.85642
 Alpha  occ. eigenvalues --   -0.84932  -0.84539  -0.84011  -0.82938  -0.82552
 Alpha  occ. eigenvalues --   -0.81544  -0.80971  -0.80342  -0.79711  -0.79148
 Alpha  occ. eigenvalues --   -0.77941  -0.77707  -0.76674  -0.76222  -0.75884
 Alpha  occ. eigenvalues --   -0.75431  -0.74766  -0.73986  -0.73163  -0.72683
 Alpha  occ. eigenvalues --   -0.72059  -0.71286  -0.70290  -0.68937  -0.68416
 Alpha  occ. eigenvalues --   -0.67760  -0.66587  -0.65133  -0.65064  -0.64558
 Alpha  occ. eigenvalues --   -0.64501  -0.63604  -0.63471  -0.62417  -0.62175
 Alpha  occ. eigenvalues --   -0.61718  -0.61582  -0.60614  -0.59788  -0.59343
 Alpha  occ. eigenvalues --   -0.59066  -0.58751  -0.57900  -0.57158  -0.56800
 Alpha  occ. eigenvalues --   -0.56094  -0.55863  -0.55495  -0.55478  -0.54597
 Alpha  occ. eigenvalues --   -0.54257  -0.53950  -0.53636  -0.53524  -0.53143
 Alpha  occ. eigenvalues --   -0.52857  -0.52646  -0.52236  -0.52204  -0.51966
 Alpha  occ. eigenvalues --   -0.51833  -0.51450  -0.50972  -0.50740  -0.50439
 Alpha  occ. eigenvalues --   -0.50268  -0.50134  -0.49847  -0.49489  -0.49387
 Alpha  occ. eigenvalues --   -0.49320  -0.48663  -0.48537  -0.48182  -0.47898
 Alpha  occ. eigenvalues --   -0.47742  -0.47428  -0.47250  -0.47206  -0.46928
 Alpha  occ. eigenvalues --   -0.46599  -0.46470  -0.46289  -0.46068  -0.46028
 Alpha  occ. eigenvalues --   -0.45606  -0.45313  -0.45191  -0.45005  -0.44848
 Alpha  occ. eigenvalues --   -0.44517  -0.44496  -0.44382  -0.44138  -0.43829
 Alpha  occ. eigenvalues --   -0.43643  -0.43514  -0.43320  -0.43257  -0.43112
 Alpha  occ. eigenvalues --   -0.43099  -0.42739  -0.42530  -0.42434  -0.42075
 Alpha  occ. eigenvalues --   -0.41975  -0.41908  -0.41589  -0.41446  -0.41418
 Alpha  occ. eigenvalues --   -0.41096  -0.40864  -0.40630  -0.40480  -0.40434
 Alpha  occ. eigenvalues --   -0.40320  -0.39954  -0.39623  -0.39516  -0.38923
 Alpha  occ. eigenvalues --   -0.38623  -0.38522  -0.38495  -0.38152  -0.37711
 Alpha  occ. eigenvalues --   -0.37553  -0.37423  -0.37233  -0.36835  -0.36792
 Alpha  occ. eigenvalues --   -0.36307  -0.35753  -0.35682  -0.35587  -0.35396
 Alpha  occ. eigenvalues --   -0.35286  -0.35169  -0.34767  -0.34324  -0.33992
 Alpha  occ. eigenvalues --   -0.33779  -0.32838  -0.32658  -0.30852  -0.30358
 Alpha  occ. eigenvalues --   -0.29882  -0.29491  -0.28975  -0.28888  -0.23150
 Alpha  occ. eigenvalues --   -0.21428
 Alpha virt. eigenvalues --   -0.05985  -0.03220   0.00609   0.03669   0.04723
 Alpha virt. eigenvalues --    0.05817   0.06011   0.06536   0.06770   0.07110
 Alpha virt. eigenvalues --    0.07668   0.09847   0.10770   0.11522   0.11631

 Mulliken charges:
               1
     1  Mg   0.834023
     2  C    0.091114
     3  C   -0.243866
     4  C   -0.234188
     5  C   -0.169873
     6  N   -0.638784
     7  C    0.291785
     8  C   -0.154765
     9  C   -0.186836
    10  C    0.423658
    11  C   -0.285248
    12  C   -0.164100
    13  C   -0.264557
    14  C    0.611123
    15  O   -0.426994
    16  O   -0.503122
    17  N   -0.740780
    18  C    0.313146
    19  C    0.043037
    20  C    0.026612
    21  C    0.350525
    22  C   -0.387578
    23  C   -0.093977
    24  C   -0.212367
    25  N   -0.671037
    26  C    0.327569
    27  C   -0.011430
    28  C    0.009421
    29  C    0.226278
    30  C   -0.338409
    31  C   -0.211293
    32  C   -0.326106
    33  N   -0.737383
    34  C    0.233322
    35  C    0.070703
    36  C    0.030924
    37  C    0.301087
    38  C   -0.392993
    39  C    0.336825
    40  O   -0.516654
    41  C   -0.313166
    42  C    0.647362
    43  O   -0.491923
    44  O   -0.445879
    45  C   -0.080578
    46  C    0.017303
    47  C   -0.129244
    48  C    0.154850
    49  C   -0.355249
    50  C   -0.231405
    51  C   -0.205859
    52  C   -0.144914
    53  C   -0.063614
    54  C   -0.300385
    55  C   -0.167182
    56  C   -0.167815
    57  C   -0.168197
    58  C   -0.062413
    59  C   -0.308930
    60  C   -0.179933
    61  C   -0.167816
    62  C   -0.188749
    63  C   -0.065056
    64  C   -0.269810
    65  C   -0.337511
    66  H    0.072256
    67  H    0.071730
    68  H    0.098017
    69  H    0.124592
    70  H    0.105410
    71  H    0.057982
    72  H    0.128372
    73  H    0.132628
    74  H    0.111595
    75  H    0.102425
    76  H    0.107373
    77  H    0.145882
    78  H    0.128384
    79  H    0.120692
    80  H    0.123986
    81  H    0.102481
    82  H    0.099750
    83  H    0.100905
    84  H    0.146587
    85  H    0.089651
    86  H    0.126573
    87  H    0.100132
    88  H    0.108288
    89  H    0.098711
    90  H    0.123196
    91  H    0.100849
    92  H    0.122704
    93  H    0.144557
    94  H    0.136689
    95  H    0.163726
    96  H    0.130482
    97  H    0.127095
    98  H    0.120904
    99  H    0.120284
   100  H    0.113555
   101  H    0.083657
   102  H    0.092990
   103  H    0.125382
   104  H    0.100595
   105  H    0.092756
   106  H    0.090207
   107  H    0.098324
   108  H    0.097120
   109  H    0.095866
   110  H    0.095149
   111  H    0.042961
   112  H    0.106363
   113  H    0.101176
   114  H    0.087126
   115  H    0.110386
   116  H    0.043092
   117  H    0.106764
   118  H    0.078242
   119  H    0.088027
   120  H    0.099716
   121  H    0.095503
   122  H    0.078470
   123  H    0.111817
   124  H    0.098114
   125  H    0.091591
   126  H    0.090419
   127  H    0.083424
   128  H    0.079768
   129  H    0.088411
   130  H    0.091694
   131  H    0.098330
   132  H    0.104588
   133  H    0.072508
   134  H    0.099709
   135  H    0.082342
   136  H    0.102382
   137  H    0.103888
 Sum of Mulliken charges =   0.00000

 Dipole moment (field-independent basis, Debye):
    X=              0.4709    Y=              6.3198    Z=             -0.1605  Tot=              6.3394
 Quadrupole moment (field-independent basis, Debye-Ang):
   XX=           -357.7138   YY=           -391.6996   ZZ=           -396.1253
   XY=            -33.6811   XZ=             14.8659   YZ=              2.3125

 Normal termination of Gaussian 09 at Fri Jul  5 06:08:10 2019.
