 Gaussian 16, Revision A.03,
 Gaussian 16:  ES64L-G16RevA.03 25-Dec-2016

 ----------------------------------------------------------------------
 # td=(NStates=1) iop(3/107=0140000000,3/108=0140000000) CAM-B3LYP/6-31
 G(d,p)
 ----------------------------------------------------------------------

 --
 TD
 --
 Symbolic Z-matrix:
 Charge =  0 Multiplicity = 1

                         Standard orientation:
 ---------------------------------------------------------------------
 Center     Atomic      Atomic             Coordinates (Angstroms)
 Number     Number       Type             X           Y           Z
 ---------------------------------------------------------------------
      1         12           0       -7.209513    0.639248    0.163071
      2          6           0       -4.837244   -1.937141    0.443328
      3          6           0       -4.822859    2.835590    1.118884
      4          6           0       -9.461760    3.063470   -0.384226
      5          6           0       -9.550416   -1.769933   -0.717272
      6          7           0       -5.122452    0.425157    0.804032
      7          6           0       -4.424284   -0.730391    0.768702
      8          6           0       -2.979715   -0.346888    1.150472
      9          6           0       -3.028618    1.096813    1.663047
     10          6           0       -4.367313    1.536090    1.179610
     11          6           0       -3.060352    1.223648    3.255684
     12          6           0       -1.970433   -0.482580   -0.057890
     13          6           0       -0.454754   -0.524063    0.470792
     14          6           0        0.504707   -0.580042   -0.690727
     15          8           0        0.243039   -0.884692   -1.801211
     16          8           0        1.749732   -0.313415   -0.233444
     17          7           0       -7.113964    2.601769    0.400825
     18          6           0       -6.108925    3.393193    0.840566
     19          6           0       -6.450244    4.728544    0.826012
     20          6           0       -7.712059    4.801364    0.261160
     21          6           0       -8.142918    3.444510   -0.024612
     22          6           0       -5.504116    5.837359    1.230675
     23          6           0       -8.603092    5.928835    0.027170
     24          6           0       -8.547101    7.181179    0.670615
     25          7           0       -9.113576    0.573294   -0.487508
     26          6           0       -9.861635    1.762186   -0.702819
     27          6           0      -11.253317    1.388967   -1.281491
     28          6           0      -11.306031    0.059357   -1.270633
     29          6           0       -9.975131   -0.421202   -0.838189
     30          6           0      -12.306671    2.507692   -1.529211
     31          6           0      -12.365396   -0.942956   -1.766106
     32          6           0      -12.166385   -1.127358   -3.233285
     33          7           0       -7.168345   -1.358068    0.000902
     34          6           0       -8.306368   -2.226159   -0.353867
     35          6           0       -7.778739   -3.621070   -0.461070
     36          6           0       -6.428596   -3.543988   -0.098924
     37          6           0       -6.167594   -2.164422    0.118881
     38          6           0       -8.680043   -4.779818   -0.801202
     39          6           0       -5.197018   -4.370045    0.192480
     40          8           0       -5.053912   -5.540303    0.103806
     41          6           0       -4.133407   -3.336209    0.572159
     42          6           0       -3.621205   -3.609314    1.956869
     43          8           0       -3.771205   -2.986333    2.990881
     44          8           0       -2.763447   -4.640199    1.835718
     45          6           0       -2.023445   -5.023704    3.065883
     46          6           0        2.755621   -0.725859   -1.252913
     47          6           0        4.128918   -0.421372   -0.602131
     48          6           0        5.211746    0.217453   -0.980161
     49          6           0        5.268434    1.070574   -2.307746
     50          6           0        6.504083    0.411407   -0.310912
     51          6           0        7.765328   -0.267423   -0.983748
     52          6           0        8.993694   -0.193483   -0.206303
     53          6           0       10.205247   -0.635945   -0.869595
     54          6           0       10.180304   -2.090754   -1.188092
     55          6           0       11.442182   -0.267195    0.075500
     56          6           0       12.790630   -0.521128   -0.600995
     57          6           0       13.961074   -0.110797    0.286373
     58          6           0       15.251296   -0.062783   -0.554644
     59          6           0       15.643017   -1.537763   -0.972505
     60          6           0       16.383939    0.446137    0.318093
     61          6           0       17.817735    0.530261   -0.245649
     62          6           0       18.688297    1.205522    0.779126
     63          6           0       20.248989    1.362418    0.346941
     64          6           0       20.404123    2.082994   -0.957811
     65          6           0       21.136088    2.019837    1.338870
     66          1           0       -3.833259    3.468062    1.437029
     67          1           0      -10.057539    3.979856   -0.540008
     68          1           0      -10.225741   -2.480090   -1.230822
     69          1           0       -2.686572   -0.964797    2.145516
     70          1           0       -2.538711    1.963494    1.234197
     71          1           0       -2.027691    1.045579    3.591220
     72          1           0       -3.289806    2.292700    3.545077
     73          1           0       -3.774844    0.483271    3.677796
     74          1           0       -2.346232   -1.405361   -0.462842
     75          1           0       -1.991484    0.546568   -0.691738
     76          1           0       -0.407701    0.289798    0.998842
     77          1           0       -0.304164   -1.266738    1.161684
     78          1           0       -5.783098    6.747716    0.550741
     79          1           0       -5.622981    5.979502    2.185558
     80          1           0       -4.503838    5.440040    1.053348
     81          1           0       -9.358474    5.676275   -0.631558
     82          1           0       -9.387407    7.857356    0.546283
     83          1           0       -7.677985    7.381529    1.344224
     84          1           0      -11.987993    3.346301   -2.212238
     85          1           0      -13.416699    1.936156   -1.834193
     86          1           0      -12.547270    2.908009   -0.519450
     87          1           0      -12.057648   -1.753041   -1.182898
     88          1           0      -13.386735   -0.469674   -1.432117
     89          1           0      -12.871451   -1.846093   -3.711503
     90          1           0      -12.389338   -0.161270   -3.774238
     91          1           0      -11.211872   -1.720767   -3.592284
     92          1           0       -8.664544   -4.827653   -1.949101
     93          1           0       -8.065896   -5.739234   -0.414200
     94          1           0       -9.567786   -4.643521   -0.326428
     95          1           0       -3.211571   -3.507313   -0.079157
     96          1           0       -1.419365   -4.266846    3.504920
     97          1           0       -2.729887   -5.293999    3.777021
     98          1           0       -1.449292   -6.018965    2.889008
     99          1           0        2.430063   -1.723845   -1.460557
    100          1           0        2.556984   -0.223040   -2.314768
    101          1           0        4.022212   -0.835509    0.573845
    102          1           0        4.334498    1.019672   -2.877078
    103          1           0        5.454329    1.986702   -1.991718
    104          1           0        5.953331    0.555562   -3.104674
    105          1           0        6.814451    1.425729   -0.174132
    106          1           0        6.249586   -0.012753    0.668826
    107          1           0        7.439811   -1.384256   -1.169874
    108          1           0        7.843816    0.145224   -1.831031
    109          1           0        8.974054    1.008213    0.041669
    110          1           0        8.520124   -0.611030    0.716943
    111          1           0       10.436254    0.197941   -1.747670
    112          1           0        9.276537   -2.300390   -1.793465
    113          1           0       11.119889   -2.548517   -1.862794
    114          1           0        9.962865   -2.987053   -0.476554
    115          1           0       11.348327    0.856354    0.338915
    116          1           0       11.145359   -0.970317    0.859259
    117          1           0       12.901566   -1.494422   -1.088439
    118          1           0       13.005051    0.124684   -1.526969
    119          1           0       13.803427    0.854741    0.760328
    120          1           0       14.157733   -0.943465    1.091039
    121          1           0       14.993060    0.550053   -1.391414
    122          1           0       15.527635   -2.242125   -0.226862
    123          1           0       15.019416   -1.812413   -1.856360
    124          1           0       16.762604   -1.609571   -1.313751
    125          1           0       16.016298    1.379294    0.735714
    126          1           0       16.468394   -0.203714    1.192798
    127          1           0       18.150501   -0.496478   -0.778835
    128          1           0       17.749231    1.347372   -1.094094
    129          1           0       18.456502    2.249493    1.046888
    130          1           0       18.765967    0.547958    1.557337
    131          1           0       20.764648    0.425568    0.128789
    132          1           0       19.960404    3.037553   -0.780136
    133          1           0       21.495055    2.107954   -1.234835
    134          1           0       19.814753    1.658093   -1.793427
    135          1           0       20.954118    1.642297    2.279592
    136          1           0       22.119095    2.110062    1.154524
    137          1           0       20.806185    3.163309    1.255698
 ---------------------------------------------------------------------

 SCF Done:  E(RCAM-B3LYP) =  -2933.51424847     A.U. after   15 cycles

 Excitation energies and oscillator strengths:

 Excited State   1:      Singlet-A      1.9975 eV  620.69 nm  f=0.2867  <S**2>=0.000
     240 -> 243       -0.20776
     241 -> 242        0.67218
 This state for optimization and/or second-order correction.
 Total Energy, E(TD-HF/TD-DFT) =  -2933.44084107
 Copying the excited state density for this state as the 1-particle RhoCI density.

 The electronic state is 1-A.
 Alpha  occ. eigenvalues --  -46.78817 -19.22247 -19.21595 -19.16955 -19.16886
 Alpha  occ. eigenvalues --  -19.16849 -14.36092 -14.36003 -14.35052 -14.34556
 Alpha  occ. eigenvalues --  -10.34721 -10.33805 -10.30972 -10.28486 -10.27150
 Alpha  occ. eigenvalues --  -10.25468 -10.25437 -10.25168 -10.25118 -10.25115
 Alpha  occ. eigenvalues --  -10.24883 -10.24710 -10.24564 -10.24512 -10.24386
 Alpha  occ. eigenvalues --  -10.23786 -10.23491 -10.23476 -10.23361 -10.23333
 Alpha  occ. eigenvalues --  -10.23288 -10.23137 -10.23050 -10.23045 -10.22917
 Alpha  occ. eigenvalues --  -10.22747 -10.22744 -10.22570 -10.22416 -10.22388
 Alpha  occ. eigenvalues --  -10.22369 -10.22318 -10.22257 -10.21985 -10.21843
 Alpha  occ. eigenvalues --  -10.21652 -10.21589 -10.21543 -10.21424 -10.21411
 Alpha  occ. eigenvalues --  -10.21116 -10.21070 -10.20996 -10.20964 -10.20958
 Alpha  occ. eigenvalues --  -10.20902 -10.20825 -10.20727 -10.20465 -10.20363
 Alpha  occ. eigenvalues --  -10.20241 -10.20186 -10.19976 -10.19063 -10.18758
 Alpha  occ. eigenvalues --   -3.07607  -1.82540  -1.82091  -1.82017  -1.13403
 Alpha  occ. eigenvalues --   -1.12812  -1.08606  -1.05025  -1.03946  -0.98929
 Alpha  occ. eigenvalues --   -0.98133  -0.97297  -0.96588  -0.87352  -0.87238
 Alpha  occ. eigenvalues --   -0.85411  -0.84762  -0.84205  -0.83802  -0.83674
 Alpha  occ. eigenvalues --   -0.83526  -0.83080  -0.82499  -0.82335  -0.80711
 Alpha  occ. eigenvalues --   -0.80325  -0.79303  -0.78599  -0.78350  -0.77588
 Alpha  occ. eigenvalues --   -0.76810  -0.76171  -0.75581  -0.75025  -0.73377
 Alpha  occ. eigenvalues --   -0.72650  -0.72444  -0.71994  -0.71478  -0.70937
 Alpha  occ. eigenvalues --   -0.70359  -0.70211  -0.70013  -0.68820  -0.68129
 Alpha  occ. eigenvalues --   -0.67132  -0.65880  -0.65427  -0.64861  -0.63830
 Alpha  occ. eigenvalues --   -0.62848  -0.62407  -0.60851  -0.60425  -0.60027
 Alpha  occ. eigenvalues --   -0.59770  -0.59169  -0.58935  -0.58289  -0.57883
 Alpha  occ. eigenvalues --   -0.57709  -0.56099  -0.55486  -0.55248  -0.54648
 Alpha  occ. eigenvalues --   -0.54526  -0.53696  -0.53286  -0.53123  -0.52339
 Alpha  occ. eigenvalues --   -0.52127  -0.51665  -0.51482  -0.50805  -0.50743
 Alpha  occ. eigenvalues --   -0.50289  -0.50232  -0.49899  -0.49557  -0.49470
 Alpha  occ. eigenvalues --   -0.49181  -0.48999  -0.48449  -0.48278  -0.47915
 Alpha  occ. eigenvalues --   -0.47745  -0.47703  -0.47483  -0.47250  -0.47205
 Alpha  occ. eigenvalues --   -0.47032  -0.46889  -0.46458  -0.46253  -0.46106
 Alpha  occ. eigenvalues --   -0.45542  -0.45497  -0.45428  -0.45149  -0.44995
 Alpha  occ. eigenvalues --   -0.44688  -0.44417  -0.44322  -0.43737  -0.43633
 Alpha  occ. eigenvalues --   -0.43592  -0.43400  -0.42956  -0.42878  -0.42746
 Alpha  occ. eigenvalues --   -0.42444  -0.42177  -0.41985  -0.41825  -0.41571
 Alpha  occ. eigenvalues --   -0.41207  -0.41022  -0.40872  -0.40828  -0.40717
 Alpha  occ. eigenvalues --   -0.40444  -0.40162  -0.40085  -0.40042  -0.39883
 Alpha  occ. eigenvalues --   -0.39632  -0.39352  -0.39168  -0.39081  -0.38798
 Alpha  occ. eigenvalues --   -0.38726  -0.38498  -0.38374  -0.38184  -0.38067
 Alpha  occ. eigenvalues --   -0.37986  -0.37838  -0.37802  -0.37622  -0.37387
 Alpha  occ. eigenvalues --   -0.36944  -0.36887  -0.36731  -0.36498  -0.36438
 Alpha  occ. eigenvalues --   -0.35938  -0.35453  -0.34422  -0.34308  -0.33983
 Alpha  occ. eigenvalues --   -0.33753  -0.33687  -0.33481  -0.33431  -0.33202
 Alpha  occ. eigenvalues --   -0.33052  -0.32959  -0.32896  -0.32614  -0.32559
 Alpha  occ. eigenvalues --   -0.32466  -0.32244  -0.31572  -0.30649  -0.30642
 Alpha  occ. eigenvalues --   -0.29747  -0.29694  -0.29285  -0.28233  -0.27744
 Alpha  occ. eigenvalues --   -0.27501  -0.27357  -0.26781  -0.24221  -0.21694
 Alpha  occ. eigenvalues --   -0.19671
 Alpha virt. eigenvalues --   -0.07088  -0.03395   0.00526   0.02097   0.03791
 Alpha virt. eigenvalues --    0.04072   0.05143   0.05230   0.05636   0.06006
 Alpha virt. eigenvalues --    0.06926   0.08437   0.08622   0.09096   0.09402

 Mulliken charges:
               1
     1  Mg   0.807105
     2  C    0.091092
     3  C   -0.187577
     4  C   -0.154878
     5  C   -0.210512
     6  N   -0.638862
     7  C    0.309688
     8  C   -0.196971
     9  C   -0.140377
    10  C    0.312558
    11  C   -0.308857
    12  C   -0.154318
    13  C   -0.259849
    14  C    0.604772
    15  O   -0.451684
    16  O   -0.475625
    17  N   -0.718947
    18  C    0.325169
    19  C    0.001363
    20  C    0.006667
    21  C    0.269489
    22  C   -0.357454
    23  C   -0.074011
    24  C   -0.254897
    25  N   -0.670382
    26  C    0.260295
    27  C    0.035253
    28  C    0.015130
    29  C    0.303734
    30  C   -0.369766
    31  C   -0.215009
    32  C   -0.300361
    33  N   -0.722680
    34  C    0.253828
    35  C   -0.019910
    36  C    0.007032
    37  C    0.349970
    38  C   -0.365213
    39  C    0.389084
    40  O   -0.425545
    41  C   -0.327772
    42  C    0.628535
    43  O   -0.477431
    44  O   -0.447614
    45  C   -0.098196
    46  C    0.001239
    47  C   -0.130391
    48  C    0.121938
    49  C   -0.354017
    50  C   -0.242388
    51  C   -0.157802
    52  C   -0.145173
    53  C   -0.051008
    54  C   -0.324457
    55  C   -0.155429
    56  C   -0.179723
    57  C   -0.154139
    58  C   -0.066247
    59  C   -0.311570
    60  C   -0.160961
    61  C   -0.173045
    62  C   -0.160865
    63  C   -0.083194
    64  C   -0.299086
    65  C   -0.288425
    66  H    0.055903
    67  H    0.081674
    68  H    0.087923
    69  H    0.105993
    70  H    0.099565
    71  H    0.105604
    72  H    0.102549
    73  H    0.134815
    74  H    0.111006
    75  H    0.100190
    76  H    0.138387
    77  H    0.136714
    78  H    0.110203
    79  H    0.140470
    80  H    0.114528
    81  H    0.079221
    82  H    0.106221
    83  H    0.102270
    84  H    0.129002
    85  H    0.077891
    86  H    0.137868
    87  H    0.113285
    88  H    0.099590
    89  H    0.099061
    90  H    0.114904
    91  H    0.103011
    92  H    0.131449
    93  H    0.130175
    94  H    0.135638
    95  H    0.168020
    96  H    0.136644
    97  H    0.144448
    98  H    0.121009
    99  H    0.136507
   100  H    0.117246
   101  H    0.063796
   102  H    0.100735
   103  H    0.131336
   104  H    0.108775
   105  H    0.105367
   106  H    0.090269
   107  H    0.074930
   108  H    0.103495
   109  H    0.053084
   110  H    0.097529
   111  H    0.075042
   112  H    0.110974
   113  H    0.082784
   114  H    0.109039
   115  H    0.080225
   116  H    0.099276
   117  H    0.101096
   118  H    0.071378
   119  H    0.087664
   120  H    0.074087
   121  H    0.085375
   122  H    0.115680
   123  H    0.093879
   124  H    0.078738
   125  H    0.082660
   126  H    0.085528
   127  H    0.086201
   128  H    0.075049
   129  H    0.098376
   130  H    0.103942
   131  H    0.079686
   132  H    0.092958
   133  H    0.089318
   134  H    0.095700
   135  H    0.102115
   136  H    0.113352
   137  H    0.060257
 Sum of Mulliken charges =  -0.00000

 Dipole moment (field-independent basis, Debye):
    X=              0.4536    Y=              1.8197    Z=              0.3078  Tot=              1.9005
 Quadrupole moment (field-independent basis, Debye-Ang):
   XX=           -350.2722   YY=           -393.6523   ZZ=           -397.8305
   XY=            -18.2258   XZ=             14.2766   YZ=             -3.2177

 Normal termination of Gaussian 16 at Thu Sep 12 16:49:04 2019.
