 Gaussian 09, Revision D.01,
 Gaussian 09:  ES64L-G09RevD.01 24-Apr-2013

 -------------------------------------
 # td=(NStates=1) CAM-B3LYP/6-31G(d,p)
 -------------------------------------

 --
 TD
 --
 Symbolic Z-matrix:
 Charge =  0 Multiplicity = 1

                         Standard orientation:
 ---------------------------------------------------------------------
 Center     Atomic      Atomic             Coordinates (Angstroms)
 Number     Number       Type             X           Y           Z
 ---------------------------------------------------------------------
      1         12           0       -7.110813    0.600913    0.116669
      2          6           0       -4.831528   -1.993651    0.523825
      3          6           0       -4.789247    2.745256    1.122420
      4          6           0       -9.233445    3.115405   -0.524521
      5          6           0       -9.476287   -1.718563   -0.857247
      6          7           0       -5.082363    0.426161    0.710080
      7          6           0       -4.323540   -0.728655    0.799017
      8          6           0       -2.862562   -0.390519    1.181041
      9          6           0       -3.072815    1.057118    1.740051
     10          6           0       -4.330373    1.524560    1.186131
     11          6           0       -2.905168    1.101324    3.248175
     12          6           0       -1.873528   -0.635026    0.125438
     13          6           0       -0.443705   -0.434415    0.469818
     14          6           0        0.573930   -0.677024   -0.665561
     15          8           0        0.282000   -1.242155   -1.698649
     16          8           0        1.799884   -0.328916   -0.226304
     17          7           0       -7.056626    2.557253    0.319983
     18          6           0       -6.055494    3.373594    0.799837
     19          6           0       -6.297653    4.824897    0.771971
     20          6           0       -7.627656    4.848962    0.418489
     21          6           0       -7.998441    3.498422   -0.034758
     22          6           0       -5.446469    5.817319    1.288806
     23          6           0       -8.514185    6.096418    0.087649
     24          6           0       -8.303298    7.246836    0.835214
     25          7           0       -9.098493    0.583992   -0.474105
     26          6           0       -9.785886    1.842139   -0.760698
     27          6           0      -11.077170    1.497736   -1.189566
     28          6           0      -11.188998    0.128855   -1.242644
     29          6           0       -9.850967   -0.357599   -0.781527
     30          6           0      -12.161217    2.542066   -1.474118
     31          6           0      -12.400243   -0.729669   -1.647210
     32          6           0      -12.299159   -1.027692   -3.177182
     33          7           0       -7.169499   -1.432260   -0.042579
     34          6           0       -8.317162   -2.233247   -0.448233
     35          6           0       -7.897997   -3.657517   -0.471403
     36          6           0       -6.580473   -3.594680    0.058314
     37          6           0       -6.069934   -2.215914    0.130873
     38          6           0       -8.705550   -4.875663   -0.788798
     39          6           0       -5.321111   -4.485010    0.182988
     40          8           0       -5.175181   -5.693798    0.181716
     41          6           0       -4.184903   -3.402250    0.563389
     42          6           0       -3.529921   -3.664792    1.841230
     43          8           0       -3.743947   -3.183862    2.909411
     44          8           0       -2.755363   -4.790720    1.673596
     45          6           0       -2.077246   -5.230326    2.772003
     46          6           0        2.790781   -0.579371   -1.225018
     47          6           0        4.127386   -0.415810   -0.568781
     48          6           0        5.077258    0.503651   -0.969529
     49          6           0        4.891958    1.409529   -2.167715
     50          6           0        6.351129    0.764141   -0.173571
     51          6           0        7.492623    0.079072   -0.899626
     52          6           0        8.904606    0.031579   -0.069169
     53          6           0       10.103168   -0.356030   -0.949555
     54          6           0        9.878610   -1.838198   -1.516502
     55          6           0       11.291065   -0.263887   -0.039182
     56          6           0       12.698144   -0.466664   -0.940314
     57          6           0       13.875039   -0.163108    0.164348
     58          6           0       15.267749   -0.270661   -0.472271
     59          6           0       15.600885   -1.794270   -0.885784
     60          6           0       16.427456    0.321383    0.424730
     61          6           0       17.748192    0.541768   -0.252858
     62          6           0       18.692941    1.205119    0.756758
     63          6           0       20.136144    1.276504    0.318852
     64          6           0       20.355660    2.040337   -1.002912
     65          6           0       21.015259    1.761703    1.475396
     66          1           0       -3.950493    3.506598    1.328196
     67          1           0      -10.104604    3.837420   -0.779963
     68          1           0      -10.253780   -2.537449   -1.096266
     69          1           0       -2.493541   -1.003674    2.107665
     70          1           0       -2.205910    1.427207    1.234004
     71          1           0       -1.871203    0.749412    3.399107
     72          1           0       -3.048029    2.063431    3.734341
     73          1           0       -3.786467    0.513542    3.542171
     74          1           0       -1.899443   -1.624712   -0.239352
     75          1           0       -2.008131    0.116989   -0.653654
     76          1           0       -0.327356    0.423880    0.988198
     77          1           0       -0.107058   -1.129404    1.181446
     78          1           0       -5.444810    6.642438    0.650898
     79          1           0       -5.499995    6.333799    2.368377
     80          1           0       -4.444173    5.412155    1.225054
     81          1           0       -9.395716    5.867265   -0.530770
     82          1           0       -8.920070    8.192124    0.881375
     83          1           0       -7.522988    7.259099    1.649745
     84          1           0      -11.832155    3.220802   -2.315482
     85          1           0      -13.071797    2.235130   -1.636445
     86          1           0      -12.356827    3.278860   -0.744916
     87          1           0      -12.665581   -1.607794   -1.075442
     88          1           0      -13.370508   -0.030217   -1.598260
     89          1           0      -13.042796   -1.615558   -3.809486
     90          1           0      -12.386420   -0.056439   -3.832398
     91          1           0      -11.258266   -1.592524   -3.467610
     92          1           0       -9.105858   -4.854945   -1.844975
     93          1           0       -8.018596   -5.802193   -0.730343
     94          1           0       -9.319337   -5.232978    0.184898
     95          1           0       -3.539567   -3.404520   -0.462183
     96          1           0       -1.545296   -4.389390    3.231896
     97          1           0       -2.766201   -5.618505    3.459890
     98          1           0       -1.583732   -6.100681    2.426767
     99          1           0        2.679094   -1.579079   -1.495660
    100          1           0        2.548706    0.119951   -2.102677
    101          1           0        4.216215   -1.048883    0.264455
    102          1           0        3.927109    1.340330   -2.730592
    103          1           0        5.128245    2.506659   -1.820859
    104          1           0        5.764349    1.108366   -2.966726
    105          1           0        6.640459    1.695636    0.076116
    106          1           0        6.206914    0.173343    0.859300
    107          1           0        7.458171   -0.917005   -1.214407
    108          1           0        7.943385    0.622775   -1.968872
    109          1           0        8.858625    1.098690    0.207540
    110          1           0        8.688624   -0.729547    0.654827
    111          1           0       10.374395    0.301412   -1.670898
    112          1           0        8.951625   -1.679432   -2.153381
    113          1           0       10.731129   -2.386278   -2.002693
    114          1           0        9.427879   -2.508121   -0.823725
    115          1           0       11.371715    0.719257    0.457510
    116          1           0       11.239187   -1.014764    0.771840
    117          1           0       12.676391   -1.538373   -1.259494
    118          1           0       12.825734    0.372434   -1.686402
    119          1           0       13.666717    0.851883    0.593115
    120          1           0       13.803240   -0.984714    1.017987
    121          1           0       15.539517    0.311552   -1.368379
    122          1           0       15.599175   -2.516607   -0.117738
    123          1           0       14.838789   -2.076712   -1.658911
    124          1           0       16.691398   -1.742383   -1.363481
    125          1           0       16.116891    1.290258    0.764660
    126          1           0       16.689027   -0.427031    1.371303
    127          1           0       18.133899   -0.461347   -0.548175
    128          1           0       17.601719    1.304476   -1.189477
    129          1           0       18.239145    2.072571    1.027154
    130          1           0       18.760415    0.613282    1.686346
    131          1           0       20.440346    0.145068   -0.082033
    132          1           0       20.113913    3.129237   -1.020864
    133          1           0       21.486569    1.913212   -1.157242
    134          1           0       20.003359    1.388058   -1.788122
    135          1           0       21.071818    1.303356    2.585175
    136          1           0       22.104716    1.796291    1.285581
    137          1           0       20.707672    2.738752    1.536518
 ---------------------------------------------------------------------

 SCF Done:  E(RCAM-B3LYP) =  -2932.68503714     A.U. after   18 cycles

 Excitation energies and oscillator strengths:

 Excited State   1:      Singlet-A      2.1355 eV  580.59 nm  f=0.2440  <S**2>=0.000
     240 -> 242        0.13766
     240 -> 243        0.23293
     241 -> 242        0.62814
     241 -> 243       -0.14809
 This state for optimization and/or second-order correction.
 Total Energy, E(TD-HF/TD-KS) =  -2932.60656000
 Copying the excited state density for this state as the 1-particle RhoCI density.

 The electronic state is 1-A.
 Alpha  occ. eigenvalues --  -46.83441 -19.26881 -19.24728 -19.21987 -19.21654
 Alpha  occ. eigenvalues --  -19.21606 -14.41078 -14.40046 -14.38939 -14.38562
 Alpha  occ. eigenvalues --  -10.39696 -10.38998 -10.36812 -10.31582 -10.31447
 Alpha  occ. eigenvalues --  -10.30174 -10.30035 -10.29634 -10.29629 -10.29040
 Alpha  occ. eigenvalues --  -10.28964 -10.28820 -10.28739 -10.28730 -10.28668
 Alpha  occ. eigenvalues --  -10.28651 -10.28480 -10.28268 -10.28125 -10.28023
 Alpha  occ. eigenvalues --  -10.27999 -10.27660 -10.27613 -10.27592 -10.27241
 Alpha  occ. eigenvalues --  -10.27145 -10.27099 -10.27016 -10.27000 -10.26805
 Alpha  occ. eigenvalues --  -10.26638 -10.26638 -10.26455 -10.26366 -10.26302
 Alpha  occ. eigenvalues --  -10.26125 -10.26085 -10.25866 -10.25832 -10.25825
 Alpha  occ. eigenvalues --  -10.25744 -10.25687 -10.25654 -10.25542 -10.25514
 Alpha  occ. eigenvalues --  -10.25505 -10.25487 -10.25304 -10.25252 -10.25133
 Alpha  occ. eigenvalues --  -10.25124 -10.24931 -10.24729 -10.24679 -10.23594
 Alpha  occ. eigenvalues --   -3.12607  -1.87310  -1.86842  -1.86797  -1.19075
 Alpha  occ. eigenvalues --   -1.18834  -1.11804  -1.10628  -1.10256  -1.04379
 Alpha  occ. eigenvalues --   -1.03363  -1.02629  -1.01069  -0.92571  -0.91601
 Alpha  occ. eigenvalues --   -0.90986  -0.90043  -0.89360  -0.89322  -0.88674
 Alpha  occ. eigenvalues --   -0.88100  -0.87279  -0.87020  -0.86919  -0.86128
 Alpha  occ. eigenvalues --   -0.84950  -0.84166  -0.83515  -0.82964  -0.82017
 Alpha  occ. eigenvalues --   -0.81738  -0.81105  -0.79655  -0.78836  -0.78220
 Alpha  occ. eigenvalues --   -0.78058  -0.77379  -0.75849  -0.75846  -0.75550
 Alpha  occ. eigenvalues --   -0.75502  -0.74566  -0.74259  -0.73387  -0.72246
 Alpha  occ. eigenvalues --   -0.72050  -0.70398  -0.69284  -0.68423  -0.67333
 Alpha  occ. eigenvalues --   -0.66321  -0.65724  -0.65476  -0.64557  -0.64027
 Alpha  occ. eigenvalues --   -0.63905  -0.63694  -0.63660  -0.62302  -0.61684
 Alpha  occ. eigenvalues --   -0.61569  -0.60881  -0.60653  -0.60477  -0.59650
 Alpha  occ. eigenvalues --   -0.58765  -0.58228  -0.58104  -0.57484  -0.57433
 Alpha  occ. eigenvalues --   -0.56476  -0.55767  -0.55653  -0.55217  -0.54983
 Alpha  occ. eigenvalues --   -0.54762  -0.54344  -0.54061  -0.53916  -0.53050
 Alpha  occ. eigenvalues --   -0.52953  -0.52460  -0.52389  -0.51813  -0.51650
 Alpha  occ. eigenvalues --   -0.51472  -0.51152  -0.50973  -0.50615  -0.50403
 Alpha  occ. eigenvalues --   -0.50091  -0.49884  -0.49752  -0.49643  -0.49421
 Alpha  occ. eigenvalues --   -0.49141  -0.48943  -0.48610  -0.48450  -0.48348
 Alpha  occ. eigenvalues --   -0.47967  -0.47724  -0.47386  -0.47129  -0.46812
 Alpha  occ. eigenvalues --   -0.46687  -0.46515  -0.46450  -0.46161  -0.46081
 Alpha  occ. eigenvalues --   -0.45975  -0.45870  -0.45537  -0.45432  -0.44991
 Alpha  occ. eigenvalues --   -0.44704  -0.44661  -0.44553  -0.44400  -0.44215
 Alpha  occ. eigenvalues --   -0.44093  -0.44063  -0.43508  -0.43277  -0.43165
 Alpha  occ. eigenvalues --   -0.42813  -0.42633  -0.42480  -0.42457  -0.42404
 Alpha  occ. eigenvalues --   -0.42065  -0.41824  -0.41811  -0.41452  -0.41207
 Alpha  occ. eigenvalues --   -0.40818  -0.40794  -0.40687  -0.40496  -0.40060
 Alpha  occ. eigenvalues --   -0.39943  -0.39851  -0.39571  -0.39157  -0.38993
 Alpha  occ. eigenvalues --   -0.38831  -0.38511  -0.38301  -0.38102  -0.37467
 Alpha  occ. eigenvalues --   -0.37311  -0.37003  -0.36980  -0.36825  -0.36613
 Alpha  occ. eigenvalues --   -0.36200  -0.36160  -0.35816  -0.35465  -0.35436
 Alpha  occ. eigenvalues --   -0.35265  -0.35163  -0.34399  -0.34280  -0.34062
 Alpha  occ. eigenvalues --   -0.32753  -0.32373  -0.31959  -0.31506  -0.30344
 Alpha  occ. eigenvalues --   -0.29097  -0.29046  -0.28442  -0.27615  -0.23284
 Alpha  occ. eigenvalues --   -0.21019
 Alpha virt. eigenvalues --   -0.06007  -0.03046   0.01246   0.03840   0.05247
 Alpha virt. eigenvalues --    0.05379   0.06449   0.06547   0.06826   0.07409
 Alpha virt. eigenvalues --    0.08316   0.10653   0.11316   0.11418   0.11496

 Mulliken charges:
               1
     1  Mg   0.807463
     2  C    0.084609
     3  C   -0.244477
     4  C   -0.169250
     5  C   -0.172924
     6  N   -0.649669
     7  C    0.316106
     8  C   -0.171478
     9  C   -0.165102
    10  C    0.370812
    11  C   -0.287437
    12  C   -0.157352
    13  C   -0.278305
    14  C    0.609313
    15  O   -0.472456
    16  O   -0.467357
    17  N   -0.683086
    18  C    0.296595
    19  C    0.068026
    20  C   -0.014794
    21  C    0.279878
    22  C   -0.386436
    23  C   -0.064996
    24  C   -0.253293
    25  N   -0.667792
    26  C    0.214432
    27  C    0.058616
    28  C   -0.012931
    29  C    0.330864
    30  C   -0.373619
    31  C   -0.240875
    32  C   -0.298013
    33  N   -0.744412
    34  C    0.305413
    35  C    0.046561
    36  C   -0.058396
    37  C    0.306159
    38  C   -0.401687
    39  C    0.398393
    40  O   -0.435891
    41  C   -0.340399
    42  C    0.638118
    43  O   -0.455257
    44  O   -0.450837
    45  C   -0.076299
    46  C    0.013736
    47  C   -0.141166
    48  C    0.130095
    49  C   -0.348100
    50  C   -0.215987
    51  C   -0.191073
    52  C   -0.185634
    53  C   -0.037638
    54  C   -0.339154
    55  C   -0.175948
    56  C   -0.202824
    57  C   -0.166098
    58  C   -0.055868
    59  C   -0.315717
    60  C   -0.159543
    61  C   -0.181193
    62  C   -0.147436
    63  C   -0.053860
    64  C   -0.313223
    65  C   -0.310152
    66  H    0.066494
    67  H    0.087166
    68  H    0.100073
    69  H    0.107882
    70  H    0.097152
    71  H    0.106485
    72  H    0.112379
    73  H    0.128642
    74  H    0.126370
    75  H    0.111669
    76  H    0.127385
    77  H    0.134054
    78  H    0.134861
    79  H    0.108973
    80  H    0.110966
    81  H    0.101329
    82  H    0.107282
    83  H    0.109628
    84  H    0.111126
    85  H    0.116952
    86  H    0.123731
    87  H    0.118148
    88  H    0.092272
    89  H    0.095846
    90  H    0.097147
    91  H    0.083661
    92  H    0.136010
    93  H    0.147984
    94  H    0.135174
    95  H    0.160185
    96  H    0.110819
    97  H    0.120973
    98  H    0.121754
    99  H    0.134029
   100  H    0.109864
   101  H    0.094397
   102  H    0.113489
   103  H    0.106897
   104  H    0.108299
   105  H    0.117244
   106  H    0.090208
   107  H    0.110873
   108  H    0.048677
   109  H    0.092391
   110  H    0.103473
   111  H    0.094527
   112  H    0.099544
   113  H    0.106147
   114  H    0.110072
   115  H    0.086065
   116  H    0.086598
   117  H    0.105579
   118  H    0.098293
   119  H    0.088245
   120  H    0.081720
   121  H    0.083140
   122  H    0.110880
   123  H    0.098028
   124  H    0.081430
   125  H    0.086481
   126  H    0.056893
   127  H    0.093661
   128  H    0.070301
   129  H    0.095506
   130  H    0.092284
   131  H    0.048649
   132  H    0.100270
   133  H    0.090459
   134  H    0.118839
   135  H    0.085647
   136  H    0.096762
   137  H    0.113809
 Sum of Mulliken charges =   0.00000

 Dipole moment (field-independent basis, Debye):
    X=              1.7848    Y=              3.9248    Z=              0.2952  Tot=              4.3217
 Quadrupole moment (field-independent basis, Debye-Ang):
   XX=           -356.3736   YY=           -388.2022   ZZ=           -402.1155
   XY=             -8.8656   XZ=             11.9884   YZ=              0.9721

 Normal termination of Gaussian 09 at Tue Jul  2 22:10:58 2019.
