 Gaussian 16, Revision A.03,
 Gaussian 16:  ES64L-G16RevA.03 25-Dec-2016

 ----------------------------------------------------------------------
 # td=(NStates=1) iop(3/107=0140000000,3/108=0140000000) CAM-B3LYP/6-31
 G(d,p)
 ----------------------------------------------------------------------

 --
 TD
 --
 Symbolic Z-matrix:
 Charge =  0 Multiplicity = 1

                         Standard orientation:
 ---------------------------------------------------------------------
 Center     Atomic      Atomic             Coordinates (Angstroms)
 Number     Number       Type             X           Y           Z
 ---------------------------------------------------------------------
      1         12           0       -7.084097    0.639088    0.124988
      2          6           0       -4.904281   -2.021125    0.498475
      3          6           0       -4.783128    2.785292    1.222398
      4          6           0       -9.292633    3.197980   -0.536353
      5          6           0       -9.571198   -1.743798   -0.813438
      6          7           0       -5.159660    0.451830    0.745794
      7          6           0       -4.427198   -0.714456    0.900439
      8          6           0       -3.009756   -0.546864    1.304536
      9          6           0       -3.089600    1.029731    1.803414
     10          6           0       -4.336492    1.438255    1.262916
     11          6           0       -3.002879    1.251438    3.311842
     12          6           0       -1.955861   -0.644814    0.043349
     13          6           0       -0.585511   -0.386349    0.474608
     14          6           0        0.418401   -0.561546   -0.656986
     15          8           0        0.251330   -0.944309   -1.800267
     16          8           0        1.704330   -0.301420   -0.071584
     17          7           0       -7.072816    2.610259    0.441161
     18          6           0       -5.980520    3.319933    0.813030
     19          6           0       -6.408375    4.725427    0.802937
     20          6           0       -7.646391    4.859347    0.340871
     21          6           0       -8.102237    3.455536    0.127760
     22          6           0       -5.440322    5.870586    1.183827
     23          6           0       -8.400708    6.033713    0.127796
     24          6           0       -8.186923    7.174958    0.778443
     25          7           0       -9.024546    0.684123   -0.515360
     26          6           0       -9.731047    1.846831   -0.786573
     27          6           0      -11.187030    1.519503   -1.145411
     28          6           0      -11.210979    0.208445   -1.275100
     29          6           0       -9.863727   -0.303361   -0.943506
     30          6           0      -12.241330    2.497897   -1.370124
     31          6           0      -12.276187   -0.666304   -1.869281
     32          6           0      -12.112924   -0.977347   -3.354464
     33          7           0       -7.239348   -1.418825   -0.217305
     34          6           0       -8.373426   -2.175926   -0.485048
     35          6           0       -7.845863   -3.630374   -0.578876
     36          6           0       -6.553633   -3.590905   -0.255275
     37          6           0       -6.158015   -2.282334    0.080468
     38          6           0       -8.667155   -4.799467   -0.916043
     39          6           0       -5.347035   -4.424915    0.064958
     40          8           0       -5.196835   -5.565964    0.145986
     41          6           0       -4.079726   -3.400272    0.509752
     42          6           0       -3.670816   -3.697861    1.923900
     43          8           0       -3.927752   -3.121640    2.976380
     44          8           0       -2.844880   -4.711910    1.752637
     45          6           0       -2.233141   -5.292635    2.946723
     46          6           0        2.660083   -0.511249   -1.167576
     47          6           0        4.036340   -0.418263   -0.423590
     48          6           0        5.081199    0.301649   -0.907426
     49          6           0        5.109763    1.194766   -2.097181
     50          6           0        6.427319    0.323885   -0.121501
     51          6           0        7.616128   -0.046801   -0.946573
     52          6           0        8.808768   -0.124952   -0.125305
     53          6           0       10.236458   -0.568896   -0.859048
     54          6           0       10.081816   -1.959844   -1.387331
     55          6           0       11.389196   -0.340040    0.069897
     56          6           0       12.798070   -0.492201   -0.539835
     57          6           0       13.938184   -0.051369    0.304290
     58          6           0       15.359951   -0.297098   -0.333600
     59          6           0       15.713757   -1.783318   -0.656018
     60          6           0       16.444516    0.467160    0.449660
     61          6           0       17.687338    0.643450   -0.315757
     62          6           0       18.725794    1.296036    0.550190
     63          6           0       20.241650    1.295334    0.042832
     64          6           0       20.486356    2.043141   -1.220972
     65          6           0       21.115602    1.881918    1.170541
     66          1           0       -3.696717    3.445593    1.402452
     67          1           0      -10.120559    3.988606   -0.669316
     68          1           0      -10.142840   -2.580404   -1.110272
     69          1           0       -2.619296   -1.159932    2.055646
     70          1           0       -2.127122    1.404368    1.401022
     71          1           0       -2.095874    1.081390    3.634016
     72          1           0       -3.348982    2.248507    3.488431
     73          1           0       -3.839243    0.595207    3.563311
     74          1           0       -2.313079   -1.635065   -0.488180
     75          1           0       -2.316444    0.183136   -0.636818
     76          1           0       -0.320559    0.607910    0.734143
     77          1           0       -0.527162   -1.266382    1.138420
     78          1           0       -5.483374    6.842243    0.699995
     79          1           0       -5.374101    6.008156    2.237806
     80          1           0       -4.449974    5.289790    0.844945
     81          1           0       -9.174973    6.106651   -0.634513
     82          1           0       -8.825509    7.990914    0.498119
     83          1           0       -7.429425    7.322322    1.517129
     84          1           0      -11.934941    3.340155   -1.908968
     85          1           0      -13.062333    1.962777   -1.866126
     86          1           0      -12.390593    2.978293   -0.389029
     87          1           0      -12.297393   -1.536704   -1.278020
     88          1           0      -13.428771   -0.341456   -1.655634
     89          1           0      -13.016871   -1.560890   -3.617027
     90          1           0      -12.234142   -0.194234   -4.083679
     91          1           0      -11.104172   -1.564087   -3.569305
     92          1           0       -8.851979   -4.905624   -2.143449
     93          1           0       -8.147971   -5.897785   -0.686472
     94          1           0       -9.613847   -4.965011   -0.363597
     95          1           0       -3.353624   -3.516345   -0.191514
     96          1           0       -1.515254   -4.658532    3.397155
     97          1           0       -2.970375   -5.626094    3.715130
     98          1           0       -1.641696   -6.074137    2.467348
     99          1           0        2.445036   -1.505975   -1.700398
    100          1           0        2.561660    0.295566   -1.934922
    101          1           0        4.050624   -0.823071    0.608651
    102          1           0        3.976098    1.580994   -2.534639
    103          1           0        5.958125    1.981799   -1.946568
    104          1           0        5.301454    0.306652   -3.071950
    105          1           0        6.446294    1.283148    0.433407
    106          1           0        6.536777   -0.593069    0.737867
    107          1           0        7.563704   -1.165394   -1.437076
    108          1           0        7.978109    0.732651   -1.681889
    109          1           0        9.177891    1.003580    0.187175
    110          1           0        8.780172   -0.739667    0.775719
    111          1           0       10.309328    0.325776   -1.725740
    112          1           0        9.355793   -2.218503   -2.056285
    113          1           0       10.929814   -2.452084   -1.882266
    114          1           0        9.765384   -2.675231   -0.605024
    115          1           0       11.338126    0.586733    0.401955
    116          1           0       11.209865   -1.018228    0.991442
    117          1           0       12.856023   -1.541772   -0.825194
    118          1           0       12.940441    0.088870   -1.455192
    119          1           0       13.797120    0.950621    0.539708
    120          1           0       13.980291   -0.448808    1.207690
    121          1           0       15.319758    0.143904   -1.374968
    122          1           0       15.619736   -2.523913    0.066180
    123          1           0       15.314968   -1.972571   -1.571331
    124          1           0       16.801270   -2.066284   -0.967642
    125          1           0       16.134355    1.404544    0.699981
    126          1           0       16.793069   -0.189154    1.583923
    127          1           0       18.277957   -0.302532   -0.757626
    128          1           0       17.426100    1.249232   -1.188016
    129          1           0       18.351044    2.345203    0.811009
    130          1           0       18.695106    0.712279    1.496044
    131          1           0       20.588039    0.303739   -0.001266
    132          1           0       20.257576    3.032872   -1.007205
    133          1           0       21.522850    2.083387   -1.561551
    134          1           0       19.770828    1.793544   -2.081332
    135          1           0       20.972192    1.338708    2.071128
    136          1           0       22.148455    1.710371    0.883261
    137          1           0       20.908117    3.024737    1.534736
 ---------------------------------------------------------------------

 SCF Done:  E(RCAM-B3LYP) =  -2933.46782570     A.U. after   16 cycles

 Excitation energies and oscillator strengths:

 Excited State   1:      Singlet-A      2.0171 eV  614.66 nm  f=0.2009  <S**2>=0.000
     240 -> 243       -0.25342
     241 -> 242        0.64950
 This state for optimization and/or second-order correction.
 Total Energy, E(TD-HF/TD-DFT) =  -2933.39369769
 Copying the excited state density for this state as the 1-particle RhoCI density.

 The electronic state is 1-A.
 Alpha  occ. eigenvalues --  -46.79018 -19.22673 -19.21935 -19.18653 -19.17785
 Alpha  occ. eigenvalues --  -19.16660 -14.38367 -14.35562 -14.35219 -14.34302
 Alpha  occ. eigenvalues --  -10.35323 -10.34331 -10.31533 -10.27619 -10.27168
 Alpha  occ. eigenvalues --  -10.26645 -10.26018 -10.26009 -10.25087 -10.25085
 Alpha  occ. eigenvalues --  -10.24495 -10.24398 -10.24225 -10.24179 -10.23980
 Alpha  occ. eigenvalues --  -10.23962 -10.23799 -10.23742 -10.23668 -10.23541
 Alpha  occ. eigenvalues --  -10.23341 -10.23209 -10.23097 -10.23092 -10.23007
 Alpha  occ. eigenvalues --  -10.22910 -10.22561 -10.22474 -10.22390 -10.22325
 Alpha  occ. eigenvalues --  -10.21842 -10.21720 -10.21612 -10.21532 -10.21502
 Alpha  occ. eigenvalues --  -10.21476 -10.21438 -10.21324 -10.21205 -10.21131
 Alpha  occ. eigenvalues --  -10.20957 -10.20746 -10.20687 -10.20631 -10.20570
 Alpha  occ. eigenvalues --  -10.20428 -10.20374 -10.20270 -10.20075 -10.20042
 Alpha  occ. eigenvalues --  -10.19829 -10.19554 -10.19364 -10.19296 -10.18766
 Alpha  occ. eigenvalues --   -3.07791  -1.82726  -1.82300  -1.82172  -1.13667
 Alpha  occ. eigenvalues --   -1.11643  -1.10849  -1.04326  -1.04019  -0.99141
 Alpha  occ. eigenvalues --   -0.98120  -0.97247  -0.96113  -0.86562  -0.86039
 Alpha  occ. eigenvalues --   -0.85762  -0.85311  -0.84420  -0.84113  -0.83824
 Alpha  occ. eigenvalues --   -0.83339  -0.82783  -0.82361  -0.81754  -0.81276
 Alpha  occ. eigenvalues --   -0.80758  -0.79690  -0.79001  -0.78718  -0.77576
 Alpha  occ. eigenvalues --   -0.77005  -0.76242  -0.75871  -0.74522  -0.73155
 Alpha  occ. eigenvalues --   -0.72872  -0.72337  -0.72201  -0.71627  -0.70934
 Alpha  occ. eigenvalues --   -0.70308  -0.69996  -0.69505  -0.68285  -0.67456
 Alpha  occ. eigenvalues --   -0.66171  -0.65494  -0.64931  -0.64255  -0.63366
 Alpha  occ. eigenvalues --   -0.62379  -0.61445  -0.60880  -0.60306  -0.60089
 Alpha  occ. eigenvalues --   -0.60026  -0.58733  -0.58432  -0.58405  -0.57729
 Alpha  occ. eigenvalues --   -0.57669  -0.56819  -0.55522  -0.55019  -0.54772
 Alpha  occ. eigenvalues --   -0.54660  -0.54181  -0.53968  -0.53712  -0.53082
 Alpha  occ. eigenvalues --   -0.52485  -0.52078  -0.51721  -0.51345  -0.50895
 Alpha  occ. eigenvalues --   -0.50778  -0.50373  -0.49971  -0.49907  -0.49890
 Alpha  occ. eigenvalues --   -0.49423  -0.49186  -0.48620  -0.47670  -0.47567
 Alpha  occ. eigenvalues --   -0.47397  -0.47274  -0.47045  -0.46823  -0.46675
 Alpha  occ. eigenvalues --   -0.46484  -0.46268  -0.46154  -0.46018  -0.45603
 Alpha  occ. eigenvalues --   -0.45494  -0.45439  -0.45201  -0.45126  -0.45012
 Alpha  occ. eigenvalues --   -0.44678  -0.44206  -0.43918  -0.43780  -0.43547
 Alpha  occ. eigenvalues --   -0.43332  -0.42845  -0.42811  -0.42680  -0.42604
 Alpha  occ. eigenvalues --   -0.42501  -0.42340  -0.42141  -0.41854  -0.41685
 Alpha  occ. eigenvalues --   -0.41562  -0.41485  -0.41246  -0.41158  -0.40873
 Alpha  occ. eigenvalues --   -0.40752  -0.40522  -0.40285  -0.40206  -0.40158
 Alpha  occ. eigenvalues --   -0.39598  -0.39390  -0.39343  -0.39203  -0.39089
 Alpha  occ. eigenvalues --   -0.38817  -0.38505  -0.38334  -0.37982  -0.37810
 Alpha  occ. eigenvalues --   -0.37647  -0.37397  -0.37344  -0.37011  -0.36789
 Alpha  occ. eigenvalues --   -0.36583  -0.36482  -0.36074  -0.35772  -0.35567
 Alpha  occ. eigenvalues --   -0.35280  -0.35139  -0.34781  -0.34712  -0.34538
 Alpha  occ. eigenvalues --   -0.34380  -0.34230  -0.33851  -0.33671  -0.33446
 Alpha  occ. eigenvalues --   -0.33394  -0.33309  -0.33113  -0.32953  -0.32668
 Alpha  occ. eigenvalues --   -0.32597  -0.31652  -0.31633  -0.31278  -0.30561
 Alpha  occ. eigenvalues --   -0.30357  -0.30282  -0.29761  -0.27975  -0.27086
 Alpha  occ. eigenvalues --   -0.26476  -0.25969  -0.25810  -0.24808  -0.21715
 Alpha  occ. eigenvalues --   -0.18745
 Alpha virt. eigenvalues --   -0.05692  -0.04170   0.00222   0.02308   0.02746
 Alpha virt. eigenvalues --    0.03653   0.03904   0.04528   0.05481   0.05940
 Alpha virt. eigenvalues --    0.06848   0.08117   0.09190   0.09369   0.09635

 Mulliken charges:
               1
     1  Mg   0.805540
     2  C    0.007359
     3  C   -0.217095
     4  C   -0.175816
     5  C   -0.166059
     6  N   -0.628101
     7  C    0.315733
     8  C   -0.160546
     9  C   -0.190309
    10  C    0.357456
    11  C   -0.282217
    12  C   -0.189127
    13  C   -0.235214
    14  C    0.593904
    15  O   -0.451914
    16  O   -0.494680
    17  N   -0.729703
    18  C    0.347731
    19  C   -0.008318
    20  C    0.050577
    21  C    0.294783
    22  C   -0.372999
    23  C   -0.090966
    24  C   -0.231254
    25  N   -0.637521
    26  C    0.255410
    27  C    0.038886
    28  C    0.035897
    29  C    0.260903
    30  C   -0.380979
    31  C   -0.243617
    32  C   -0.298371
    33  N   -0.726376
    34  C    0.319198
    35  C   -0.016488
    36  C    0.083724
    37  C    0.281831
    38  C   -0.405997
    39  C    0.348345
    40  O   -0.384793
    41  C   -0.319435
    42  C    0.640744
    43  O   -0.489891
    44  O   -0.432165
    45  C   -0.101176
    46  C    0.011009
    47  C   -0.139691
    48  C    0.138063
    49  C   -0.332069
    50  C   -0.216695
    51  C   -0.141324
    52  C   -0.175225
    53  C   -0.048091
    54  C   -0.323448
    55  C   -0.148272
    56  C   -0.184398
    57  C   -0.172686
    58  C   -0.064238
    59  C   -0.320280
    60  C   -0.130271
    61  C   -0.161883
    62  C   -0.162801
    63  C   -0.057985
    64  C   -0.303250
    65  C   -0.307691
    66  H    0.072637
    67  H    0.088244
    68  H    0.083197
    69  H    0.116927
    70  H    0.091446
    71  H    0.112515
    72  H    0.115136
    73  H    0.127205
    74  H    0.114842
    75  H    0.107350
    76  H    0.150402
    77  H    0.148747
    78  H    0.122712
    79  H    0.127268
    80  H    0.086272
    81  H    0.087352
    82  H    0.089568
    83  H    0.100470
    84  H    0.127280
    85  H    0.115190
    86  H    0.126114
    87  H    0.117218
    88  H    0.073390
    89  H    0.099823
    90  H    0.116478
    91  H    0.099240
    92  H    0.105756
    93  H    0.117581
    94  H    0.132807
    95  H    0.152515
    96  H    0.131243
    97  H    0.141098
    98  H    0.130379
    99  H    0.132644
   100  H    0.107296
   101  H    0.095398
   102  H    0.096612
   103  H    0.118150
   104  H    0.089251
   105  H    0.113233
   106  H    0.069544
   107  H    0.085192
   108  H    0.093734
   109  H    0.054266
   110  H    0.087602
   111  H    0.043446
   112  H    0.113938
   113  H    0.100610
   114  H    0.094334
   115  H    0.095000
   116  H    0.073166
   117  H    0.098756
   118  H    0.086353
   119  H    0.089152
   120  H    0.102412
   121  H    0.071700
   122  H    0.112575
   123  H    0.115101
   124  H    0.080856
   125  H    0.101090
   126  H    0.023975
   127  H    0.073247
   128  H    0.091332
   129  H    0.072452
   130  H    0.085535
   131  H    0.092529
   132  H    0.111683
   133  H    0.099107
   134  H    0.087569
   135  H    0.104824
   136  H    0.096978
   137  H    0.075287
 Sum of Mulliken charges =  -0.00000

 Dipole moment (field-independent basis, Debye):
    X=              1.9358    Y=              1.6918    Z=             -0.0745  Tot=              2.5720
 Quadrupole moment (field-independent basis, Debye-Ang):
   XX=           -366.2645   YY=           -386.9599   ZZ=           -399.7200
   XY=            -11.6883   XZ=             12.5188   YZ=             -3.7749

 Normal termination of Gaussian 16 at Mon Sep 23 03:44:21 2019.
