 Gaussian 16, Revision A.03,
 Gaussian 16:  ES64L-G16RevA.03 25-Dec-2016

 ----------------------------------------------------------------------
 # td=(NStates=1) iop(3/107=0140000000,3/108=0140000000) CAM-B3LYP/6-31
 G(d,p)
 ----------------------------------------------------------------------

 --
 TD
 --
 Symbolic Z-matrix:
 Charge =  0 Multiplicity = 1

                         Standard orientation:
 ---------------------------------------------------------------------
 Center     Atomic      Atomic             Coordinates (Angstroms)
 Number     Number       Type             X           Y           Z
 ---------------------------------------------------------------------
      1         12           0       -7.132491    0.686526   -0.001958
      2          6           0       -4.935098   -1.931951    0.637828
      3          6           0       -4.794225    2.863148    1.065913
      4          6           0       -9.502630    3.064685   -0.396982
      5          6           0       -9.461772   -1.707468   -0.958170
      6          7           0       -5.205242    0.428153    0.692509
      7          6           0       -4.382925   -0.682990    0.878179
      8          6           0       -2.997656   -0.435028    1.169299
      9          6           0       -2.959229    1.149218    1.644156
     10          6           0       -4.400094    1.536331    1.097284
     11          6           0       -2.771124    1.387979    3.081754
     12          6           0       -1.912861   -0.546382    0.087873
     13          6           0       -0.460972   -0.313316    0.460441
     14          6           0        0.540365   -0.804443   -0.680710
     15          8           0        0.100723   -1.227580   -1.776501
     16          8           0        1.755736   -0.586627   -0.342539
     17          7           0       -7.151062    2.639246    0.410460
     18          6           0       -6.090604    3.419392    0.780759
     19          6           0       -6.389864    4.791216    0.776185
     20          6           0       -7.692617    4.818718    0.287150
     21          6           0       -8.195289    3.488483    0.104106
     22          6           0       -5.557050    5.971964    1.157820
     23          6           0       -8.582489    6.014235    0.214664
     24          6           0       -8.567156    7.198845    0.764046
     25          7           0       -9.068120    0.649787   -0.682515
     26          6           0       -9.813269    1.779648   -0.678467
     27          6           0      -11.183531    1.437623   -1.127038
     28          6           0      -11.203601    0.021000   -1.240399
     29          6           0       -9.871883   -0.442297   -1.071812
     30          6           0      -12.280898    2.357681   -1.392682
     31          6           0      -12.352751   -0.860078   -1.684515
     32          6           0      -12.250785   -1.215011   -3.108731
     33          7           0       -7.183622   -1.336546   -0.184385
     34          6           0       -8.166539   -2.294978   -0.646481
     35          6           0       -7.844555   -3.586038   -0.488405
     36          6           0       -6.586434   -3.598300    0.019705
     37          6           0       -6.114523   -2.166260    0.090314
     38          6           0       -8.641285   -4.753687   -0.820579
     39          6           0       -5.280641   -4.310669    0.352312
     40          8           0       -5.102455   -5.556308    0.332556
     41          6           0       -4.254142   -3.269637    0.778040
     42          6           0       -3.588042   -3.615398    2.001898
     43          8           0       -3.777695   -3.043566    3.058098
     44          8           0       -2.728211   -4.617449    1.880927
     45          6           0       -2.147130   -5.166387    3.103036
     46          6           0        2.753261   -0.880627   -1.358538
     47          6           0        4.176077   -0.594151   -0.680475
     48          6           0        5.078643    0.303992   -0.994313
     49          6           0        5.023377    1.096952   -2.397506
     50          6           0        6.382053    0.430355   -0.221130
     51          6           0        7.634415   -0.173725   -0.980881
     52          6           0        8.846244   -0.030223   -0.201725
     53          6           0       10.197214   -0.543048   -0.820432
     54          6           0       10.180893   -2.091445   -1.397693
     55          6           0       11.460179   -0.371248    0.043546
     56          6           0       12.830113   -0.558084   -0.673484
     57          6           0       14.048708   -0.035587    0.162238
     58          6           0       15.382321   -0.179453   -0.483299
     59          6           0       15.693659   -1.592579   -0.915419
     60          6           0       16.368225    0.505925    0.425426
     61          6           0       17.731269    0.627559   -0.227974
     62          6           0       18.742998    1.162917    0.763772
     63          6           0       20.295440    1.355116    0.234528
     64          6           0       20.451147    2.202426   -0.948864
     65          6           0       21.069309    1.890601    1.369090
     66          1           0       -4.115473    3.519506    1.556053
     67          1           0      -10.333477    3.738758   -0.513603
     68          1           0      -10.253452   -2.438692   -1.321972
     69          1           0       -2.839075   -0.923019    1.991898
     70          1           0       -2.242541    1.735546    1.122174
     71          1           0       -1.954161    0.922944    3.499436
     72          1           0       -2.888130    2.472181    3.246513
     73          1           0       -3.498081    1.042795    3.802101
     74          1           0       -2.032336   -1.490516   -0.281335
     75          1           0       -2.149677    0.095191   -0.752735
     76          1           0       -0.410336    0.603198    0.785471
     77          1           0       -0.247011   -0.964493    1.328443
     78          1           0       -6.128799    6.866075    0.758295
     79          1           0       -5.451476    6.310941    2.191563
     80          1           0       -4.397372    5.730184    0.848304
     81          1           0       -9.403290    5.799225   -0.477908
     82          1           0       -9.324382    7.918377    0.388837
     83          1           0       -7.735252    7.525135    1.428282
     84          1           0      -12.068637    3.065985   -2.235397
     85          1           0      -13.059718    1.703492   -1.624451
     86          1           0      -12.610357    3.076938   -0.560336
     87          1           0      -12.193340   -1.641143   -1.051178
     88          1           0      -13.226878   -0.252891   -1.467713
     89          1           0      -13.171330   -1.735686   -3.303696
     90          1           0      -12.210366   -0.351561   -3.840559
     91          1           0      -11.327623   -1.733904   -3.229466
     92          1           0       -9.005133   -4.885343   -1.709148
     93          1           0       -7.980617   -5.625994   -0.760393
     94          1           0       -9.455623   -5.069977   -0.095780
     95          1           0       -3.516052   -3.451826    0.024837
     96          1           0       -1.711599   -4.373312    3.702321
     97          1           0       -2.748513   -5.463858    3.831625
     98          1           0       -1.211742   -5.774760    2.789311
     99          1           0        2.808991   -2.044599   -1.529575
    100          1           0        2.714582   -0.291224   -2.141801
    101          1           0        4.411166   -1.279091    0.235699
    102          1           0        3.987070    1.121828   -2.757637
    103          1           0        5.271313    2.025954   -2.145271
    104          1           0        5.664305    0.807204   -3.194655
    105          1           0        6.721806    1.495828   -0.291087
    106          1           0        6.389561    0.073585    0.919103
    107          1           0        7.554459   -1.205938   -1.238498
    108          1           0        7.682620    0.188631   -1.815715
    109          1           0        9.025764    0.962758    0.167443
    110          1           0        8.601577   -0.559214    0.843873
    111          1           0       10.389804    0.122723   -1.821226
    112          1           0        9.369266   -2.360375   -1.815782
    113          1           0       10.934970   -2.294399   -2.076845
    114          1           0       10.093423   -2.867828   -0.569858
    115          1           0       11.547540    0.666535    0.442012
    116          1           0       11.520184   -1.075261    0.835803
    117          1           0       13.062207   -1.624507   -0.856542
    118          1           0       13.051882   -0.033990   -1.536604
    119          1           0       13.685953    1.166134    0.141755
    120          1           0       14.046139   -0.505248    1.266800
    121          1           0       15.310350    0.415277   -1.291383
    122          1           0       15.810186   -2.253948   -0.111780
    123          1           0       14.903443   -1.952039   -1.843012
    124          1           0       16.738956   -1.397535   -1.491068
    125          1           0       16.243595    1.569295    0.735868
    126          1           0       16.482769   -0.080396    1.414503
    127          1           0       18.179472   -0.513366   -0.265807
    128          1           0       17.611507    1.266604   -1.087359
    129          1           0       18.588971    2.356555    0.939236
    130          1           0       18.651134    0.747789    1.839158
    131          1           0       20.608587    0.395490    0.128259
    132          1           0       20.103319    3.252246   -0.844707
    133          1           0       21.402384    2.238750   -1.292245
    134          1           0       19.719276    1.833768   -1.794391
    135          1           0       21.255890    1.123361    2.304015
    136          1           0       22.070010    2.267291    1.000359
    137          1           0       20.635372    2.888194    1.951876
 ---------------------------------------------------------------------

 SCF Done:  E(RCAM-B3LYP) =  -2933.44776837     A.U. after   16 cycles

 Excitation energies and oscillator strengths:

 Excited State   1:      Singlet-A      1.9384 eV  639.62 nm  f=0.3318  <S**2>=0.000
     240 -> 243        0.19913
     241 -> 242        0.67247
 This state for optimization and/or second-order correction.
 Total Energy, E(TD-HF/TD-DFT) =  -2933.37653290
 Copying the excited state density for this state as the 1-particle RhoCI density.

 The electronic state is 1-A.
 Alpha  occ. eigenvalues --  -46.78544 -19.24463 -19.22218 -19.16183 -19.15621
 Alpha  occ. eigenvalues --  -19.15433 -14.37978 -14.35016 -14.34537 -14.34262
 Alpha  occ. eigenvalues --  -10.35278 -10.33788 -10.30729 -10.29102 -10.26554
 Alpha  occ. eigenvalues --  -10.26294 -10.25988 -10.25294 -10.24785 -10.24419
 Alpha  occ. eigenvalues --  -10.24120 -10.23979 -10.23881 -10.23816 -10.23654
 Alpha  occ. eigenvalues --  -10.23352 -10.23332 -10.23225 -10.23139 -10.22843
 Alpha  occ. eigenvalues --  -10.22817 -10.22805 -10.22542 -10.22483 -10.22247
 Alpha  occ. eigenvalues --  -10.22228 -10.22200 -10.22180 -10.21928 -10.21909
 Alpha  occ. eigenvalues --  -10.21865 -10.21788 -10.21686 -10.21673 -10.21657
 Alpha  occ. eigenvalues --  -10.21641 -10.21557 -10.21492 -10.21461 -10.21456
 Alpha  occ. eigenvalues --  -10.21408 -10.21313 -10.20991 -10.20913 -10.20887
 Alpha  occ. eigenvalues --  -10.20811 -10.20756 -10.20381 -10.20361 -10.20213
 Alpha  occ. eigenvalues --  -10.20166 -10.19892 -10.19870 -10.19209 -10.19078
 Alpha  occ. eigenvalues --   -3.07337  -1.82262  -1.81823  -1.81747  -1.15826
 Alpha  occ. eigenvalues --   -1.13390  -1.03607  -1.03269  -1.02963  -0.98461
 Alpha  occ. eigenvalues --   -0.97541  -0.96914  -0.95885  -0.88184  -0.86479
 Alpha  occ. eigenvalues --   -0.86165  -0.85209  -0.84820  -0.84241  -0.83670
 Alpha  occ. eigenvalues --   -0.83557  -0.83382  -0.83296  -0.82388  -0.81389
 Alpha  occ. eigenvalues --   -0.80725  -0.79860  -0.79344  -0.78795  -0.78351
 Alpha  occ. eigenvalues --   -0.77783  -0.77009  -0.76117  -0.75355  -0.74421
 Alpha  occ. eigenvalues --   -0.73505  -0.73024  -0.72869  -0.72067  -0.71314
 Alpha  occ. eigenvalues --   -0.71020  -0.70809  -0.69769  -0.69206  -0.68837
 Alpha  occ. eigenvalues --   -0.67016  -0.66550  -0.65785  -0.65238  -0.64350
 Alpha  occ. eigenvalues --   -0.63285  -0.62233  -0.61571  -0.61028  -0.60950
 Alpha  occ. eigenvalues --   -0.60472  -0.59947  -0.58953  -0.58652  -0.58038
 Alpha  occ. eigenvalues --   -0.57637  -0.56739  -0.56382  -0.55878  -0.55425
 Alpha  occ. eigenvalues --   -0.54737  -0.54264  -0.53949  -0.53728  -0.53251
 Alpha  occ. eigenvalues --   -0.52868  -0.52019  -0.51522  -0.51354  -0.51164
 Alpha  occ. eigenvalues --   -0.50954  -0.50544  -0.50242  -0.49771  -0.49631
 Alpha  occ. eigenvalues --   -0.49561  -0.48965  -0.48903  -0.48608  -0.47892
 Alpha  occ. eigenvalues --   -0.47669  -0.47306  -0.47165  -0.47049  -0.46916
 Alpha  occ. eigenvalues --   -0.46587  -0.46508  -0.46280  -0.46038  -0.45842
 Alpha  occ. eigenvalues --   -0.45682  -0.45604  -0.45368  -0.45148  -0.44768
 Alpha  occ. eigenvalues --   -0.44511  -0.44394  -0.44243  -0.44160  -0.43968
 Alpha  occ. eigenvalues --   -0.43864  -0.43734  -0.43313  -0.42926  -0.42737
 Alpha  occ. eigenvalues --   -0.42463  -0.42335  -0.42123  -0.41972  -0.41900
 Alpha  occ. eigenvalues --   -0.41562  -0.41346  -0.41265  -0.40902  -0.40892
 Alpha  occ. eigenvalues --   -0.40777  -0.40644  -0.40495  -0.40393  -0.40033
 Alpha  occ. eigenvalues --   -0.39855  -0.39655  -0.39481  -0.39338  -0.39044
 Alpha  occ. eigenvalues --   -0.38867  -0.38725  -0.38437  -0.38127  -0.38017
 Alpha  occ. eigenvalues --   -0.37953  -0.37630  -0.37215  -0.37194  -0.37035
 Alpha  occ. eigenvalues --   -0.36961  -0.36520  -0.36398  -0.36032  -0.35843
 Alpha  occ. eigenvalues --   -0.35618  -0.35290  -0.34997  -0.34732  -0.34684
 Alpha  occ. eigenvalues --   -0.34460  -0.34303  -0.34144  -0.33721  -0.33599
 Alpha  occ. eigenvalues --   -0.33394  -0.33345  -0.32900  -0.32628  -0.32527
 Alpha  occ. eigenvalues --   -0.32380  -0.32063  -0.31642  -0.30191  -0.30025
 Alpha  occ. eigenvalues --   -0.29899  -0.29588  -0.29237  -0.28708  -0.27942
 Alpha  occ. eigenvalues --   -0.26684  -0.26096  -0.25115  -0.24697  -0.21651
 Alpha  occ. eigenvalues --   -0.19900
 Alpha virt. eigenvalues --   -0.07780  -0.03162  -0.00205   0.03106   0.03780
 Alpha virt. eigenvalues --    0.04290   0.04384   0.04986   0.05434   0.05881
 Alpha virt. eigenvalues --    0.06733   0.08920   0.09621   0.10109   0.10317

 Mulliken charges:
               1
     1  Mg   0.795976
     2  C    0.103721
     3  C   -0.199456
     4  C   -0.156492
     5  C   -0.194109
     6  N   -0.624821
     7  C    0.306573
     8  C   -0.140840
     9  C   -0.147636
    10  C    0.315128
    11  C   -0.318133
    12  C   -0.158241
    13  C   -0.262746
    14  C    0.595569
    15  O   -0.495063
    16  O   -0.408045
    17  N   -0.720758
    18  C    0.299886
    19  C    0.074810
    20  C   -0.036950
    21  C    0.308078
    22  C   -0.383599
    23  C   -0.045508
    24  C   -0.256803
    25  N   -0.723855
    26  C    0.370265
    27  C    0.021362
    28  C   -0.021199
    29  C    0.319003
    30  C   -0.388848
    31  C   -0.224930
    32  C   -0.296080
    33  N   -0.681901
    34  C    0.244873
    35  C    0.058352
    36  C    0.014041
    37  C    0.230612
    38  C   -0.396125
    39  C    0.352266
    40  O   -0.482734
    41  C   -0.314504
    42  C    0.633529
    43  O   -0.492804
    44  O   -0.440938
    45  C   -0.089535
    46  C    0.021569
    47  C   -0.151443
    48  C    0.122870
    49  C   -0.377330
    50  C   -0.238873
    51  C   -0.143123
    52  C   -0.171996
    53  C   -0.047819
    54  C   -0.327778
    55  C   -0.156782
    56  C   -0.188639
    57  C   -0.163838
    58  C   -0.029738
    59  C   -0.296814
    60  C   -0.164986
    61  C   -0.162811
    62  C   -0.178425
    63  C   -0.032967
    64  C   -0.310370
    65  C   -0.289225
    66  H    0.069761
    67  H    0.089409
    68  H    0.071958
    69  H    0.115965
    70  H    0.110438
    71  H    0.119000
    72  H    0.102484
    73  H    0.125354
    74  H    0.115073
    75  H    0.114790
    76  H    0.130630
    77  H    0.121471
    78  H    0.115136
    79  H    0.128853
    80  H    0.095433
    81  H    0.074427
    82  H    0.099542
    83  H    0.090909
    84  H    0.122573
    85  H    0.113339
    86  H    0.112719
    87  H    0.120158
    88  H    0.098089
    89  H    0.108882
    90  H    0.103256
    91  H    0.114903
    92  H    0.134572
    93  H    0.141396
    94  H    0.118102
    95  H    0.175795
    96  H    0.121163
    97  H    0.148697
    98  H    0.122796
    99  H    0.129763
   100  H    0.127748
   101  H    0.079528
   102  H    0.108534
   103  H    0.130044
   104  H    0.132979
   105  H    0.098949
   106  H    0.091400
   107  H    0.098708
   108  H    0.098303
   109  H    0.092977
   110  H    0.062111
   111  H    0.055243
   112  H    0.107465
   113  H    0.115198
   114  H    0.084844
   115  H    0.080656
   116  H    0.102914
   117  H    0.090380
   118  H    0.092235
   119  H    0.047662
   120  H    0.060190
   121  H    0.091557
   122  H    0.116481
   123  H    0.082861
   124  H    0.090095
   125  H    0.098065
   126  H    0.073478
   127  H    0.075203
   128  H    0.102740
   129  H    0.050279
   130  H    0.087229
   131  H    0.103945
   132  H    0.102516
   133  H    0.118116
   134  H    0.082365
   135  H    0.075773
   136  H    0.089298
   137  H    0.072220
 Sum of Mulliken charges =  -0.00000

 Dipole moment (field-independent basis, Debye):
    X=              3.7221    Y=              3.8250    Z=             -0.6374  Tot=              5.3751
 Quadrupole moment (field-independent basis, Debye-Ang):
   XX=           -337.1858   YY=           -398.6519   ZZ=           -394.6370
   XY=            -19.4489   XZ=              3.8009   YZ=             -5.2646

 Normal termination of Gaussian 16 at Sat Sep  7 15:01:24 2019.
