 Gaussian 16, Revision A.03,
 Gaussian 16:  ES64L-G16RevA.03 25-Dec-2016

 ----------------------------------------------------------------------
 # td=(NStates=1) iop(3/107=0140000000,3/108=0140000000) CAM-B3LYP/6-31
 G(d,p)
 ----------------------------------------------------------------------

 --
 TD
 --
 Symbolic Z-matrix:
 Charge =  0 Multiplicity = 1

                         Standard orientation:
 ---------------------------------------------------------------------
 Center     Atomic      Atomic             Coordinates (Angstroms)
 Number     Number       Type             X           Y           Z
 ---------------------------------------------------------------------
      1         12           0       -7.171293    0.670232    0.045728
      2          6           0       -4.881684   -1.982883    0.433693
      3          6           0       -4.833585    2.765615    1.218968
      4          6           0       -9.538092    3.137387   -0.396915
      5          6           0       -9.513579   -1.674909   -1.080397
      6          7           0       -5.124426    0.385701    0.637225
      7          6           0       -4.350042   -0.729221    0.689052
      8          6           0       -2.952106   -0.445505    1.178015
      9          6           0       -3.112100    0.996814    1.819389
     10          6           0       -4.412301    1.437908    1.135948
     11          6           0       -3.121747    1.183817    3.254113
     12          6           0       -1.835456   -0.639361    0.131804
     13          6           0       -0.381191   -0.451181    0.656813
     14          6           0        0.594651   -0.619220   -0.524673
     15          8           0        0.229144   -1.047589   -1.555654
     16          8           0        1.862189   -0.366197   -0.175749
     17          7           0       -7.132856    2.626227    0.219778
     18          6           0       -6.119311    3.354341    0.843754
     19          6           0       -6.479499    4.718083    0.748082
     20          6           0       -7.678342    4.912507    0.255885
     21          6           0       -8.253254    3.451299    0.020695
     22          6           0       -5.445973    5.749197    1.147286
     23          6           0       -8.443385    6.093937    0.154549
     24          6           0       -8.317927    7.346900    0.728620
     25          7           0       -9.154301    0.739299   -0.545181
     26          6           0       -9.956079    1.807506   -0.655372
     27          6           0      -11.254092    1.361260   -1.109599
     28          6           0      -11.255887    0.073096   -1.310694
     29          6           0       -9.987636   -0.338241   -0.931545
     30          6           0      -12.307956    2.444937   -1.432363
     31          6           0      -12.406910   -0.852504   -1.858921
     32          6           0      -12.120904   -1.277853   -3.326105
     33          7           0       -7.279373   -1.307991   -0.111463
     34          6           0       -8.216369   -2.220190   -0.594057
     35          6           0       -7.903668   -3.589568   -0.424121
     36          6           0       -6.507360   -3.502710   -0.062941
     37          6           0       -6.238618   -2.154461    0.081817
     38          6           0       -8.791670   -4.802595   -0.830838
     39          6           0       -5.286926   -4.350086    0.196062
     40          8           0       -5.147303   -5.590550    0.138503
     41          6           0       -4.199061   -3.382118    0.584285
     42          6           0       -3.565639   -3.727966    1.927717
     43          8           0       -3.804887   -3.142746    2.915121
     44          8           0       -2.704310   -4.711246    1.738463
     45          6           0       -2.076854   -5.069618    2.993631
     46          6           0        2.881181   -0.698645   -1.120011
     47          6           0        4.172943   -0.455777   -0.514721
     48          6           0        5.119325    0.334558   -0.847885
     49          6           0        5.188119    1.364921   -1.975496
     50          6           0        6.467990    0.353200   -0.143470
     51          6           0        7.542336   -0.259401   -0.902392
     52          6           0        8.977928   -0.080983   -0.018330
     53          6           0       10.190943   -0.386361   -0.850027
     54          6           0       10.092391   -1.838949   -1.426344
     55          6           0       11.461994   -0.271954    0.030440
     56          6           0       12.734738   -0.495705   -0.818648
     57          6           0       13.997036   -0.120790    0.053055
     58          6           0       15.364445   -0.282981   -0.460191
     59          6           0       15.690104   -1.771378   -0.786015
     60          6           0       16.439108    0.333498    0.498806
     61          6           0       17.842724    0.564161   -0.148034
     62          6           0       18.862999    1.277191    0.704079
     63          6           0       20.226714    1.293954    0.152987
     64          6           0       20.348226    2.120651   -1.161605
     65          6           0       21.280883    1.965034    1.076380
     66          1           0       -4.422371    3.492850    1.901952
     67          1           0      -10.099672    3.959396   -0.640813
     68          1           0      -10.178691   -2.430714   -1.076774
     69          1           0       -2.826979   -1.147895    2.142884
     70          1           0       -2.373652    1.653424    1.319480
     71          1           0       -2.179658    1.087452    3.809722
     72          1           0       -3.274251    2.245435    3.558440
     73          1           0       -3.861342    0.480859    3.817064
     74          1           0       -2.018354   -1.615189   -0.387995
     75          1           0       -2.106495    0.224100   -0.700525
     76          1           0       -0.112982    0.340464    1.308549
     77          1           0       -0.187150   -1.242960    1.444850
     78          1           0       -5.742728    6.751810    0.810301
     79          1           0       -5.731995    5.827466    2.145060
     80          1           0       -4.440523    5.559379    0.968531
     81          1           0       -9.420452    5.995561   -0.450416
     82          1           0       -9.082970    8.027045    0.698223
     83          1           0       -7.600413    7.529478    1.602949
     84          1           0      -11.944834    3.099232   -2.248881
     85          1           0      -13.153167    2.040246   -1.890546
     86          1           0      -12.708705    2.879134   -0.601844
     87          1           0      -12.652708   -1.631806   -1.204141
     88          1           0      -13.174617   -0.170400   -1.742462
     89          1           0      -12.875292   -1.928590   -3.415195
     90          1           0      -12.263431   -0.543030   -4.065235
     91          1           0      -11.134940   -1.888758   -3.457327
     92          1           0       -9.035086   -4.751723   -1.971178
     93          1           0       -8.184457   -5.560322   -0.682152
     94          1           0       -9.619048   -4.804803   -0.277967
     95          1           0       -3.247675   -3.360235   -0.074620
     96          1           0       -1.598856   -4.264358    3.608761
     97          1           0       -2.895945   -5.183872    3.614699
     98          1           0       -1.538545   -5.947941    2.863935
     99          1           0        2.739501   -1.732159   -1.495954
    100          1           0        2.739981    0.115324   -1.953662
    101          1           0        4.397906   -1.077453    0.297988
    102          1           0        4.169072    1.474897   -2.331265
    103          1           0        5.351259    2.324207   -1.477714
    104          1           0        5.743649    0.971704   -2.938350
    105          1           0        6.729294    1.659945    0.104167
    106          1           0        6.191003   -0.243668    0.757894
    107          1           0        7.371748   -1.292678   -1.251524
    108          1           0        7.557006    0.264255   -1.872985
    109          1           0        9.081689    1.046095    0.257678
    110          1           0        8.702206   -0.696944    0.822972
    111          1           0       10.363219    0.350187   -1.701448
    112          1           0        9.253525   -1.903706   -2.249244
    113          1           0       11.040974   -1.909323   -1.953398
    114          1           0       10.151433   -2.673122   -0.671279
    115          1           0       11.359088    0.669622    0.210729
    116          1           0       11.530092   -1.034001    0.883334
    117          1           0       12.833616   -1.472490   -0.990800
    118          1           0       12.720789    0.041515   -1.773922
    119          1           0       13.948189    0.862872    0.459768
    120          1           0       14.025928   -0.720067    0.873421
    121          1           0       15.326904    0.225026   -1.297794
    122          1           0       15.590616   -2.313679    0.163184
    123          1           0       15.112468   -2.275356   -1.615952
    124          1           0       16.799183   -1.819899   -1.150114
    125          1           0       15.886680    1.283506    0.853477
    126          1           0       16.560325   -0.331158    1.314955
    127          1           0       18.378238   -0.428437   -0.371223
    128          1           0       17.785626    0.867551   -1.148173
    129          1           0       18.552421    2.209950    0.748009
    130          1           0       18.971315    0.716354    1.602880
    131          1           0       20.487980    0.313559    0.079232
    132          1           0       19.659684    3.152851   -0.956547
    133          1           0       21.189984    2.389694   -1.449629
    134          1           0       19.787260    1.652547   -1.908879
    135          1           0       20.956013    1.404816    2.085213
    136          1           0       22.401666    1.892329    0.802277
    137          1           0       21.264540    3.223852    1.053340
 ---------------------------------------------------------------------

 SCF Done:  E(RCAM-B3LYP) =  -2933.47840484     A.U. after   16 cycles

 Excitation energies and oscillator strengths:

 Excited State   1:      Singlet-A      2.0193 eV  613.99 nm  f=0.2694  <S**2>=0.000
     240 -> 242       -0.13451
     240 -> 243        0.22965
     241 -> 242        0.64666
 This state for optimization and/or second-order correction.
 Total Energy, E(TD-HF/TD-DFT) =  -2933.40419638
 Copying the excited state density for this state as the 1-particle RhoCI density.

 The electronic state is 1-A.
 Alpha  occ. eigenvalues --  -46.78797 -19.22877 -19.21722 -19.17006 -19.16494
 Alpha  occ. eigenvalues --  -19.15029 -14.37346 -14.35366 -14.34557 -14.34484
 Alpha  occ. eigenvalues --  -10.34196 -10.34047 -10.29858 -10.27913 -10.26355
 Alpha  occ. eigenvalues --  -10.26050 -10.25958 -10.25709 -10.25084 -10.24141
 Alpha  occ. eigenvalues --  -10.24105 -10.23995 -10.23835 -10.23776 -10.23719
 Alpha  occ. eigenvalues --  -10.23387 -10.23377 -10.23213 -10.23120 -10.23004
 Alpha  occ. eigenvalues --  -10.22919 -10.22849 -10.22363 -10.22232 -10.22084
 Alpha  occ. eigenvalues --  -10.22077 -10.22047 -10.21994 -10.21990 -10.21989
 Alpha  occ. eigenvalues --  -10.21895 -10.21866 -10.21859 -10.21840 -10.21657
 Alpha  occ. eigenvalues --  -10.21454 -10.21348 -10.20881 -10.20873 -10.20801
 Alpha  occ. eigenvalues --  -10.20713 -10.20523 -10.20512 -10.20421 -10.20390
 Alpha  occ. eigenvalues --  -10.20228 -10.20221 -10.20187 -10.20171 -10.19997
 Alpha  occ. eigenvalues --  -10.19871 -10.19539 -10.19249 -10.18692 -10.18578
 Alpha  occ. eigenvalues --   -3.07587  -1.82515  -1.82048  -1.82020  -1.15248
 Alpha  occ. eigenvalues --   -1.14129  -1.06743  -1.06118  -1.03227  -0.99002
 Alpha  occ. eigenvalues --   -0.98254  -0.97593  -0.96665  -0.87092  -0.86582
 Alpha  occ. eigenvalues --   -0.86243  -0.85384  -0.84589  -0.84061  -0.83939
 Alpha  occ. eigenvalues --   -0.83863  -0.82799  -0.81914  -0.81119  -0.80989
 Alpha  occ. eigenvalues --   -0.80026  -0.79002  -0.78636  -0.78345  -0.78217
 Alpha  occ. eigenvalues --   -0.76779  -0.76413  -0.75530  -0.74922  -0.73707
 Alpha  occ. eigenvalues --   -0.73590  -0.73123  -0.72201  -0.71357  -0.71171
 Alpha  occ. eigenvalues --   -0.70527  -0.70370  -0.69708  -0.69221  -0.67921
 Alpha  occ. eigenvalues --   -0.67314  -0.66541  -0.65910  -0.65194  -0.64048
 Alpha  occ. eigenvalues --   -0.62761  -0.62510  -0.61615  -0.60529  -0.60380
 Alpha  occ. eigenvalues --   -0.60068  -0.59463  -0.59407  -0.58697  -0.58384
 Alpha  occ. eigenvalues --   -0.57932  -0.56476  -0.56099  -0.55470  -0.54866
 Alpha  occ. eigenvalues --   -0.54371  -0.54340  -0.53324  -0.53197  -0.52735
 Alpha  occ. eigenvalues --   -0.52357  -0.52079  -0.51700  -0.51472  -0.51066
 Alpha  occ. eigenvalues --   -0.50871  -0.50663  -0.50242  -0.49990  -0.49184
 Alpha  occ. eigenvalues --   -0.49067  -0.48718  -0.48203  -0.47869  -0.47735
 Alpha  occ. eigenvalues --   -0.47442  -0.47401  -0.47318  -0.47176  -0.47099
 Alpha  occ. eigenvalues --   -0.46974  -0.46829  -0.46547  -0.46408  -0.46365
 Alpha  occ. eigenvalues --   -0.45810  -0.45750  -0.45597  -0.45245  -0.45149
 Alpha  occ. eigenvalues --   -0.44993  -0.44607  -0.44131  -0.44099  -0.43927
 Alpha  occ. eigenvalues --   -0.43550  -0.43502  -0.43285  -0.43034  -0.42725
 Alpha  occ. eigenvalues --   -0.42522  -0.42045  -0.41803  -0.41536  -0.41441
 Alpha  occ. eigenvalues --   -0.41298  -0.41037  -0.40898  -0.40874  -0.40831
 Alpha  occ. eigenvalues --   -0.40725  -0.40346  -0.40269  -0.40036  -0.39729
 Alpha  occ. eigenvalues --   -0.39647  -0.39307  -0.39045  -0.38897  -0.38656
 Alpha  occ. eigenvalues --   -0.38523  -0.38474  -0.38291  -0.38016  -0.37952
 Alpha  occ. eigenvalues --   -0.37882  -0.37607  -0.37427  -0.37128  -0.36973
 Alpha  occ. eigenvalues --   -0.36828  -0.36727  -0.36618  -0.36381  -0.36255
 Alpha  occ. eigenvalues --   -0.35492  -0.35308  -0.34918  -0.34898  -0.34661
 Alpha  occ. eigenvalues --   -0.34289  -0.34059  -0.34041  -0.33906  -0.33452
 Alpha  occ. eigenvalues --   -0.33209  -0.33082  -0.33049  -0.32787  -0.32536
 Alpha  occ. eigenvalues --   -0.32334  -0.32326  -0.31686  -0.31007  -0.30683
 Alpha  occ. eigenvalues --   -0.30435  -0.30005  -0.28926  -0.28450  -0.28087
 Alpha  occ. eigenvalues --   -0.26638  -0.26163  -0.25811  -0.24983  -0.21374
 Alpha  occ. eigenvalues --   -0.19530
 Alpha virt. eigenvalues --   -0.06823  -0.03866   0.00214   0.01814   0.04288
 Alpha virt. eigenvalues --    0.04924   0.05102   0.05493   0.05596   0.05874
 Alpha virt. eigenvalues --    0.06677   0.09024   0.09409   0.09780   0.10552

 Mulliken charges:
               1
     1  Mg   0.801841
     2  C    0.024959
     3  C   -0.188602
     4  C   -0.154712
     5  C   -0.168416
     6  N   -0.611835
     7  C    0.300799
     8  C   -0.182000
     9  C   -0.114344
    10  C    0.319247
    11  C   -0.315700
    12  C   -0.148280
    13  C   -0.279174
    14  C    0.614245
    15  O   -0.442001
    16  O   -0.467784
    17  N   -0.711716
    18  C    0.287560
    19  C   -0.002252
    20  C    0.055378
    21  C    0.282995
    22  C   -0.378864
    23  C   -0.103479
    24  C   -0.245064
    25  N   -0.673262
    26  C    0.329155
    27  C   -0.020262
    28  C    0.065415
    29  C    0.239219
    30  C   -0.380989
    31  C   -0.233197
    32  C   -0.311285
    33  N   -0.691802
    34  C    0.208994
    35  C   -0.017586
    36  C   -0.019115
    37  C    0.346743
    38  C   -0.344758
    39  C    0.375522
    40  O   -0.490239
    41  C   -0.302264
    42  C    0.626731
    43  O   -0.452359
    44  O   -0.424262
    45  C   -0.103374
    46  C    0.003332
    47  C   -0.104365
    48  C    0.115405
    49  C   -0.361015
    50  C   -0.183631
    51  C   -0.187610
    52  C   -0.150960
    53  C   -0.076562
    54  C   -0.312588
    55  C   -0.137617
    56  C   -0.197637
    57  C   -0.179486
    58  C   -0.055504
    59  C   -0.317061
    60  C   -0.171663
    61  C   -0.198471
    62  C   -0.134696
    63  C   -0.061998
    64  C   -0.285642
    65  C   -0.284551
    66  H    0.082759
    67  H    0.078161
    68  H    0.080093
    69  H    0.108287
    70  H    0.104341
    71  H    0.108354
    72  H    0.107934
    73  H    0.119032
    74  H    0.126246
    75  H    0.088937
    76  H    0.131979
    77  H    0.127057
    78  H    0.117496
    79  H    0.137704
    80  H    0.127341
    81  H    0.080534
    82  H    0.108437
    83  H    0.090359
    84  H    0.119911
    85  H    0.108209
    86  H    0.129938
    87  H    0.116992
    88  H    0.109499
    89  H    0.118761
    90  H    0.118956
    91  H    0.108083
    92  H    0.112399
    93  H    0.151538
    94  H    0.131766
    95  H    0.151279
    96  H    0.123772
    97  H    0.141965
    98  H    0.131654
    99  H    0.130007
   100  H    0.101058
   101  H    0.076397
   102  H    0.102058
   103  H    0.126004
   104  H    0.122330
   105  H    0.042401
   106  H    0.082495
   107  H    0.104619
   108  H    0.089749
   109  H    0.075980
   110  H    0.105988
   111  H    0.082002
   112  H    0.086205
   113  H    0.101589
   114  H    0.099617
   115  H    0.097645
   116  H    0.085984
   117  H    0.112981
   118  H    0.083985
   119  H    0.078895
   120  H    0.086169
   121  H    0.088705
   122  H    0.097937
   123  H    0.097288
   124  H    0.086948
   125  H    0.078799
   126  H    0.096519
   127  H    0.071806
   128  H    0.101537
   129  H    0.100067
   130  H    0.087248
   131  H    0.093719
   132  H    0.056762
   133  H    0.107927
   134  H    0.101938
   135  H    0.072879
   136  H    0.099076
   137  H    0.069405
 Sum of Mulliken charges =  -0.00000

 Dipole moment (field-independent basis, Debye):
    X=              1.8445    Y=              3.8774    Z=              1.1092  Tot=              4.4347
 Quadrupole moment (field-independent basis, Debye-Ang):
   XX=           -334.2864   YY=           -399.8442   ZZ=           -391.8035
   XY=            -29.0619   XZ=              0.0890   YZ=             -3.0430

 Normal termination of Gaussian 16 at Sat Sep 14 07:21:14 2019.
