 Gaussian 09, Revision D.01,
 Gaussian 09:  ES64L-G09RevD.01 24-Apr-2013

 ---------------------------------------
 # td(NStates=1) B3LYP/6-31G(d,p) nosymm
 ---------------------------------------

 --------------------------
 b-caroten-emi Single Point
 --------------------------
 Symbolic Z-matrix:
 Charge =  0 Multiplicity = 1

                          Input orientation:
 ---------------------------------------------------------------------
 Center     Atomic      Atomic             Coordinates (Angstroms)
 Number     Number       Type             X           Y           Z
 ---------------------------------------------------------------------
      1          6           0       12.164929    0.628703   -0.607053
      2          6           0      -12.103783   -0.120959    0.679276
      3          6           0       13.504385   -0.212525   -0.476399
      4          6           0      -12.981314    1.131512    1.175710
      5          6           0       13.278017   -1.771669   -0.612057
      6          6           0      -13.204533    2.218220    0.198993
      7          6           0       10.958195    0.028306    0.132513
      8          6           0      -10.933977    0.491946   -0.101442
      9          6           0       12.176965   -2.136980    0.419994
     10          6           0      -11.875781    2.799384   -0.389120
     11          6           0       11.077362   -1.261247    0.705448
     12          6           0      -10.875692    1.727744   -0.641288
     13          6           0       11.755881    0.815668   -2.102862
     14          6           0       12.387454    2.109236   -0.129091
     15          6           0      -13.001261   -0.807055   -0.242711
     16          6           0      -11.679376   -0.939536    1.860912
     17          6           0        9.744484    0.870456    0.406987
     18          6           0       -9.870275   -0.505811   -0.353631
     19          6           0       10.051756   -1.866407    1.662077
     20          6           0       -9.732349    2.247255   -1.429901
     21          6           0        8.435802    0.477869    0.334516
     22          6           0       -8.510365   -0.281685   -0.256856
     23          6           0        7.357659    1.401143    0.443982
     24          6           0       -7.531637   -1.335031   -0.447680
     25          6           0        7.500346    2.836812    0.733443
     26          6           0       -7.975530   -2.738587   -0.723276
     27          6           0        6.211415    0.747154    0.319963
     28          6           0       -6.241457   -1.069581   -0.174197
     29          6           0        4.964438    1.329784    0.312337
     30          6           0       -5.032107   -1.766979   -0.409762
     31          6           0        3.644318    0.627598    0.165484
     32          6           0       -3.719053   -1.190363   -0.168266
     33          6           0        2.422881    1.226186    0.181591
     34          6           0       -2.526895   -1.855818   -0.320999
     35          6           0        2.255835    2.693213    0.250282
     36          6           0       -2.581528   -3.445934   -0.408241
     37          6           0        1.232616    0.418775    0.082895
     38          6           0       -1.403217   -1.201939   -0.120294
     39          6           0        1.056275   -1.043024   -0.000295
     40          6           0       -0.040734   -1.695263   -0.098768
     41          1           0       13.987726    0.246850    0.377768
     42          1           0       14.250992    0.129136   -1.302299
     43          1           0      -12.635249    1.575067    2.092843
     44          1           0      -13.986564    0.753325    1.418431
     45          1           0       14.213222   -2.346183   -0.400971
     46          1           0       12.983970   -1.676516   -1.665557
     47          1           0      -13.806703    3.098118    0.518708
     48          1           0      -13.778036    1.716136   -0.550392
     49          1           0       12.766405   -2.335514    1.308049
     50          1           0       11.802296   -3.220116    0.276049
     51          1           0      -11.372103    3.381423    0.451269
     52          1           0      -12.059050    3.566411   -1.230712
     53          1           0       11.516732   -0.298030   -2.377277
     54          1           0       12.414508    1.326915   -2.603028
     55          1           0       10.755811    1.147674   -2.264263
     56          1           0       12.302652    2.271060    0.959152
     57          1           0       11.517573    2.616007   -0.460765
     58          1           0       13.244464    2.319629   -0.623686
     59          1           0      -13.309487   -0.111582   -1.193982
     60          1           0      -14.148361   -1.122399    0.014350
     61          1           0      -12.428588   -1.788753   -0.379213
     62          1           0      -11.011012   -0.368249    2.563495
     63          1           0      -11.424108   -1.993319    1.637449
     64          1           0      -12.535760   -1.113426    2.643572
     65          1           0        9.946284    1.927663    0.372845
     66          1           0      -10.215867   -1.617568   -0.409752
     67          1           0        9.363115   -1.197607    2.324573
     68          1           0       10.509793   -2.455910    2.438596
     69          1           0        9.345239   -2.726065    1.096108
     70          1           0       -8.918404    1.513025   -1.836824
     71          1           0       -9.119057    3.000249   -0.858892
     72          1           0      -10.266242    2.979154   -2.191054
     73          1           0        8.239856   -0.459221    0.417992
     74          1           0       -8.370557    0.831779    0.004178
     75          1           0        8.426949    2.993146    1.570594
     76          1           0        6.498305    3.170975    1.230778
     77          1           0        7.892722    3.418447   -0.125273
     78          1           0       -8.772836   -2.831199   -1.628968
     79          1           0       -8.471173   -3.067249    0.247921
     80          1           0       -7.018058   -3.327060   -0.820411
     81          1           0        6.203112   -0.408046    0.150175
     82          1           0       -5.937994   -0.053626    0.249573
     83          1           0        4.702332    2.327013    0.767370
     84          1           0       -5.085428   -2.805896   -0.504060
     85          1           0        3.392383   -0.406767   -0.097007
     86          1           0       -3.695362   -0.208852    0.205934
     87          1           0        2.562544    3.193354    1.184766
     88          1           0        1.183103    3.008611    0.195365
     89          1           0        2.818628    3.113849   -0.624870
     90          1           0       -3.104805   -3.780587   -1.293966
     91          1           0       -3.311843   -3.797464    0.469017
     92          1           0       -1.681579   -4.194301   -0.590600
     93          1           0        0.145670    0.996985    0.000849
     94          1           0       -1.393210   -0.157940    0.143077
     95          1           0        2.003870   -1.614945    0.106998
     96          1           0        0.033779   -2.882206    0.013995
 ---------------------------------------------------------------------

 SCF Done:  E(RB3LYP) =  -1557.57707596     A.U. after   16 cycles

 Excitation energies and oscillator strengths:

 Excited state symmetry could not be determined.
 Excited State   1:      Singlet-?Sym    1.9567 eV  633.65 nm  f=3.0311  <S**2>=0.000
     148 ->149         0.70881
     148 <-149        -0.12329
 This state for optimization and/or second-order correction.
 Total Energy, E(TD-HF/TD-KS) =  -1557.50516980
 Copying the excited state density for this state as the 1-particle RhoCI density.

 Alpha  occ. eigenvalues --  -10.20788 -10.20715 -10.20232 -10.20088 -10.20031
 Alpha  occ. eigenvalues --  -10.20004 -10.19872 -10.19806 -10.19762 -10.19751
 Alpha  occ. eigenvalues --  -10.19591 -10.19515 -10.19388 -10.19256 -10.19175
 Alpha  occ. eigenvalues --  -10.19042 -10.19042 -10.18985 -10.18955 -10.18953
 Alpha  occ. eigenvalues --  -10.18870 -10.18846 -10.18837 -10.18836 -10.18749
 Alpha  occ. eigenvalues --  -10.18712 -10.18642 -10.18593 -10.18534 -10.18493
 Alpha  occ. eigenvalues --  -10.18474 -10.18300 -10.18280 -10.18171 -10.18129
 Alpha  occ. eigenvalues --  -10.17601 -10.17058 -10.16737 -10.16186 -10.16063
 Alpha  occ. eigenvalues --   -0.85669  -0.84762  -0.83995  -0.83698  -0.82644
 Alpha  occ. eigenvalues --   -0.81996  -0.79484  -0.79107  -0.78718  -0.77455
 Alpha  occ. eigenvalues --   -0.76894  -0.74674  -0.73959  -0.71852  -0.71505
 Alpha  occ. eigenvalues --   -0.69326  -0.68773  -0.68380  -0.68095  -0.68019
 Alpha  occ. eigenvalues --   -0.67565  -0.67292  -0.66904  -0.66512  -0.65917
 Alpha  occ. eigenvalues --   -0.63412  -0.62163  -0.59765  -0.59198  -0.56863
 Alpha  occ. eigenvalues --   -0.56445  -0.55609  -0.55188  -0.53939  -0.53073
 Alpha  occ. eigenvalues --   -0.52404  -0.51679  -0.50376  -0.49878  -0.48613
 Alpha  occ. eigenvalues --   -0.48362  -0.47558  -0.47177  -0.46742  -0.46414
 Alpha  occ. eigenvalues --   -0.45983  -0.45350  -0.44647  -0.44519  -0.43794
 Alpha  occ. eigenvalues --   -0.43564  -0.43221  -0.42892  -0.42202  -0.41896
 Alpha  occ. eigenvalues --   -0.41666  -0.41600  -0.41111  -0.41019  -0.40968
 Alpha  occ. eigenvalues --   -0.40674  -0.40492  -0.40305  -0.39984  -0.39837
 Alpha  occ. eigenvalues --   -0.39296  -0.38688  -0.38614  -0.37915  -0.37842
 Alpha  occ. eigenvalues --   -0.37640  -0.37284  -0.37198  -0.36749  -0.36282
 Alpha  occ. eigenvalues --   -0.36034  -0.35937  -0.35738  -0.35718  -0.35311
 Alpha  occ. eigenvalues --   -0.35226  -0.34836  -0.34215  -0.34108  -0.33696
 Alpha  occ. eigenvalues --   -0.33559  -0.33342  -0.33295  -0.33132  -0.32399
 Alpha  occ. eigenvalues --   -0.32181  -0.31730  -0.31538  -0.30681  -0.30577
 Alpha  occ. eigenvalues --   -0.30119  -0.29996  -0.29637  -0.29452  -0.29167
 Alpha  occ. eigenvalues --   -0.28115  -0.27320  -0.26484  -0.24967  -0.22351
 Alpha  occ. eigenvalues --   -0.20883  -0.18099  -0.15811
 Alpha virt. eigenvalues --   -0.08720  -0.05738  -0.01283   0.00115   0.02766
 Alpha virt. eigenvalues --    0.04357   0.06155   0.06816   0.07286   0.07329
 Alpha virt. eigenvalues --    0.07781   0.07873   0.08037   0.08236   0.08754

 Mulliken charges:
               1
     1  C   -0.037773
     2  C   -0.002341
     3  C   -0.199097
     4  C   -0.179938
     5  C   -0.187935
     6  C   -0.187701
     7  C    0.068171
     8  C    0.072163
     9  C   -0.230371
    10  C   -0.223565
    11  C    0.095759
    12  C    0.100008
    13  C   -0.285784
    14  C   -0.304127
    15  C   -0.267086
    16  C   -0.309024
    17  C   -0.156052
    18  C   -0.123736
    19  C   -0.362573
    20  C   -0.372512
    21  C   -0.053621
    22  C   -0.106672
    23  C    0.163506
    24  C    0.107122
    25  C   -0.369973
    26  C   -0.367869
    27  C   -0.103217
    28  C   -0.110873
    29  C   -0.142556
    30  C   -0.090269
    31  C   -0.110456
    32  C   -0.140429
    33  C    0.133803
    34  C    0.174342
    35  C   -0.387188
    36  C   -0.381653
    37  C   -0.143200
    38  C   -0.128112
    39  C   -0.063454
    40  C   -0.097970
    41  H    0.096860
    42  H    0.069296
    43  H    0.082458
    44  H    0.085426
    45  H    0.097436
    46  H    0.114374
    47  H    0.087040
    48  H    0.097878
    49  H    0.112756
    50  H    0.089079
    51  H    0.105422
    52  H    0.090823
    53  H    0.081312
    54  H    0.103231
    55  H    0.109010
    56  H    0.099158
    57  H    0.108284
    58  H    0.105180
    59  H    0.093710
    60  H    0.078635
    61  H    0.084202
    62  H    0.112579
    63  H    0.099650
    64  H    0.085506
    65  H    0.061098
    66  H    0.068118
    67  H    0.111938
    68  H    0.109792
    69  H    0.078953
    70  H    0.122980
    71  H    0.110739
    72  H    0.084333
    73  H    0.072733
    74  H    0.094169
    75  H    0.089456
    76  H    0.112125
    77  H    0.134082
    78  H    0.105932
    79  H    0.126090
    80  H    0.107150
    81  H    0.084754
    82  H    0.064584
    83  H    0.086472
    84  H    0.074015
    85  H    0.066440
    86  H    0.083265
    87  H    0.118004
    88  H    0.104103
    89  H    0.121719
    90  H    0.125099
    91  H    0.109606
    92  H    0.101994
    93  H    0.061285
    94  H    0.076728
    95  H    0.085298
    96  H    0.069891
 Sum of Mulliken charges =   0.00000

 Dipole moment (field-independent basis, Debye):
    X=              0.1154    Y=              0.3277    Z=              1.0360  Tot=              1.0926
 Quadrupole moment (field-independent basis, Debye-Ang):
   XX=           -214.1868   YY=           -233.8062   ZZ=           -256.6870
   XY=             -3.2418   XZ=             -3.0355   YZ=              0.3853

 Normal termination of Gaussian 09 at Fri May 17 11:48:12 2019.
