 Gaussian 09, Revision D.01,
 Gaussian 09:  ES64L-G09RevD.01 24-Apr-2013

 --------------------------
 # td=(NStates=1) B3LYP/SVP
 --------------------------

 --
 TD
 --
 Symbolic Z-matrix:
 Charge =  0 Multiplicity = 1

                         Standard orientation:
 ---------------------------------------------------------------------
 Center     Atomic      Atomic             Coordinates (Angstroms)
 Number     Number       Type             X           Y           Z
 ---------------------------------------------------------------------
      1          6           0       -5.117558   -1.947827    0.411486
      2          6           0       -4.708534    2.770751    1.392696
      3          6           0       -9.324081    3.362333   -0.257282
      4          6           0       -9.907221   -1.496670   -0.847846
      5          7           0       -5.251616    0.462902    0.832614
      6          6           0       -4.458931   -0.723807    0.763083
      7          6           0       -3.028059   -0.592790    1.312654
      8          6           0       -3.085749    0.881679    1.883675
      9          6           0       -4.351109    1.431315    1.345499
     10          6           0       -3.030295    0.871164    3.416444
     11          6           0       -2.003639   -0.756236    0.183439
     12          6           0       -0.578356   -0.713976    0.555706
     13          6           0        0.464691   -0.995672   -0.610777
     14          8           0        0.108461   -1.387507   -1.671707
     15          8           0        1.659741   -0.805719   -0.265361
     16          7           0       -6.984739    2.845964    0.470432
     17          6           0       -5.891277    3.392112    0.960467
     18          6           0       -6.199217    4.768520    1.054568
     19          6           0       -7.435147    4.947853    0.453186
     20          6           0       -8.005463    3.703600    0.112608
     21          6           0       -5.324291    5.916966    1.539660
     22          6           0       -8.183695    6.195109    0.297561
     23          6           0       -9.055659    6.521158   -0.598591
     24          7           0       -9.261745    0.894277   -0.328311
     25          6           0       -9.856481    2.118569   -0.572797
     26          6           0      -11.202229    1.954669   -1.134147
     27          6           0      -11.349196    0.592635   -1.333332
     28          6           0      -10.210885    0.017610   -0.902619
     29          6           0      -12.223550    3.059254   -1.167084
     30          6           0      -12.578854   -0.236508   -1.587999
     31          6           0      -12.775465   -0.594335   -3.065236
     32          7           0       -7.487106   -1.216030   -0.234698
     33          6           0       -8.629512   -1.919701   -0.627123
     34          6           0       -8.317574   -3.340401   -0.589812
     35          6           0       -6.886716   -3.413454   -0.280202
     36          6           0       -6.491048   -2.061118    0.075569
     37          6           0       -9.095155   -4.480806   -0.836281
     38          6           0       -5.752659   -4.271041    0.034961
     39          8           0       -5.672856   -5.511439    0.078457
     40          6           0       -4.533605   -3.309860    0.449000
     41          6           0       -4.003419   -3.795988    1.851155
     42          8           0       -4.111070   -3.309702    2.943657
     43          8           0       -3.190297   -4.794914    1.523336
     44          6           0       -2.637773   -5.428728    2.706734
     45          6           0        2.657100   -1.267121   -1.146055
     46          6           0        3.998118   -0.808918   -0.621548
     47          6           0        4.957235   -0.047532   -1.167832
     48          6           0        4.982924    0.575754   -2.589586
     49          6           0        6.291339    0.132713   -0.429370
     50          6           0        7.535415   -0.536395   -1.079784
     51          6           0        8.852878   -0.432714   -0.235378
     52          6           0       10.100229   -0.869067   -0.990768
     53          6           0       10.137668   -2.335680   -1.315917
     54          6           0       11.277962   -0.430042   -0.125872
     55          6           0       12.794526   -0.734050   -0.662569
     56          6           0       13.822393    0.007239    0.305204
     57          6           0       15.214879   -0.144740   -0.322796
     58          6           0       15.690213   -1.629589   -0.372834
     59          6           0       16.209106    0.715036    0.405065
     60          6           0       17.705698    0.800783   -0.071118
     61          6           0       18.557018    1.777742    0.779476
     62          6           0       20.043147    1.833810    0.238940
     63          6           0       20.173949    2.241807   -1.233507
     64          6           0       20.975114    2.590682    1.211934
     65          1           0       -3.913769    3.581711    1.638468
     66          1           0       -9.814798    4.179675   -0.188928
     67          1           0      -10.570377   -2.117865   -1.209094
     68          1           0       -2.770105   -1.334880    2.118050
     69          1           0       -2.238213    1.274429    1.644377
     70          1           0       -2.030708    0.488674    3.816298
     71          1           0       -3.275596    1.895110    3.665998
     72          1           0       -3.936511    0.331196    3.755360
     73          1           0       -2.218531   -1.768766   -0.285417
     74          1           0       -2.232061   -0.196108   -0.695711
     75          1           0       -0.192487    0.289159    1.040136
     76          1           0       -0.354977   -1.491806    1.131122
     77          1           0       -4.348130    5.991015    1.046506
     78          1           0       -5.884728    6.950509    1.602765
     79          1           0       -4.955980    5.567982    2.602046
     80          1           0       -7.922205    7.056862    0.967346
     81          1           0       -9.553618    5.862772   -1.449519
     82          1           0       -9.530529    7.466423   -0.619058
     83          1           0      -12.027284    3.743459   -0.326524
     84          1           0      -12.286612    3.702231   -2.193143
     85          1           0      -13.278138    2.735130   -1.317023
     86          1           0      -12.549642   -1.078218   -0.848017
     87          1           0      -13.432035    0.370974   -1.214909
     88          1           0      -12.703218    0.312826   -3.654490
     89          1           0      -11.982824   -1.112503   -3.481219
     90          1           0      -13.610914   -1.058894   -3.506941
     91          1           0       -9.888888   -4.554251   -0.031374
     92          1           0       -9.588096   -4.330120   -1.869072
     93          1           0       -8.474333   -5.458936   -0.918565
     94          1           0       -3.738985   -3.541758   -0.215020
     95          1           0       -1.893167   -6.221209    2.592831
     96          1           0       -2.372332   -4.605940    3.416224
     97          1           0       -3.567273   -5.820564    3.170993
     98          1           0        2.597571   -2.272816   -1.072461
     99          1           0        2.609155   -0.990212   -2.117151
    100          1           0        4.307682   -1.176569    0.345385
    101          1           0        5.348348    1.664563   -2.343183
    102          1           0        5.814735    0.002991   -3.418114
    103          1           0        3.906886    0.509499   -3.165438
    104          1           0        6.480457    1.267502   -0.298584
    105          1           0        6.107723   -0.350767    0.525899
    106          1           0        7.354953   -1.561227   -1.297554
    107          1           0        7.767852   -0.245780   -2.023406
    108          1           0        8.941308    0.588594    0.145431
    109          1           0        8.526125   -1.130609    0.702411
    110          1           0        9.993911   -0.245317   -2.029991
    111          1           0        9.314388   -2.795416   -1.850175
    112          1           0       10.933078   -2.852590   -1.920642
    113          1           0       10.057734   -2.906815   -0.265559
    114          1           0       11.154202    0.689788    0.023964
    115          1           0       11.328947   -0.891357    0.967111
    116          1           0       12.892171   -1.889166   -0.656157
    117          1           0       12.848739   -0.472431   -1.859534
    118          1           0       13.631109    1.100402    0.407232
    119          1           0       13.710762   -0.437880    1.364725
    120          1           0       14.992665    0.279073   -1.267058
    121          1           0       15.032092   -2.318520   -1.067501
    122          1           0       16.517607   -1.818947   -0.712448
    123          1           0       15.659902   -2.196436    0.609553
    124          1           0       15.826799    1.898506    0.642959
    125          1           0       16.220455    0.282980    1.571032
    126          1           0       18.261224   -0.119446   -0.182753
    127          1           0       17.450919    1.149071   -1.088910
    128          1           0       18.302604    2.763722    0.553513
    129          1           0       18.554661    1.482220    1.840419
    130          1           0       20.408587    0.851033    0.233061
    131          1           0       19.673244    3.357815   -1.223299
    132          1           0       21.311949    2.258257   -1.540473
    133          1           0       19.427109    1.621611   -1.779902
    134          1           0       20.724415    2.464083    2.351330
    135          1           0       22.054207    2.486861    1.081888
    136          1           0       20.939592    3.731588    1.107484
    137          1           0       -7.137335    1.803143    0.442338
    138          1           0       -7.422040   -0.321466    0.244490
 ---------------------------------------------------------------------

 SCF Done:  E(RB3LYP) =  -2733.10447460     A.U. after   18 cycles

 Excitation energies and oscillator strengths:

 Excited State   1:      Singlet-A      1.9760 eV  627.46 nm  f=0.0953  <S**2>=0.000
     235 -> 237       -0.28809
     235 -> 238       -0.30120
     236 -> 237        0.52922
     236 -> 238       -0.20313
 This state for optimization and/or second-order correction.
 Total Energy, E(TD-HF/TD-KS) =  -2733.03185928
 Copying the excited state density for this state as the 1-particle RhoCI density.

 The electronic state is 1-A.
 Alpha  occ. eigenvalues --  -19.18902 -19.18006 -19.13033 -19.11780 -19.11197
 Alpha  occ. eigenvalues --  -14.36945 -14.36406 -14.33209 -14.29339 -10.31586
 Alpha  occ. eigenvalues --  -10.30751 -10.27841 -10.24324 -10.24160 -10.23958
 Alpha  occ. eigenvalues --  -10.23934 -10.23514 -10.23120 -10.23112 -10.23018
 Alpha  occ. eigenvalues --  -10.22483 -10.22477 -10.21016 -10.20995 -10.20830
 Alpha  occ. eigenvalues --  -10.20779 -10.20778 -10.20738 -10.20572 -10.20551
 Alpha  occ. eigenvalues --  -10.20457 -10.20437 -10.20139 -10.20100 -10.20052
 Alpha  occ. eigenvalues --  -10.20017 -10.19772 -10.19729 -10.19724 -10.19692
 Alpha  occ. eigenvalues --  -10.19673 -10.19544 -10.19476 -10.19476 -10.19468
 Alpha  occ. eigenvalues --  -10.19376 -10.19298 -10.19191 -10.19055 -10.18975
 Alpha  occ. eigenvalues --  -10.18931 -10.18895 -10.18786 -10.18770 -10.18667
 Alpha  occ. eigenvalues --  -10.18594 -10.18558 -10.18491 -10.18375 -10.18018
 Alpha  occ. eigenvalues --  -10.17662 -10.17346 -10.17042 -10.16848  -1.13847
 Alpha  occ. eigenvalues --   -1.10461  -1.01871  -1.01368  -1.00627  -0.99211
 Alpha  occ. eigenvalues --   -0.98285  -0.92196  -0.91957  -0.84340  -0.82733
 Alpha  occ. eigenvalues --   -0.82159  -0.81922  -0.81684  -0.81292  -0.80869
 Alpha  occ. eigenvalues --   -0.80501  -0.79752  -0.79125  -0.78597  -0.78123
 Alpha  occ. eigenvalues --   -0.77056  -0.75932  -0.75714  -0.74668  -0.74338
 Alpha  occ. eigenvalues --   -0.73621  -0.73450  -0.72664  -0.71278  -0.70917
 Alpha  occ. eigenvalues --   -0.69943  -0.69352  -0.68153  -0.68022  -0.67177
 Alpha  occ. eigenvalues --   -0.67143  -0.66646  -0.66542  -0.65920  -0.65411
 Alpha  occ. eigenvalues --   -0.64033  -0.63081  -0.62726  -0.62108  -0.61513
 Alpha  occ. eigenvalues --   -0.61040  -0.59596  -0.59144  -0.58608  -0.57985
 Alpha  occ. eigenvalues --   -0.57225  -0.56558  -0.56135  -0.55735  -0.55529
 Alpha  occ. eigenvalues --   -0.55062  -0.54962  -0.54301  -0.53688  -0.53046
 Alpha  occ. eigenvalues --   -0.52938  -0.52589  -0.52343  -0.51155  -0.50876
 Alpha  occ. eigenvalues --   -0.50681  -0.49339  -0.49046  -0.48746  -0.48208
 Alpha  occ. eigenvalues --   -0.47853  -0.47623  -0.47511  -0.47250  -0.47135
 Alpha  occ. eigenvalues --   -0.46737  -0.46668  -0.46247  -0.45951  -0.45734
 Alpha  occ. eigenvalues --   -0.45319  -0.45099  -0.44951  -0.44790  -0.44669
 Alpha  occ. eigenvalues --   -0.44173  -0.44063  -0.43923  -0.43678  -0.43458
 Alpha  occ. eigenvalues --   -0.43331  -0.43228  -0.43049  -0.42898  -0.42450
 Alpha  occ. eigenvalues --   -0.42186  -0.42054  -0.41961  -0.41741  -0.41591
 Alpha  occ. eigenvalues --   -0.41150  -0.40974  -0.40768  -0.40571  -0.40374
 Alpha  occ. eigenvalues --   -0.40302  -0.40026  -0.39905  -0.39522  -0.39286
 Alpha  occ. eigenvalues --   -0.39253  -0.39002  -0.38629  -0.38568  -0.38056
 Alpha  occ. eigenvalues --   -0.37947  -0.37697  -0.37465  -0.37289  -0.37265
 Alpha  occ. eigenvalues --   -0.37096  -0.36862  -0.36655  -0.36533  -0.36365
 Alpha  occ. eigenvalues --   -0.36201  -0.36111  -0.36073  -0.35692  -0.35665
 Alpha  occ. eigenvalues --   -0.35439  -0.35425  -0.35252  -0.35081  -0.34880
 Alpha  occ. eigenvalues --   -0.34505  -0.34269  -0.34105  -0.33935  -0.33754
 Alpha  occ. eigenvalues --   -0.33647  -0.33504  -0.33239  -0.33146  -0.32922
 Alpha  occ. eigenvalues --   -0.32721  -0.32151  -0.32074  -0.31704  -0.31618
 Alpha  occ. eigenvalues --   -0.31297  -0.30981  -0.30907  -0.30666  -0.30340
 Alpha  occ. eigenvalues --   -0.30147  -0.29600  -0.28909  -0.28618  -0.28583
 Alpha  occ. eigenvalues --   -0.27774  -0.27237  -0.26640  -0.26223  -0.25735
 Alpha  occ. eigenvalues --   -0.25587  -0.24596  -0.23623  -0.21851  -0.19574
 Alpha  occ. eigenvalues --   -0.18987
 Alpha virt. eigenvalues --   -0.10343  -0.08460  -0.04648  -0.00951  -0.00773
 Alpha virt. eigenvalues --    0.00166   0.00534   0.01633   0.02943   0.03286
 Alpha virt. eigenvalues --    0.04320   0.04383   0.04416   0.04790   0.04823

 Mulliken charges:
               1
     1  C    0.033010
     2  C   -0.101201
     3  C    0.033117
     4  C   -0.016228
     5  N   -0.267896
     6  C   -0.000205
     7  C   -0.058806
     8  C    0.113167
     9  C    0.038952
    10  C    0.070822
    11  C    0.046467
    12  C    0.103586
    13  C    0.081768
    14  O   -0.227753
    15  O   -0.228861
    16  N   -0.033796
    17  C    0.065059
    18  C   -0.129092
    19  C    0.069741
    20  C    0.006636
    21  C    0.046781
    22  C   -0.044417
    23  C   -0.073051
    24  N   -0.280186
    25  C    0.125128
    26  C   -0.108314
    27  C   -0.100180
    28  C    0.034909
    29  C    0.048221
    30  C    0.064538
    31  C    0.091855
    32  N    0.001739
    33  C    0.176083
    34  C   -0.137898
    35  C   -0.001844
    36  C   -0.011425
    37  C    0.034762
    38  C    0.056677
    39  O   -0.204290
    40  C   -0.045778
    41  C    0.193502
    42  O   -0.216307
    43  O   -0.291210
    44  C    0.179861
    45  C    0.446748
    46  C   -0.127472
    47  C   -0.133676
    48  C   -0.067385
    49  C    0.077120
    50  C    0.085675
    51  C   -0.021221
    52  C   -0.039340
    53  C    0.000209
    54  C   -0.015222
    55  C   -0.055504
    56  C    0.009249
    57  C    0.022710
    58  C    0.113023
    59  C   -0.086861
    60  C    0.020277
    61  C    0.075222
    62  C   -0.074049
    63  C   -0.034530
    64  C   -0.002057
    65  H   -0.003290
    66  H   -0.129444
    67  H   -0.084412
    68  H    0.023810
    69  H   -0.090031
    70  H    0.036409
    71  H   -0.008553
    72  H    0.020476
    73  H    0.002887
    74  H   -0.009705
    75  H    0.037606
    76  H   -0.026149
    77  H    0.028553
    78  H    0.044988
    79  H    0.024167
    80  H    0.000431
    81  H    0.041244
    82  H    0.006020
    83  H    0.041460
    84  H    0.019734
    85  H    0.007313
    86  H    0.011405
    87  H   -0.004989
    88  H   -0.013531
    89  H   -0.025646
    90  H   -0.006022
    91  H    0.050507
    92  H    0.043670
    93  H    0.065931
    94  H    0.046818
    95  H    0.046843
    96  H    0.035863
    97  H    0.022976
    98  H   -0.030859
    99  H   -0.025348
   100  H   -0.022978
   101  H    0.044447
   102  H    0.065260
   103  H    0.048096
   104  H    0.017569
   105  H   -0.011165
   106  H   -0.024186
   107  H   -0.053345
   108  H   -0.003513
   109  H    0.007192
   110  H    0.013080
   111  H   -0.006536
   112  H    0.019554
   113  H    0.008775
   114  H    0.001800
   115  H    0.014810
   116  H    0.030278
   117  H    0.015559
   118  H    0.001983
   119  H    0.008805
   120  H   -0.022356
   121  H    0.003149
   122  H   -0.080448
   123  H    0.006921
   124  H    0.013563
   125  H   -0.009445
   126  H    0.002396
   127  H    0.004406
   128  H   -0.020331
   129  H    0.009485
   130  H   -0.025287
   131  H    0.010666
   132  H    0.043943
   133  H    0.023469
   134  H    0.015205
   135  H    0.002011
   136  H   -0.005817
   137  H    0.157319
   138  H    0.163973
 Sum of Mulliken charges =   0.00000

 Dipole moment (field-independent basis, Debye):
    X=              3.3957    Y=              2.1586    Z=              0.4284  Tot=              4.0465
 Quadrupole moment (field-independent basis, Debye-Ang):
   XX=           -350.5770   YY=           -383.3479   ZZ=           -396.9107
   XY=            -24.4034   XZ=              3.5423   YZ=              0.5235

 Normal termination of Gaussian 09 at Mon Aug  5 08:30:11 2019.
