 Gaussian 09, Revision D.01,
 Gaussian 09:  ES64L-G09RevD.01 24-Apr-2013

 --------------------------
 # td=(NStates=1) B3LYP/SVP
 --------------------------

 --
 TD
 --
 Symbolic Z-matrix:
 Charge =  0 Multiplicity = 1

                         Standard orientation:
 ---------------------------------------------------------------------
 Center     Atomic      Atomic             Coordinates (Angstroms)
 Number     Number       Type             X           Y           Z
 ---------------------------------------------------------------------
      1          6           0       -5.027226   -1.860945    0.511428
      2          6           0       -4.833026    2.765160    1.545038
      3          6           0       -9.338905    3.297782   -0.288752
      4          6           0       -9.670235   -1.500895   -1.050511
      5          7           0       -5.207320    0.434768    0.909319
      6          6           0       -4.438401   -0.650040    0.861804
      7          6           0       -3.104510   -0.551928    1.378848
      8          6           0       -3.057870    0.913322    1.894794
      9          6           0       -4.476952    1.412782    1.449057
     10          6           0       -2.809007    1.051580    3.392420
     11          6           0       -2.092221   -0.808140    0.229211
     12          6           0       -0.520149   -0.572293    0.545877
     13          6           0        0.351693   -0.932212   -0.702459
     14          8           0        0.032233   -1.342242   -1.731703
     15          8           0        1.634364   -0.686439   -0.300844
     16          7           0       -7.062174    2.678639    0.574127
     17          6           0       -6.067254    3.339687    1.093798
     18          6           0       -6.315071    4.717939    0.985242
     19          6           0       -7.630595    4.895658    0.588280
     20          6           0       -8.137778    3.571219    0.185739
     21          6           0       -5.316423    5.855183    1.400244
     22          6           0       -8.269568    6.163136    0.428581
     23          6           0       -8.901856    6.512855   -0.669281
     24          7           0       -9.239974    0.878240   -0.564633
     25          6           0       -9.935941    1.976569   -0.548884
     26          6           0      -11.315564    1.772199   -0.956792
     27          6           0      -11.339918    0.425732   -1.197199
     28          6           0      -10.047393   -0.132976   -0.916182
     29          6           0      -12.330914    2.894414   -1.075723
     30          6           0      -12.638751   -0.338826   -1.577489
     31          6           0      -12.703963   -0.589018   -3.164452
     32          7           0       -7.324292   -1.297673   -0.257983
     33          6           0       -8.452328   -2.027771   -0.689958
     34          6           0       -8.083494   -3.396395   -0.665809
     35          6           0       -6.698134   -3.364011   -0.308945
     36          6           0       -6.340156   -2.041743    0.051124
     37          6           0       -8.840502   -4.588295   -1.082089
     38          6           0       -5.613865   -4.338322    0.135107
     39          8           0       -5.478888   -5.503381    0.086510
     40          6           0       -4.438107   -3.369284    0.484764
     41          6           0       -3.875661   -3.808073    1.859861
     42          8           0       -4.137406   -3.261318    2.919835
     43          8           0       -3.091710   -4.861991    1.761275
     44          6           0       -2.463559   -5.430214    2.899965
     45          6           0        2.666695   -0.926591   -1.299757
     46          6           0        3.910289   -0.569799   -0.683505
     47          6           0        4.964453    0.117003   -1.209853
     48          6           0        4.847158    0.954754   -2.493692
     49          6           0        6.252203    0.342874   -0.463615
     50          6           0        7.473226   -0.405967   -1.029987
     51          6           0        8.720288   -0.282070   -0.121079
     52          6           0       10.004351   -0.640015   -0.929964
     53          6           0       10.046346   -2.138397   -1.401942
     54          6           0       11.276665   -0.273312   -0.142818
     55          6           0       12.583174   -0.537932   -0.769945
     56          6           0       13.775052   -0.039652    0.098294
     57          6           0       15.245693   -0.284130   -0.491518
     58          6           0       15.500844   -1.798992   -0.643712
     59          6           0       16.175431    0.286921    0.436202
     60          6           0       17.636345    0.540310   -0.112101
     61          6           0       18.488132    1.455431    0.762581
     62          6           0       20.000642    1.691988    0.314780
     63          6           0       20.148210    2.451237   -0.965892
     64          6           0       20.867916    2.481742    1.421588
     65          1           0       -4.094313    3.301262    1.986842
     66          1           0      -10.052042    4.017050   -0.546661
     67          1           0      -10.320005   -2.076201   -1.527674
     68          1           0       -3.040588   -1.445096    2.101200
     69          1           0       -2.163439    1.573372    1.532176
     70          1           0       -1.619751    0.833370    3.552265
     71          1           0       -2.838805    2.159805    3.592900
     72          1           0       -3.641830    0.391667    3.906651
     73          1           0       -2.186323   -1.944230   -0.192560
     74          1           0       -2.318700   -0.123686   -0.676521
     75          1           0       -0.202090    0.354769    1.164029
     76          1           0       -0.326621   -1.480353    1.388600
     77          1           0       -4.417044    5.881180    0.664655
     78          1           0       -5.702727    6.866348    1.487409
     79          1           0       -4.770275    5.501854    2.262754
     80          1           0       -8.164874    6.764016    1.286125
     81          1           0       -8.987402    6.257537   -1.731452
     82          1           0       -9.500553    7.482670   -0.542120
     83          1           0      -12.379114    3.370056   -0.193371
     84          1           0      -12.106010    3.700237   -1.866171
     85          1           0      -13.216672    2.376747   -1.339951
     86          1           0      -12.564735   -1.137560   -0.981398
     87          1           0      -13.519622    0.217113   -1.281422
     88          1           0      -12.686329    0.377089   -3.633107
     89          1           0      -11.929082   -1.261771   -3.404839
     90          1           0      -13.795222   -0.934459   -3.422039
     91          1           0       -9.864659   -4.752207   -0.745256
     92          1           0       -8.943995   -4.764113   -2.262538
     93          1           0       -8.267754   -5.674709   -0.511030
     94          1           0       -3.423627   -3.493846   -0.003156
     95          1           0       -1.805140   -6.063852    2.610962
     96          1           0       -2.191385   -4.545751    3.700912
     97          1           0       -3.164178   -5.934274    3.447571
     98          1           0        2.649293   -2.060643   -1.666444
     99          1           0        2.164853   -0.382788   -2.104277
    100          1           0        4.090035   -0.887441    0.420106
    101          1           0        4.970790    1.905368   -2.324693
    102          1           0        5.419017    0.640743   -3.268632
    103          1           0        3.778693    0.782847   -2.865794
    104          1           0        6.447796    1.457315   -0.162048
    105          1           0        6.191297   -0.076977    0.596657
    106          1           0        7.182019   -1.348655   -1.222884
    107          1           0        7.744322    0.070000   -1.933042
    108          1           0        8.656072    0.890665    0.026611
    109          1           0        8.723181   -0.893477    0.830618
    110          1           0        9.929129   -0.075259   -2.068409
    111          1           0        9.393842   -2.619913   -2.109275
    112          1           0       10.918899   -2.411014   -2.001454
    113          1           0        9.925782   -2.712909   -0.409174
    114          1           0       11.211077    0.873118    0.072155
    115          1           0       11.171893   -0.662239    0.882952
    116          1           0       12.737233   -1.444925   -1.333740
    117          1           0       12.548335    0.143338   -1.711592
    118          1           0       13.635216    0.948074    0.515128
    119          1           0       14.020811   -0.533639    1.078929
    120          1           0       15.360055    0.252017   -1.467560
    121          1           0       14.744371   -2.259343   -1.236136
    122          1           0       16.558496   -1.883936   -0.998569
    123          1           0       15.712898   -2.337892    0.428609
    124          1           0       15.771144    1.266915    0.706234
    125          1           0       16.210412   -0.067888    1.456476
    126          1           0       18.186523   -0.548103   -0.188749
    127          1           0       17.470323    0.922428   -1.248930
    128          1           0       17.936659    2.400146    0.828107
    129          1           0       18.496774    1.112738    1.787774
    130          1           0       20.298673    0.905276    0.157336
    131          1           0       19.676743    3.257145   -1.142244
    132          1           0       21.145657    2.706644   -1.353717
    133          1           0       19.826052    1.831360   -1.998905
    134          1           0       20.814527    1.802035    2.401078
    135          1           0       21.932158    2.449647    1.228754
    136          1           0       20.449943    3.474286    1.467466
    137          1           0       -7.114159    1.669238    0.204127
    138          1           0       -7.471403   -0.098637   -0.407356
 ---------------------------------------------------------------------

 SCF Done:  E(RB3LYP) =  -2732.99529424     A.U. after   17 cycles

 Excitation energies and oscillator strengths:

 Excited State   1:      Singlet-A      2.1573 eV  574.71 nm  f=0.1269  <S**2>=0.000
     235 -> 237       -0.17857
     235 -> 238        0.32025
     236 -> 237        0.58477
     236 -> 238        0.14376
 This state for optimization and/or second-order correction.
 Total Energy, E(TD-HF/TD-KS) =  -2732.91601338
 Copying the excited state density for this state as the 1-particle RhoCI density.

 The electronic state is 1-A.
 Alpha  occ. eigenvalues --  -19.18024 -19.16538 -19.13700 -19.12279 -19.11539
 Alpha  occ. eigenvalues --  -14.37139 -14.36827 -14.31529 -14.29635 -10.31600
 Alpha  occ. eigenvalues --  -10.31154 -10.27748 -10.25130 -10.24012 -10.23783
 Alpha  occ. eigenvalues --  -10.23381 -10.22600 -10.22511 -10.22448 -10.22414
 Alpha  occ. eigenvalues --  -10.22012 -10.21767 -10.21480 -10.21235 -10.21149
 Alpha  occ. eigenvalues --  -10.21019 -10.20759 -10.20706 -10.20661 -10.20542
 Alpha  occ. eigenvalues --  -10.20448 -10.20268 -10.20257 -10.20249 -10.20249
 Alpha  occ. eigenvalues --  -10.20168 -10.20035 -10.19793 -10.19716 -10.19708
 Alpha  occ. eigenvalues --  -10.19539 -10.19463 -10.19388 -10.19354 -10.18748
 Alpha  occ. eigenvalues --  -10.18740 -10.18613 -10.18589 -10.18585 -10.18530
 Alpha  occ. eigenvalues --  -10.18379 -10.18352 -10.18273 -10.18262 -10.18214
 Alpha  occ. eigenvalues --  -10.18169 -10.18029 -10.17613 -10.17476 -10.17333
 Alpha  occ. eigenvalues --  -10.17330 -10.17314 -10.17153 -10.16897  -1.10580
 Alpha  occ. eigenvalues --   -1.10212  -1.04789  -1.02466  -0.99934  -0.98989
 Alpha  occ. eigenvalues --   -0.98433  -0.95541  -0.95101  -0.83250  -0.82579
 Alpha  occ. eigenvalues --   -0.82402  -0.82050  -0.80777  -0.80705  -0.80285
 Alpha  occ. eigenvalues --   -0.79907  -0.79805  -0.78822  -0.78729  -0.77642
 Alpha  occ. eigenvalues --   -0.77004  -0.76324  -0.75715  -0.75067  -0.74266
 Alpha  occ. eigenvalues --   -0.73873  -0.73164  -0.72174  -0.71761  -0.70245
 Alpha  occ. eigenvalues --   -0.69752  -0.69484  -0.68617  -0.68172  -0.67631
 Alpha  occ. eigenvalues --   -0.67456  -0.67013  -0.66632  -0.65613  -0.64981
 Alpha  occ. eigenvalues --   -0.64261  -0.62393  -0.62183  -0.62082  -0.61702
 Alpha  occ. eigenvalues --   -0.60666  -0.59691  -0.58730  -0.58117  -0.57612
 Alpha  occ. eigenvalues --   -0.56951  -0.56646  -0.56428  -0.55915  -0.55652
 Alpha  occ. eigenvalues --   -0.55444  -0.54509  -0.54293  -0.53622  -0.53062
 Alpha  occ. eigenvalues --   -0.52822  -0.52207  -0.51661  -0.50407  -0.49911
 Alpha  occ. eigenvalues --   -0.49502  -0.49266  -0.49122  -0.48830  -0.48519
 Alpha  occ. eigenvalues --   -0.47853  -0.47814  -0.47494  -0.47241  -0.47123
 Alpha  occ. eigenvalues --   -0.46850  -0.46423  -0.46280  -0.46159  -0.45791
 Alpha  occ. eigenvalues --   -0.45682  -0.45314  -0.45254  -0.44887  -0.44821
 Alpha  occ. eigenvalues --   -0.44687  -0.44225  -0.44057  -0.43874  -0.43705
 Alpha  occ. eigenvalues --   -0.43532  -0.43290  -0.43066  -0.42946  -0.42803
 Alpha  occ. eigenvalues --   -0.42488  -0.42232  -0.42151  -0.41950  -0.41764
 Alpha  occ. eigenvalues --   -0.41514  -0.41092  -0.40845  -0.40661  -0.39976
 Alpha  occ. eigenvalues --   -0.39927  -0.39769  -0.39724  -0.39663  -0.39452
 Alpha  occ. eigenvalues --   -0.39176  -0.39007  -0.38916  -0.38844  -0.38703
 Alpha  occ. eigenvalues --   -0.38571  -0.38167  -0.37967  -0.37820  -0.37521
 Alpha  occ. eigenvalues --   -0.37454  -0.37254  -0.37068  -0.37004  -0.36810
 Alpha  occ. eigenvalues --   -0.36700  -0.36618  -0.36366  -0.36006  -0.35561
 Alpha  occ. eigenvalues --   -0.35424  -0.35158  -0.35039  -0.34819  -0.34793
 Alpha  occ. eigenvalues --   -0.34616  -0.34363  -0.33933  -0.33899  -0.33610
 Alpha  occ. eigenvalues --   -0.33234  -0.32959  -0.32651  -0.32616  -0.32263
 Alpha  occ. eigenvalues --   -0.32154  -0.31767  -0.31733  -0.31568  -0.31499
 Alpha  occ. eigenvalues --   -0.30461  -0.30276  -0.30222  -0.30010  -0.29973
 Alpha  occ. eigenvalues --   -0.29861  -0.29132  -0.29026  -0.28576  -0.28015
 Alpha  occ. eigenvalues --   -0.27220  -0.27067  -0.26376  -0.25769  -0.25291
 Alpha  occ. eigenvalues --   -0.24569  -0.24566  -0.24511  -0.22535  -0.19856
 Alpha  occ. eigenvalues --   -0.18757
 Alpha virt. eigenvalues --   -0.09580  -0.07785  -0.03403  -0.01624  -0.00517
 Alpha virt. eigenvalues --    0.00439   0.00525   0.01218   0.02357   0.03504
 Alpha virt. eigenvalues --    0.03954   0.04024   0.04593   0.04864   0.04974

 Mulliken charges:
               1
     1  C    0.056428
     2  C   -0.041055
     3  C   -0.076192
     4  C   -0.045783
     5  N   -0.138618
     6  C   -0.104456
     7  C    0.030472
     8  C   -0.080481
     9  C   -0.005698
    10  C   -0.001684
    11  C   -0.056331
    12  C   -0.074149
    13  C    0.190782
    14  O   -0.161557
    15  O   -0.346582
    16  N   -0.079123
    17  C    0.148445
    18  C   -0.149284
    19  C    0.008142
    20  C    0.191720
    21  C    0.115573
    22  C   -0.018787
    23  C   -0.041088
    24  N   -0.183024
    25  C   -0.048149
    26  C   -0.161365
    27  C   -0.144821
    28  C    0.045190
    29  C    0.189942
    30  C    0.111029
    31  C    0.021764
    32  N   -0.068215
    33  C    0.123688
    34  C   -0.064103
    35  C   -0.094964
    36  C    0.024592
    37  C   -0.040435
    38  C    0.140380
    39  O   -0.124211
    40  C   -0.085587
    41  C    0.154762
    42  O   -0.249725
    43  O   -0.276876
    44  C    0.262763
    45  C    0.230798
    46  C   -0.068611
    47  C   -0.173636
    48  C    0.191352
    49  C    0.001798
    50  C    0.113948
    51  C    0.007612
    52  C   -0.142333
    53  C    0.013776
    54  C    0.048363
    55  C    0.098229
    56  C    0.003116
    57  C   -0.043769
    58  C    0.033775
    59  C    0.025818
    60  C   -0.044092
    61  C    0.051539
    62  C    0.134701
    63  C    0.038471
    64  C    0.000690
    65  H   -0.093527
    66  H   -0.059458
    67  H   -0.084436
    68  H    0.047269
    69  H    0.014064
    70  H    0.028645
    71  H    0.011893
    72  H    0.062875
    73  H    0.041538
    74  H    0.027901
    75  H    0.056396
    76  H    0.047774
    77  H    0.023254
    78  H    0.022869
    79  H    0.014896
    80  H    0.006505
    81  H    0.039147
    82  H    0.017493
    83  H   -0.009738
    84  H    0.027592
    85  H   -0.010412
    86  H   -0.028949
    87  H   -0.012286
    88  H    0.008809
    89  H    0.016588
    90  H    0.016298
    91  H    0.024524
    92  H    0.058385
    93  H    0.065311
    94  H    0.054176
    95  H   -0.015169
    96  H    0.047537
    97  H   -0.002254
    98  H    0.046135
    99  H    0.024704
   100  H    0.019471
   101  H   -0.021261
   102  H   -0.010633
   103  H   -0.009983
   104  H    0.015099
   105  H   -0.016112
   106  H   -0.030256
   107  H   -0.022173
   108  H    0.013165
   109  H    0.017436
   110  H    0.003155
   111  H   -0.000890
   112  H    0.002926
   113  H    0.008936
   114  H    0.001870
   115  H   -0.011879
   116  H   -0.012258
   117  H   -0.015271
   118  H   -0.022914
   119  H   -0.016807
   120  H   -0.008663
   121  H    0.013803
   122  H    0.003671
   123  H    0.009497
   124  H   -0.033686
   125  H   -0.022970
   126  H    0.011997
   127  H    0.020119
   128  H   -0.015672
   129  H   -0.016724
   130  H   -0.142716
   131  H   -0.056071
   132  H   -0.007622
   133  H   -0.009287
   134  H    0.014407
   135  H    0.010633
   136  H    0.022959
   137  H    0.172327
   138  H    0.231152
 Sum of Mulliken charges =   0.00000

 Dipole moment (field-independent basis, Debye):
    X=              2.3126    Y=              4.6738    Z=              0.0126  Tot=              5.2147
 Quadrupole moment (field-independent basis, Debye-Ang):
   XX=           -354.7611   YY=           -375.9850   ZZ=           -394.2884
   XY=            -26.5248   XZ=             12.9623   YZ=             -2.9921

 Normal termination of Gaussian 09 at Fri Aug  2 04:14:17 2019.
