 Gaussian 09, Revision D.01,
 Gaussian 09:  ES64L-G09RevD.01 24-Apr-2013

 --------------------------
 # td=(NStates=1) B3LYP/SVP
 --------------------------

 --
 TD
 --
 Symbolic Z-matrix:
 Charge =  0 Multiplicity = 1

                         Standard orientation:
 ---------------------------------------------------------------------
 Center     Atomic      Atomic             Coordinates (Angstroms)
 Number     Number       Type             X           Y           Z
 ---------------------------------------------------------------------
      1          6           0       -5.082773   -1.929542    0.426158
      2          6           0       -4.755395    2.723886    1.480697
      3          6           0       -9.228538    3.383237   -0.378569
      4          6           0       -9.898432   -1.424174   -0.764102
      5          7           0       -5.116196    0.439379    0.698908
      6          6           0       -4.435843   -0.816704    0.691538
      7          6           0       -3.003393   -0.620023    1.288361
      8          6           0       -3.089274    0.761672    1.909851
      9          6           0       -4.409139    1.327000    1.397021
     10          6           0       -3.021380    0.685128    3.577390
     11          6           0       -1.961814   -0.812564    0.085882
     12          6           0       -0.553911   -0.868779    0.609821
     13          6           0        0.378975   -1.169204   -0.573348
     14          8           0       -0.058471   -1.580196   -1.698488
     15          8           0        1.555947   -0.842815   -0.302872
     16          7           0       -7.038470    2.733781    0.622058
     17          6           0       -5.902904    3.360746    1.148779
     18          6           0       -6.134504    4.795004    1.114702
     19          6           0       -7.376119    4.990292    0.395649
     20          6           0       -7.971348    3.708514    0.145665
     21          6           0       -5.264350    5.874076    1.560776
     22          6           0       -8.024930    6.275926    0.250940
     23          6           0       -8.796052    6.727960   -0.813281
     24          7           0       -9.151348    0.911239   -0.467065
     25          6           0       -9.793304    2.093766   -0.534007
     26          6           0      -11.193736    1.892044   -0.942290
     27          6           0      -11.379608    0.656921   -1.034654
     28          6           0      -10.098529   -0.050083   -0.786327
     29          6           0      -12.093711    3.005995   -1.248944
     30          6           0      -12.654628   -0.203313   -1.550666
     31          6           0      -12.471249   -0.560174   -2.992034
     32          7           0       -7.564523   -1.221127   -0.113106
     33          6           0       -8.664138   -2.003031   -0.473382
     34          6           0       -8.276737   -3.396872   -0.477978
     35          6           0       -6.903503   -3.375539   -0.166544
     36          6           0       -6.465415   -2.043413    0.010826
     37          6           0       -9.125671   -4.612771   -0.855681
     38          6           0       -5.752172   -4.261630   -0.000739
     39          8           0       -5.680362   -5.434543   -0.033862
     40          6           0       -4.540079   -3.347069    0.334219
     41          6           0       -3.898135   -3.708596    1.693177
     42          8           0       -4.252324   -3.271513    2.792663
     43          8           0       -3.041931   -4.762526    1.565177
     44          6           0       -2.416799   -5.333912    2.700726
     45          6           0        2.654999   -1.018254   -1.264244
     46          6           0        3.945166   -0.595107   -0.622261
     47          6           0        4.953379    0.098784   -1.220301
     48          6           0        4.947980    0.518087   -2.754103
     49          6           0        6.255746    0.369262   -0.558497
     50          6           0        7.406497   -0.283268   -1.192101
     51          6           0        8.750082   -0.248991   -0.425667
     52          6           0       10.014295   -0.760851   -0.889518
     53          6           0       10.004582   -2.281019   -1.136695
     54          6           0       11.196972   -0.343545   -0.116162
     55          6           0       12.598471   -0.705100   -0.729772
     56          6           0       13.691555   -0.045624    0.221012
     57          6           0       15.171036   -0.130577   -0.318760
     58          6           0       15.574416   -1.618872   -0.540469
     59          6           0       16.257411    0.614296    0.487434
     60          6           0       17.695248    0.668640   -0.153358
     61          6           0       18.578466    1.522742    0.828396
     62          6           0       20.064683    1.663393    0.292533
     63          6           0       20.113289    2.377658   -1.047500
     64          6           0       20.818045    2.409477    1.471899
     65          1           0       -3.900797    3.369643    1.921141
     66          1           0       -9.999247    4.348300   -0.450835
     67          1           0      -10.716201   -2.148745   -0.906291
     68          1           0       -2.799141   -1.512529    2.083735
     69          1           0       -2.148279    1.531620    1.757749
     70          1           0       -2.001323    0.238318    3.772208
     71          1           0       -2.995908    1.718288    3.948889
     72          1           0       -3.855594   -0.054095    3.944598
     73          1           0       -2.082333   -1.690815   -0.571493
     74          1           0       -1.991775    0.082392   -0.428055
     75          1           0       -0.371610    0.036204    1.129571
     76          1           0       -0.421127   -1.584342    1.471797
     77          1           0       -4.506496    6.059380    0.881177
     78          1           0       -5.605035    6.764994    1.668756
     79          1           0       -4.948103    5.709126    2.668594
     80          1           0       -7.979381    6.746057    1.081081
     81          1           0       -8.812387    5.950626   -1.480583
     82          1           0       -9.369860    7.714816   -0.659269
     83          1           0      -12.148551    4.149273   -0.647469
     84          1           0      -12.043191    3.305648   -2.644391
     85          1           0      -13.223732    2.798869   -1.053989
     86          1           0      -12.810412   -0.877382   -0.842784
     87          1           0      -13.500045    0.478170   -1.359730
     88          1           0      -12.504621    0.150956   -3.554905
     89          1           0      -11.767709   -1.372859   -3.169289
     90          1           0      -13.338036   -1.118323   -3.383504
     91          1           0      -10.190896   -4.524476   -0.434409
     92          1           0       -9.190660   -4.557012   -1.876568
     93          1           0       -8.632764   -5.520761   -0.739712
     94          1           0       -3.899313   -3.586750   -0.700388
     95          1           0       -1.750365   -5.950239    2.412858
     96          1           0       -1.720286   -4.464265    3.223416
     97          1           0       -3.444790   -5.583734    3.523363
     98          1           0        2.736297   -2.065338   -1.731945
     99          1           0        2.387566   -0.190083   -2.035443
    100          1           0        4.123945   -0.967971    0.338608
    101          1           0        5.437744    1.575733   -2.933329
    102          1           0        5.392012   -0.194239   -3.472187
    103          1           0        3.863229    0.506506   -3.242729
    104          1           0        6.366596    1.470279   -0.536108
    105          1           0        6.125388   -0.025196    0.526721
    106          1           0        7.085419   -1.194157   -1.385737
    107          1           0        7.544610   -0.008169   -2.215865
    108          1           0        9.140277    0.818279   -0.082890
    109          1           0        8.377050   -0.752996    0.561010
    110          1           0       10.299988   -0.414320   -1.910064
    111          1           0        9.067092   -2.675409   -1.914047
    112          1           0       10.948923   -2.831307   -1.634863
    113          1           0        9.865246   -2.814607   -0.237115
    114          1           0       11.275320    0.644977    0.131476
    115          1           0       11.092134   -1.041950    0.856570
    116          1           0       12.685690   -1.944436   -0.476573
    117          1           0       12.882529   -0.413210   -1.783549
    118          1           0       13.648724    1.099864    0.251577
    119          1           0       13.563100   -0.253055    1.376092
    120          1           0       15.127753    0.230856   -1.510860
    121          1           0       14.997450   -2.006680   -1.407394
    122          1           0       16.565327   -1.688216   -0.896566
    123          1           0       15.397477   -2.044028    0.485087
    124          1           0       16.013058    1.800184    0.674828
    125          1           0       16.396883    0.290326    1.530652
    126          1           0       18.125368   -0.305409   -0.028756
    127          1           0       17.793788    0.868659   -1.220011
    128          1           0       18.206048    2.664741    0.892761
    129          1           0       18.487327    0.968934    1.848376
    130          1           0       20.476345    0.684245    0.242371
    131          1           0       19.700982    3.436564   -0.905139
    132          1           0       21.108365    2.349330   -1.497447
    133          1           0       19.502254    1.968679   -1.813041
    134          1           0       20.522829    1.948694    2.354587
    135          1           0       21.948487    2.307715    1.313428
    136          1           0       20.475905    3.496833    1.401433
    137          1           0       -7.110805    1.725475    0.337243
    138          1           0       -7.665539   -0.158033    0.028076
 ---------------------------------------------------------------------

 SCF Done:  E(RB3LYP) =  -2732.98353399     A.U. after   17 cycles

 Excitation energies and oscillator strengths:

 Excited State   1:      Singlet-A      2.0932 eV  592.32 nm  f=0.1890  <S**2>=0.000
     235 -> 237       -0.19002
     235 -> 238       -0.23610
     236 -> 237        0.62024
     236 -> 238       -0.14679
 This state for optimization and/or second-order correction.
 Total Energy, E(TD-HF/TD-KS) =  -2732.90661004
 Copying the excited state density for this state as the 1-particle RhoCI density.

 The electronic state is 1-A.
 Alpha  occ. eigenvalues --  -19.19536 -19.17616 -19.12636 -19.11538 -19.10799
 Alpha  occ. eigenvalues --  -14.36383 -14.35874 -14.31904 -14.30437 -10.32174
 Alpha  occ. eigenvalues --  -10.31285 -10.27262 -10.26915 -10.25952 -10.23747
 Alpha  occ. eigenvalues --  -10.23695 -10.23080 -10.23079 -10.22949 -10.22568
 Alpha  occ. eigenvalues --  -10.22054 -10.21754 -10.21698 -10.21689 -10.21576
 Alpha  occ. eigenvalues --  -10.21530 -10.21095 -10.21005 -10.20980 -10.20917
 Alpha  occ. eigenvalues --  -10.20784 -10.20426 -10.20371 -10.20347 -10.20186
 Alpha  occ. eigenvalues --  -10.20123 -10.19851 -10.19838 -10.19798 -10.19770
 Alpha  occ. eigenvalues --  -10.19751 -10.19704 -10.19699 -10.19639 -10.19612
 Alpha  occ. eigenvalues --  -10.19582 -10.19088 -10.19038 -10.18987 -10.18839
 Alpha  occ. eigenvalues --  -10.18771 -10.18758 -10.18499 -10.18493 -10.18084
 Alpha  occ. eigenvalues --  -10.18013 -10.17929 -10.17886 -10.17769 -10.17655
 Alpha  occ. eigenvalues --  -10.17608 -10.17435 -10.17344 -10.16410  -1.12157
 Alpha  occ. eigenvalues --   -1.08514  -1.04350  -0.99743  -0.97346  -0.96722
 Alpha  occ. eigenvalues --   -0.95541  -0.93804  -0.92714  -0.84406  -0.84074
 Alpha  occ. eigenvalues --   -0.82552  -0.81717  -0.80629  -0.80530  -0.80251
 Alpha  occ. eigenvalues --   -0.79801  -0.79256  -0.79048  -0.78694  -0.78345
 Alpha  occ. eigenvalues --   -0.76388  -0.75731  -0.75563  -0.75061  -0.74561
 Alpha  occ. eigenvalues --   -0.73502  -0.73169  -0.72936  -0.71572  -0.71374
 Alpha  occ. eigenvalues --   -0.69821  -0.68884  -0.68249  -0.67912  -0.67675
 Alpha  occ. eigenvalues --   -0.66827  -0.66526  -0.66174  -0.65403  -0.65144
 Alpha  occ. eigenvalues --   -0.63955  -0.63150  -0.62888  -0.62202  -0.61146
 Alpha  occ. eigenvalues --   -0.60686  -0.59641  -0.58208  -0.57285  -0.56930
 Alpha  occ. eigenvalues --   -0.56570  -0.56228  -0.55713  -0.55511  -0.55233
 Alpha  occ. eigenvalues --   -0.54952  -0.54398  -0.53889  -0.53649  -0.53004
 Alpha  occ. eigenvalues --   -0.52103  -0.51939  -0.51192  -0.50862  -0.50526
 Alpha  occ. eigenvalues --   -0.49732  -0.49430  -0.48867  -0.48589  -0.48160
 Alpha  occ. eigenvalues --   -0.47821  -0.47561  -0.47498  -0.47334  -0.47118
 Alpha  occ. eigenvalues --   -0.46798  -0.46337  -0.46012  -0.45710  -0.45434
 Alpha  occ. eigenvalues --   -0.45369  -0.45190  -0.45103  -0.44784  -0.44613
 Alpha  occ. eigenvalues --   -0.44346  -0.44215  -0.43980  -0.43831  -0.43708
 Alpha  occ. eigenvalues --   -0.43317  -0.43106  -0.43027  -0.42741  -0.42635
 Alpha  occ. eigenvalues --   -0.42314  -0.42258  -0.41661  -0.41576  -0.41423
 Alpha  occ. eigenvalues --   -0.41185  -0.40961  -0.40566  -0.40445  -0.40190
 Alpha  occ. eigenvalues --   -0.39990  -0.39793  -0.39568  -0.39308  -0.39118
 Alpha  occ. eigenvalues --   -0.38918  -0.38611  -0.38553  -0.38309  -0.38247
 Alpha  occ. eigenvalues --   -0.37898  -0.37700  -0.37561  -0.37299  -0.37255
 Alpha  occ. eigenvalues --   -0.37160  -0.37073  -0.36915  -0.36554  -0.36451
 Alpha  occ. eigenvalues --   -0.36264  -0.36106  -0.35857  -0.35752  -0.35687
 Alpha  occ. eigenvalues --   -0.35359  -0.35204  -0.35117  -0.34743  -0.34368
 Alpha  occ. eigenvalues --   -0.34201  -0.34172  -0.34063  -0.33862  -0.33751
 Alpha  occ. eigenvalues --   -0.33411  -0.33223  -0.33121  -0.32842  -0.32521
 Alpha  occ. eigenvalues --   -0.32336  -0.32066  -0.31668  -0.31397  -0.31130
 Alpha  occ. eigenvalues --   -0.30718  -0.30677  -0.30000  -0.29674  -0.29234
 Alpha  occ. eigenvalues --   -0.29190  -0.28730  -0.28604  -0.27977  -0.27545
 Alpha  occ. eigenvalues --   -0.26968  -0.26805  -0.26375  -0.26014  -0.25635
 Alpha  occ. eigenvalues --   -0.25385  -0.24546  -0.24122  -0.23653  -0.19856
 Alpha  occ. eigenvalues --   -0.18458
 Alpha virt. eigenvalues --   -0.09973  -0.06974  -0.03613  -0.02125  -0.01086
 Alpha virt. eigenvalues --   -0.00977   0.00192   0.00527   0.02144   0.02789
 Alpha virt. eigenvalues --    0.03314   0.03493   0.04050   0.04292   0.04363

 Mulliken charges:
               1
     1  C    0.058471
     2  C   -0.104257
     3  C   -0.139477
     4  C   -0.088411
     5  N   -0.204834
     6  C   -0.080277
     7  C   -0.080801
     8  C   -0.129574
     9  C    0.040301
    10  C    0.005289
    11  C    0.094862
    12  C    0.034775
    13  C    0.181003
    14  O   -0.316493
    15  O   -0.230907
    16  N   -0.156987
    17  C    0.168685
    18  C   -0.148551
    19  C    0.026390
    20  C    0.123967
    21  C    0.211177
    22  C   -0.069442
    23  C    0.037220
    24  N   -0.251566
    25  C    0.057511
    26  C   -0.024900
    27  C   -0.123961
    28  C    0.072200
    29  C   -0.119483
    30  C    0.173260
    31  C    0.170272
    32  N   -0.094784
    33  C    0.063298
    34  C   -0.177931
    35  C   -0.024186
    36  C    0.104906
    37  C    0.192032
    38  C    0.028459
    39  O   -0.126126
    40  C   -0.073465
    41  C    0.240150
    42  O   -0.245814
    43  O   -0.294955
    44  C    0.174208
    45  C    0.241309
    46  C   -0.089764
    47  C   -0.128926
    48  C   -0.023885
    49  C    0.077722
    50  C    0.132049
    51  C    0.014468
    52  C    0.029542
    53  C   -0.070581
    54  C    0.018454
    55  C   -0.031224
    56  C   -0.026338
    57  C   -0.107695
    58  C    0.050896
    59  C    0.008561
    60  C    0.043704
    61  C   -0.090038
    62  C   -0.088592
    63  C    0.058284
    64  C    0.055524
    65  H   -0.004037
    66  H    0.040287
    67  H   -0.016459
    68  H    0.054086
    69  H    0.026750
    70  H    0.020003
    71  H    0.019549
    72  H    0.065430
    73  H    0.041584
    74  H   -0.021578
    75  H   -0.011510
    76  H    0.015646
    77  H    0.012111
    78  H   -0.067215
    79  H    0.025521
    80  H   -0.057858
    81  H    0.007777
    82  H    0.050327
    83  H    0.052329
    84  H    0.036110
    85  H    0.034116
    86  H   -0.044345
    87  H   -0.027212
    88  H   -0.068621
    89  H    0.006840
    90  H   -0.020691
    91  H    0.033238
    92  H   -0.004691
    93  H    0.007113
    94  H    0.097664
    95  H   -0.016359
    96  H    0.025855
    97  H    0.078921
    98  H    0.071909
    99  H    0.050732
   100  H   -0.023740
   101  H    0.042274
   102  H    0.039859
   103  H    0.018670
   104  H    0.008569
   105  H    0.001224
   106  H   -0.058961
   107  H   -0.027239
   108  H    0.001561
   109  H   -0.005546
   110  H   -0.018031
   111  H    0.020331
   112  H    0.033802
   113  H   -0.008118
   114  H   -0.023027
   115  H    0.004634
   116  H    0.039440
   117  H    0.024296
   118  H    0.002841
   119  H    0.011522
   120  H   -0.002858
   121  H    0.010009
   122  H   -0.010663
   123  H    0.014602
   124  H    0.003044
   125  H   -0.007581
   126  H   -0.011771
   127  H    0.003847
   128  H    0.012219
   129  H    0.017512
   130  H   -0.021303
   131  H    0.008886
   132  H    0.007759
   133  H   -0.009568
   134  H   -0.007484
   135  H    0.014388
   136  H    0.012903
   137  H    0.165454
   138  H    0.178201
 Sum of Mulliken charges =   0.00000

 Dipole moment (field-independent basis, Debye):
    X=              4.1867    Y=              3.8076    Z=              0.3444  Tot=              5.6697
 Quadrupole moment (field-independent basis, Debye-Ang):
   XX=           -339.2584   YY=           -384.6679   ZZ=           -394.4674
   XY=            -27.6870   XZ=             -0.1058   YZ=              4.4460

 Normal termination of Gaussian 09 at Mon Aug  5 06:45:47 2019.
