 Gaussian 09, Revision D.01,
 Gaussian 09:  ES64L-G09RevD.01 24-Apr-2013

 --------------------------
 # td=(NStates=1) B3LYP/SVP
 --------------------------

 --
 TD
 --
 Symbolic Z-matrix:
 Charge =  0 Multiplicity = 1

                         Standard orientation:
 ---------------------------------------------------------------------
 Center     Atomic      Atomic             Coordinates (Angstroms)
 Number     Number       Type             X           Y           Z
 ---------------------------------------------------------------------
      1          6           0       -5.160380   -1.971291    0.446956
      2          6           0       -4.651448    2.732677    1.380952
      3          6           0       -9.252487    3.474621   -0.392046
      4          6           0       -9.815501   -1.328373   -1.038876
      5          7           0       -5.188801    0.470519    0.822416
      6          6           0       -4.559182   -0.729248    0.852119
      7          6           0       -3.032422   -0.590464    1.315418
      8          6           0       -3.103280    0.800920    1.915592
      9          6           0       -4.393037    1.349486    1.332628
     10          6           0       -3.012809    0.764275    3.502106
     11          6           0       -2.078586   -0.778543    0.155923
     12          6           0       -0.656115   -0.874362    0.680604
     13          6           0        0.453200   -1.201641   -0.466768
     14          8           0        0.032931   -1.482796   -1.579094
     15          8           0        1.705782   -0.972833   -0.081105
     16          7           0       -7.038384    2.796478    0.460623
     17          6           0       -5.836791    3.371083    0.921018
     18          6           0       -6.160996    4.807358    1.083998
     19          6           0       -7.504105    5.052627    0.621446
     20          6           0       -8.043476    3.765890    0.222044
     21          6           0       -5.182582    5.875929    1.579459
     22          6           0       -8.107556    6.322991    0.382520
     23          6           0       -8.881101    6.721064   -0.635829
     24          7           0       -9.156746    1.007851   -0.505553
     25          6           0       -9.777530    2.174326   -0.613667
     26          6           0      -11.224283    2.014647   -1.062877
     27          6           0      -11.400934    0.729639   -1.203030
     28          6           0      -10.061461    0.058746   -0.906538
     29          6           0      -12.243655    3.077125   -1.234592
     30          6           0      -12.578130   -0.138718   -1.647264
     31          6           0      -12.630000   -0.519372   -3.088825
     32          7           0       -7.523734   -1.222096   -0.198226
     33          6           0       -8.527350   -1.939336   -0.734600
     34          6           0       -8.165274   -3.357651   -0.816874
     35          6           0       -6.919540   -3.395633   -0.247670
     36          6           0       -6.458146   -2.048347    0.094723
     37          6           0       -9.063171   -4.449139   -1.160200
     38          6           0       -5.719146   -4.271172   -0.081462
     39          8           0       -5.638649   -5.472911   -0.280938
     40          6           0       -4.584110   -3.378042    0.398632
     41          6           0       -4.154076   -3.877928    1.886397
     42          8           0       -4.454212   -3.397830    2.920342
     43          8           0       -3.203626   -4.831297    1.669233
     44          6           0       -2.801035   -5.535265    2.820901
     45          6           0        2.608831   -1.284160   -1.070323
     46          6           0        3.954336   -0.991850   -0.544116
     47          6           0        4.957329   -0.188506   -0.948051
     48          6           0        4.899643    0.635007   -2.189166
     49          6           0        6.303928   -0.215897   -0.124874
     50          6           0        7.497788   -0.606281   -0.954411
     51          6           0        8.757340   -0.433609   -0.184654
     52          6           0       10.135979   -0.741082   -0.901898
     53          6           0       10.093757   -2.290354   -1.280789
     54          6           0       11.293858   -0.352468   -0.047800
     55          6           0       12.659052   -0.588483   -0.638898
     56          6           0       13.818320    0.088420    0.079435
     57          6           0       15.210342    0.059668   -0.422934
     58          6           0       15.636665   -1.412264   -0.604370
     59          6           0       16.213972    0.830344    0.406515
     60          6           0       17.651924    0.759853   -0.143360
     61          6           0       18.677784    1.645313    0.652554
     62          6           0       20.196619    1.670831    0.113642
     63          6           0       20.332630    2.272894   -1.235368
     64          6           0       20.965733    2.527987    1.121787
     65          1           0       -3.747910    3.516034    1.508252
     66          1           0       -9.867748    4.278041   -0.648459
     67          1           0      -10.474250   -2.059914   -1.489964
     68          1           0       -2.759386   -1.403528    2.049432
     69          1           0       -2.230019    1.463846    1.459548
     70          1           0       -2.094172    0.451048    3.830922
     71          1           0       -3.259885    1.634173    4.195531
     72          1           0       -3.834757    0.124189    3.945433
     73          1           0       -2.266399   -1.732858   -0.472126
     74          1           0       -2.349437    0.168786   -0.407617
     75          1           0       -0.456574    0.101504    1.191607
     76          1           0       -0.376705   -1.896954    1.206025
     77          1           0       -4.479176    5.967312    0.593158
     78          1           0       -5.580211    6.798200    1.806518
     79          1           0       -4.826856    5.506063    2.479703
     80          1           0       -8.126723    6.934436    1.374200
     81          1           0       -8.961222    6.025214   -1.412035
     82          1           0       -9.500048    7.530372   -0.680680
     83          1           0      -12.154684    3.776539   -0.317611
     84          1           0      -11.773374    3.681417   -2.247853
     85          1           0      -13.449890    2.850601   -1.386306
     86          1           0      -12.745331   -1.079476   -1.035012
     87          1           0      -13.411019    0.528428   -1.445569
     88          1           0      -12.640598    0.365876   -3.768986
     89          1           0      -11.833259   -1.101290   -3.734920
     90          1           0      -13.566773   -1.174106   -2.963486
     91          1           0      -10.229124   -4.379415   -0.855531
     92          1           0       -9.085531   -4.290884   -2.295302
     93          1           0       -8.695756   -5.461244   -0.905357
     94          1           0       -3.554748   -3.454983   -0.171434
     95          1           0       -2.024827   -6.191617    2.567063
     96          1           0       -2.324213   -4.853014    3.595008
     97          1           0       -3.570392   -6.023231    3.209723
     98          1           0        2.347586   -2.171567   -1.362322
     99          1           0        2.447963   -0.551626   -1.848324
    100          1           0        4.063350   -1.768650    0.170340
    101          1           0        5.094466    1.842699   -1.869198
    102          1           0        5.838238    0.498651   -2.990811
    103          1           0        4.064206    0.475208   -2.872761
    104          1           0        6.637697    0.911445    0.261944
    105          1           0        6.133549   -0.890969    0.841220
    106          1           0        7.375517   -1.663764   -1.261975
    107          1           0        7.477617   -0.065630   -1.953838
    108          1           0        8.851853    0.848855    0.017769
    109          1           0        8.587071   -0.747547    0.766232
    110          1           0       10.031294   -0.363406   -1.835581
    111          1           0        9.465974   -2.335665   -2.126172
    112          1           0       11.175637   -2.465378   -1.584859
    113          1           0        9.710667   -2.805485   -0.398996
    114          1           0       11.121805    0.778738    0.278917
    115          1           0       11.269765   -1.002098    0.885416
    116          1           0       12.814594   -1.649311   -0.699216
    117          1           0       12.602938   -0.375243   -1.802407
    118          1           0       13.575879    0.928306    0.238439
    119          1           0       13.711744   -0.433458    1.112528
    120          1           0       15.304535    0.473779   -1.451854
    121          1           0       14.984982   -2.294480   -1.067425
    122          1           0       16.506214   -1.417436   -1.194525
    123          1           0       15.636980   -1.960229    0.325073
    124          1           0       15.645936    1.818464    0.557820
    125          1           0       16.186661    0.443194    1.488862
    126          1           0       17.987934   -0.242787   -0.142781
    127          1           0       17.647884    1.219083   -1.266741
    128          1           0       18.459684    2.816666    0.848403
    129          1           0       18.589955    1.155791    1.725429
    130          1           0       20.558831    0.477445    0.146838
    131          1           0       19.688841    3.360046   -1.459117
    132          1           0       21.507612    2.682437   -1.313548
    133          1           0       20.035822    1.578627   -2.152282
    134          1           0       20.681165    2.104823    2.163609
    135          1           0       22.051675    2.245217    1.093748
    136          1           0       20.642344    3.716920    1.125657
    137          1           0       -7.352491    1.770213    0.566445
    138          1           0       -7.573148   -0.214846   -0.047596
 ---------------------------------------------------------------------

 SCF Done:  E(RB3LYP) =  -2733.03599125     A.U. after   16 cycles

 Excitation energies and oscillator strengths:

 Excited State   1:      Singlet-A      2.0204 eV  613.66 nm  f=0.1953  <S**2>=0.000
     235 -> 238       -0.29804
     236 -> 237        0.64090
 This state for optimization and/or second-order correction.
 Total Energy, E(TD-HF/TD-KS) =  -2732.96174245
 Copying the excited state density for this state as the 1-particle RhoCI density.

 The electronic state is 1-A.
 Alpha  occ. eigenvalues --  -19.18876 -19.18015 -19.13990 -19.12624 -19.11605
 Alpha  occ. eigenvalues --  -14.36942 -14.36427 -14.32505 -14.30644 -10.32326
 Alpha  occ. eigenvalues --  -10.31867 -10.27475 -10.24193 -10.23405 -10.23338
 Alpha  occ. eigenvalues --  -10.23300 -10.23169 -10.22920 -10.22611 -10.22460
 Alpha  occ. eigenvalues --  -10.22262 -10.22201 -10.22095 -10.21902 -10.21668
 Alpha  occ. eigenvalues --  -10.21605 -10.21488 -10.21441 -10.21331 -10.21231
 Alpha  occ. eigenvalues --  -10.21071 -10.21051 -10.21007 -10.20703 -10.20413
 Alpha  occ. eigenvalues --  -10.20304 -10.20218 -10.20153 -10.20117 -10.19990
 Alpha  occ. eigenvalues --  -10.19973 -10.19899 -10.19778 -10.19720 -10.19690
 Alpha  occ. eigenvalues --  -10.19433 -10.19332 -10.19221 -10.19129 -10.18984
 Alpha  occ. eigenvalues --  -10.18972 -10.18898 -10.18868 -10.18674 -10.18616
 Alpha  occ. eigenvalues --  -10.18588 -10.18364 -10.18316 -10.18311 -10.18121
 Alpha  occ. eigenvalues --  -10.17819 -10.17617 -10.17348 -10.16351  -1.11908
 Alpha  occ. eigenvalues --   -1.10448  -1.02900  -1.01816  -1.01417  -0.98403
 Alpha  occ. eigenvalues --   -0.96173  -0.95103  -0.93686  -0.85063  -0.83049
 Alpha  occ. eigenvalues --   -0.82502  -0.81391  -0.81093  -0.80934  -0.80773
 Alpha  occ. eigenvalues --   -0.80009  -0.79621  -0.79569  -0.78242  -0.77850
 Alpha  occ. eigenvalues --   -0.76517  -0.76024  -0.75413  -0.74986  -0.74680
 Alpha  occ. eigenvalues --   -0.73892  -0.73438  -0.72103  -0.71912  -0.70389
 Alpha  occ. eigenvalues --   -0.69596  -0.69329  -0.68276  -0.67984  -0.67181
 Alpha  occ. eigenvalues --   -0.66918  -0.66307  -0.65742  -0.65617  -0.65229
 Alpha  occ. eigenvalues --   -0.63674  -0.62730  -0.61915  -0.61258  -0.60917
 Alpha  occ. eigenvalues --   -0.60789  -0.58782  -0.58574  -0.57932  -0.57720
 Alpha  occ. eigenvalues --   -0.57347  -0.56526  -0.56208  -0.56059  -0.55520
 Alpha  occ. eigenvalues --   -0.55465  -0.54552  -0.54082  -0.52811  -0.52750
 Alpha  occ. eigenvalues --   -0.52541  -0.52055  -0.51699  -0.51430  -0.50425
 Alpha  occ. eigenvalues --   -0.50020  -0.49463  -0.49170  -0.48915  -0.48338
 Alpha  occ. eigenvalues --   -0.48137  -0.48050  -0.47665  -0.47437  -0.46974
 Alpha  occ. eigenvalues --   -0.46629  -0.46580  -0.46248  -0.46146  -0.45803
 Alpha  occ. eigenvalues --   -0.45542  -0.45269  -0.44927  -0.44658  -0.44438
 Alpha  occ. eigenvalues --   -0.44315  -0.44200  -0.43918  -0.43832  -0.43661
 Alpha  occ. eigenvalues --   -0.43295  -0.43210  -0.42901  -0.42833  -0.42537
 Alpha  occ. eigenvalues --   -0.42424  -0.42179  -0.42142  -0.41683  -0.41352
 Alpha  occ. eigenvalues --   -0.41058  -0.40915  -0.40820  -0.40526  -0.40434
 Alpha  occ. eigenvalues --   -0.40244  -0.40181  -0.39872  -0.39562  -0.39447
 Alpha  occ. eigenvalues --   -0.39252  -0.39166  -0.38817  -0.38752  -0.38267
 Alpha  occ. eigenvalues --   -0.38226  -0.38088  -0.37905  -0.37785  -0.37667
 Alpha  occ. eigenvalues --   -0.37409  -0.37121  -0.36897  -0.36832  -0.36695
 Alpha  occ. eigenvalues --   -0.36558  -0.36215  -0.35948  -0.35747  -0.35693
 Alpha  occ. eigenvalues --   -0.35601  -0.35396  -0.34970  -0.34827  -0.34788
 Alpha  occ. eigenvalues --   -0.34569  -0.34094  -0.34026  -0.33793  -0.33573
 Alpha  occ. eigenvalues --   -0.33457  -0.32945  -0.32869  -0.32616  -0.32138
 Alpha  occ. eigenvalues --   -0.32019  -0.31528  -0.31485  -0.31335  -0.31083
 Alpha  occ. eigenvalues --   -0.30804  -0.30699  -0.30521  -0.30302  -0.30158
 Alpha  occ. eigenvalues --   -0.29457  -0.28904  -0.28843  -0.28498  -0.27953
 Alpha  occ. eigenvalues --   -0.27544  -0.27058  -0.26846  -0.25935  -0.25767
 Alpha  occ. eigenvalues --   -0.25081  -0.24623  -0.23735  -0.23311  -0.19732
 Alpha  occ. eigenvalues --   -0.18118
 Alpha virt. eigenvalues --   -0.09735  -0.07236  -0.04328  -0.01650  -0.01462
 Alpha virt. eigenvalues --    0.00126   0.00500   0.00697   0.01964   0.03220
 Alpha virt. eigenvalues --    0.03580   0.03786   0.04038   0.04477   0.04641

 Mulliken charges:
               1
     1  C    0.002302
     2  C   -0.103654
     3  C   -0.059548
     4  C   -0.061537
     5  N   -0.100106
     6  C   -0.066374
     7  C   -0.055660
     8  C   -0.041691
     9  C   -0.015152
    10  C    0.066308
    11  C    0.039640
    12  C    0.002881
    13  C    0.144445
    14  O   -0.246947
    15  O   -0.274452
    16  N   -0.156888
    17  C    0.108054
    18  C   -0.187517
    19  C    0.042691
    20  C    0.093385
    21  C    0.142056
    22  C   -0.092730
    23  C    0.029212
    24  N   -0.211896
    25  C    0.060905
    26  C   -0.123099
    27  C   -0.077040
    28  C    0.079396
    29  C   -0.042585
    30  C    0.102915
    31  C   -0.046442
    32  N   -0.014524
    33  C   -0.004088
    34  C   -0.122256
    35  C   -0.027728
    36  C    0.092280
    37  C    0.030856
    38  C    0.105906
    39  O   -0.178123
    40  C   -0.105257
    41  C    0.206745
    42  O   -0.171630
    43  O   -0.309008
    44  C    0.250847
    45  C    0.389994
    46  C   -0.126083
    47  C   -0.030308
    48  C   -0.040498
    49  C   -0.011262
    50  C    0.026452
    51  C   -0.016557
    52  C   -0.015009
    53  C    0.020377
    54  C    0.034325
    55  C    0.006734
    56  C    0.202968
    57  C   -0.027709
    58  C   -0.005514
    59  C    0.008569
    60  C    0.046062
    61  C   -0.055434
    62  C   -0.110568
    63  C   -0.069057
    64  C   -0.008031
    65  H    0.031184
    66  H   -0.068408
    67  H   -0.026006
    68  H    0.005564
    69  H    0.013173
    70  H   -0.002101
    71  H    0.010215
    72  H    0.024792
    73  H    0.035789
    74  H    0.016444
    75  H    0.038643
    76  H    0.043170
    77  H    0.061892
    78  H   -0.013193
    79  H    0.016511
    80  H    0.024937
    81  H    0.011556
    82  H   -0.002009
    83  H    0.046240
    84  H    0.049000
    85  H    0.059125
    86  H    0.010569
    87  H   -0.013907
    88  H    0.014236
    89  H    0.028413
    90  H    0.025826
    91  H    0.050632
    92  H    0.040112
    93  H    0.047913
    94  H    0.083260
    95  H    0.009875
    96  H    0.021067
    97  H   -0.005412
    98  H   -0.042412
    99  H   -0.023169
   100  H   -0.027689
   101  H    0.045403
   102  H    0.045685
   103  H    0.030134
   104  H    0.021022
   105  H    0.029109
   106  H   -0.004421
   107  H    0.003760
   108  H   -0.013277
   109  H   -0.031945
   110  H   -0.047849
   111  H    0.002616
   112  H    0.015887
   113  H    0.015848
   114  H    0.011085
   115  H   -0.002902
   116  H   -0.008174
   117  H   -0.013908
   118  H   -0.135901
   119  H   -0.017383
   120  H   -0.012764
   121  H    0.004937
   122  H    0.004121
   123  H   -0.012558
   124  H    0.002453
   125  H   -0.009381
   126  H    0.006495
   127  H    0.013807
   128  H    0.013360
   129  H    0.007002
   130  H    0.022509
   131  H    0.028349
   132  H    0.031149
   133  H    0.040402
   134  H    0.007366
   135  H    0.020216
   136  H    0.046014
   137  H    0.185865
   138  H    0.135692
 Sum of Mulliken charges =   0.00000

 Dipole moment (field-independent basis, Debye):
    X=              2.8121    Y=              2.4357    Z=              1.2724  Tot=              3.9318
 Quadrupole moment (field-independent basis, Debye-Ang):
   XX=           -347.8918   YY=           -386.2449   ZZ=           -394.3834
   XY=            -24.7244   XZ=              4.8342   YZ=             -4.7174

 Normal termination of Gaussian 09 at Fri Aug  2 15:41:44 2019.
