 Gaussian 09, Revision D.01,
 Gaussian 09:  ES64L-G09RevD.01 24-Apr-2013

 --------------------------
 # td=(NStates=1) B3LYP/SVP
 --------------------------

 --
 TD
 --
 Symbolic Z-matrix:
 Charge =  0 Multiplicity = 1

                         Standard orientation:
 ---------------------------------------------------------------------
 Center     Atomic      Atomic             Coordinates (Angstroms)
 Number     Number       Type             X           Y           Z
 ---------------------------------------------------------------------
      1          6           0       -5.120693   -2.010015    0.397890
      2          6           0       -4.741811    2.752094    1.423726
      3          6           0       -9.384705    3.408641   -0.258170
      4          6           0       -9.752760   -1.385027   -0.973193
      5          7           0       -5.247704    0.380727    1.006414
      6          6           0       -4.552095   -0.744144    0.828757
      7          6           0       -3.094121   -0.632655    1.341351
      8          6           0       -3.151666    0.815465    1.918528
      9          6           0       -4.416685    1.407703    1.376290
     10          6           0       -2.981974    0.887703    3.370383
     11          6           0       -2.091109   -0.745315    0.192579
     12          6           0       -0.554702   -0.787490    0.701196
     13          6           0        0.394895   -1.206663   -0.416444
     14          8           0        0.057312   -1.689518   -1.506557
     15          8           0        1.686331   -0.989537   -0.087790
     16          7           0       -7.112203    2.854071    0.551576
     17          6           0       -5.962617    3.450511    1.088903
     18          6           0       -6.259334    4.761458    1.102945
     19          6           0       -7.583317    4.934164    0.637686
     20          6           0       -8.104371    3.668954    0.230755
     21          6           0       -5.294941    5.818905    1.649198
     22          6           0       -8.189762    6.279378    0.541948
     23          6           0       -8.978469    6.749193   -0.404423
     24          7           0       -9.261276    0.976787   -0.400017
     25          6           0       -9.952272    2.141242   -0.640160
     26          6           0      -11.375654    1.966110   -1.107990
     27          6           0      -11.401740    0.594371   -1.362544
     28          6           0      -10.006652    0.011019   -0.864931
     29          6           0      -12.228638    3.004929   -1.259457
     30          6           0      -12.543795   -0.245344   -1.819546
     31          6           0      -12.482181   -0.593050   -3.402787
     32          7           0       -7.471069   -1.292093   -0.158120
     33          6           0       -8.556607   -2.105693   -0.691485
     34          6           0       -8.131268   -3.386364   -0.731089
     35          6           0       -6.731485   -3.423371   -0.365802
     36          6           0       -6.449253   -2.152125   -0.012402
     37          6           0       -8.949758   -4.534500   -1.191524
     38          6           0       -5.693579   -4.317420   -0.029280
     39          8           0       -5.513665   -5.493906   -0.144916
     40          6           0       -4.460964   -3.386605    0.485381
     41          6           0       -3.825362   -3.773651    1.745370
     42          8           0       -4.004066   -3.267562    2.827470
     43          8           0       -3.101732   -4.931618    1.521951
     44          6           0       -2.530753   -5.422445    2.703379
     45          6           0        2.677356   -1.226621   -1.111585
     46          6           0        4.029524   -0.714991   -0.574513
     47          6           0        4.915342    0.032576   -1.301155
     48          6           0        4.780915    0.366829   -2.808273
     49          6           0        6.265599    0.547436   -0.617517
     50          6           0        7.498883   -0.386151   -1.118140
     51          6           0        8.727571   -0.064516   -0.184955
     52          6           0       10.063772   -0.822219   -0.569166
     53          6           0        9.996180   -2.401649   -0.383906
     54          6           0       11.235901   -0.268034    0.234065
     55          6           0       12.664360   -0.653257   -0.313623
     56          6           0       13.799578    0.082305    0.359123
     57          6           0       15.144625   -0.284162   -0.070442
     58          6           0       15.663524   -1.791720    0.227738
     59          6           0       16.317231    0.730960    0.424749
     60          6           0       17.673903    0.674937   -0.316198
     61          6           0       18.606996    1.804827    0.364638
     62          6           0       19.968813    1.726854   -0.167234
     63          6           0       20.012644    2.006855   -1.677829
     64          6           0       20.818621    2.850644    0.547311
     65          1           0       -3.911132    3.622364    1.693266
     66          1           0       -9.950342    4.335458   -0.372721
     67          1           0      -10.621155   -1.965885   -1.401796
     68          1           0       -2.950112   -1.269955    2.313869
     69          1           0       -2.275281    1.503902    1.656621
     70          1           0       -2.140932    0.544507    3.787237
     71          1           0       -3.079026    1.869410    3.851218
     72          1           0       -3.730454    0.051551    3.966673
     73          1           0       -2.124657   -1.761534   -0.360566
     74          1           0       -2.066950    0.133604   -0.713669
     75          1           0       -0.141781    0.211958    1.002802
     76          1           0       -0.186106   -1.468032    1.585185
     77          1           0       -4.461189    6.037411    0.811524
     78          1           0       -5.751821    6.892521    1.864063
     79          1           0       -4.760014    5.524894    2.667698
     80          1           0       -7.970297    7.050588    1.265735
     81          1           0       -9.138517    6.077577   -1.405784
     82          1           0       -9.237896    7.887666   -0.483484
     83          1           0      -12.005133    3.668465   -0.290932
     84          1           0      -11.964619    3.630244   -2.300418
     85          1           0      -13.332043    2.437156   -1.252145
     86          1           0      -12.518305   -1.177164   -1.417536
     87          1           0      -13.535659    0.237038   -1.744558
     88          1           0      -11.994416    0.372585   -3.870726
     89          1           0      -11.574315   -1.230209   -3.589218
     90          1           0      -13.603839   -0.698900   -3.964251
     91          1           0      -10.069286   -4.585023   -0.712735
     92          1           0       -9.088972   -4.463312   -2.464569
     93          1           0       -8.669073   -5.375385   -0.933792
     94          1           0       -3.764304   -3.460793   -0.293791
     95          1           0       -1.926421   -6.490662    2.508208
     96          1           0       -2.021577   -4.773154    3.323779
     97          1           0       -3.234229   -5.747921    3.447702
     98          1           0        2.661274   -2.162796   -1.462370
     99          1           0        2.235501   -0.448072   -1.798201
    100          1           0        4.025310   -0.861022    0.509138
    101          1           0        5.207597    1.401374   -3.117241
    102          1           0        5.174682   -0.432646   -3.571301
    103          1           0        3.814150    0.469308   -3.238652
    104          1           0        6.539997    1.755404   -0.813655
    105          1           0        6.129563    0.454694    0.372192
    106          1           0        6.944697   -1.457683   -0.944040
    107          1           0        7.721806   -0.292874   -2.172501
    108          1           0        9.115049    1.091175   -0.332577
    109          1           0        8.625520   -0.125347    0.857156
    110          1           0       10.281954   -0.683462   -1.775097
    111          1           0        9.199448   -2.961941   -0.894830
    112          1           0       10.980220   -2.927219   -0.572719
    113          1           0        9.907526   -2.773893    0.611168
    114          1           0       10.879172    0.946467    0.213320
    115          1           0       11.197063   -0.443647    1.330960
    116          1           0       13.009483   -1.818610   -0.357867
    117          1           0       12.844664   -0.306446   -1.370405
    118          1           0       13.439348    1.115152    0.437346
    119          1           0       13.848977   -0.053561    1.558994
    120          1           0       15.102735   -0.187688   -1.217280
    121          1           0       15.112144   -2.587801   -0.509022
    122          1           0       16.702295   -1.942628   -0.209170
    123          1           0       15.349633   -2.103924    1.333449
    124          1           0       15.913675    1.724315    0.250813
    125          1           0       16.432942    0.658069    1.640439
    126          1           0       18.114863   -0.293371   -0.185726
    127          1           0       17.688993    0.786839   -1.339190
    128          1           0       18.290095    2.850189    0.056424
    129          1           0       18.569749    1.733925    1.495405
    130          1           0       20.365287    0.781664    0.078580
    131          1           0       19.894238    3.242929   -1.875992
    132          1           0       21.013201    1.948119   -2.234420
    133          1           0       19.226085    1.348610   -2.221242
    134          1           0       20.896471    2.878924    1.685010
    135          1           0       21.898498    3.008674    0.288913
    136          1           0       20.435025    3.986412    0.207112
    137          1           0       -7.058637    1.847297    0.291938
    138          1           0       -7.604955   -0.310374    0.053258
 ---------------------------------------------------------------------

 SCF Done:  E(RB3LYP) =  -2732.99017675     A.U. after   17 cycles

 Excitation energies and oscillator strengths:

 Excited State   1:      Singlet-A      1.9803 eV  626.09 nm  f=0.2101  <S**2>=0.000
     235 -> 237       -0.39548
     235 -> 238        0.21241
     236 -> 237        0.50397
     236 -> 238        0.20817
 This state for optimization and/or second-order correction.
 Total Energy, E(TD-HF/TD-KS) =  -2732.91740260
 Copying the excited state density for this state as the 1-particle RhoCI density.

 The electronic state is 1-A.
 Alpha  occ. eigenvalues --  -19.17988 -19.17488 -19.13090 -19.12427 -19.11929
 Alpha  occ. eigenvalues --  -14.36582 -14.36570 -14.32645 -14.31264 -10.31695
 Alpha  occ. eigenvalues --  -10.31401 -10.28062 -10.24313 -10.23857 -10.23673
 Alpha  occ. eigenvalues --  -10.23620 -10.23555 -10.23461 -10.23259 -10.23068
 Alpha  occ. eigenvalues --  -10.22969 -10.22745 -10.22447 -10.22364 -10.21990
 Alpha  occ. eigenvalues --  -10.21814 -10.21784 -10.21630 -10.21542 -10.21383
 Alpha  occ. eigenvalues --  -10.20885 -10.20830 -10.20816 -10.20788 -10.20697
 Alpha  occ. eigenvalues --  -10.20642 -10.20583 -10.20517 -10.20514 -10.20408
 Alpha  occ. eigenvalues --  -10.20389 -10.20298 -10.20283 -10.20244 -10.20227
 Alpha  occ. eigenvalues --  -10.20140 -10.19998 -10.19986 -10.19940 -10.19907
 Alpha  occ. eigenvalues --  -10.19885 -10.19805 -10.19753 -10.19404 -10.19329
 Alpha  occ. eigenvalues --  -10.19306 -10.19181 -10.19163 -10.18974 -10.18577
 Alpha  occ. eigenvalues --  -10.18452 -10.18292 -10.17786 -10.17459  -1.09436
 Alpha  occ. eigenvalues --   -1.08826  -1.03888  -1.01326  -0.99236  -0.99131
 Alpha  occ. eigenvalues --   -0.98378  -0.94717  -0.94459  -0.85525  -0.81667
 Alpha  occ. eigenvalues --   -0.81517  -0.81401  -0.81301  -0.81017  -0.80839
 Alpha  occ. eigenvalues --   -0.80600  -0.80259  -0.79017  -0.78889  -0.77582
 Alpha  occ. eigenvalues --   -0.76623  -0.76407  -0.75268  -0.74991  -0.74164
 Alpha  occ. eigenvalues --   -0.73740  -0.72803  -0.72075  -0.70703  -0.70296
 Alpha  occ. eigenvalues --   -0.69589  -0.68615  -0.68543  -0.67686  -0.67595
 Alpha  occ. eigenvalues --   -0.67052  -0.66440  -0.65782  -0.65211  -0.64872
 Alpha  occ. eigenvalues --   -0.64388  -0.63166  -0.62351  -0.61609  -0.61132
 Alpha  occ. eigenvalues --   -0.60992  -0.59236  -0.58954  -0.58171  -0.57649
 Alpha  occ. eigenvalues --   -0.57154  -0.56401  -0.55827  -0.55491  -0.55277
 Alpha  occ. eigenvalues --   -0.55151  -0.55008  -0.53868  -0.53353  -0.53123
 Alpha  occ. eigenvalues --   -0.53067  -0.52537  -0.51721  -0.51078  -0.50536
 Alpha  occ. eigenvalues --   -0.50357  -0.50182  -0.48765  -0.48614  -0.48127
 Alpha  occ. eigenvalues --   -0.47514  -0.47510  -0.47017  -0.46562  -0.46441
 Alpha  occ. eigenvalues --   -0.46359  -0.46214  -0.45687  -0.45536  -0.45398
 Alpha  occ. eigenvalues --   -0.45265  -0.45139  -0.45060  -0.44890  -0.44544
 Alpha  occ. eigenvalues --   -0.44454  -0.44127  -0.43946  -0.43748  -0.43614
 Alpha  occ. eigenvalues --   -0.43506  -0.43160  -0.42815  -0.42214  -0.41949
 Alpha  occ. eigenvalues --   -0.41721  -0.41586  -0.41466  -0.41379  -0.41264
 Alpha  occ. eigenvalues --   -0.41150  -0.40518  -0.40445  -0.39866  -0.39694
 Alpha  occ. eigenvalues --   -0.39663  -0.39437  -0.39435  -0.39205  -0.39113
 Alpha  occ. eigenvalues --   -0.38979  -0.38752  -0.38585  -0.38557  -0.38348
 Alpha  occ. eigenvalues --   -0.38146  -0.37941  -0.37836  -0.37563  -0.37209
 Alpha  occ. eigenvalues --   -0.37121  -0.36768  -0.36707  -0.36620  -0.36315
 Alpha  occ. eigenvalues --   -0.36238  -0.36123  -0.35886  -0.35710  -0.35648
 Alpha  occ. eigenvalues --   -0.35495  -0.35368  -0.34907  -0.34672  -0.34604
 Alpha  occ. eigenvalues --   -0.34443  -0.34318  -0.34167  -0.34008  -0.33737
 Alpha  occ. eigenvalues --   -0.33493  -0.32963  -0.32612  -0.32425  -0.32380
 Alpha  occ. eigenvalues --   -0.31958  -0.31881  -0.31843  -0.31410  -0.31214
 Alpha  occ. eigenvalues --   -0.31172  -0.30896  -0.30359  -0.30226  -0.30091
 Alpha  occ. eigenvalues --   -0.29963  -0.29152  -0.29084  -0.28577  -0.27956
 Alpha  occ. eigenvalues --   -0.27425  -0.27375  -0.26805  -0.26436  -0.26250
 Alpha  occ. eigenvalues --   -0.25101  -0.25051  -0.24015  -0.23124  -0.20087
 Alpha  occ. eigenvalues --   -0.19546
 Alpha virt. eigenvalues --   -0.11599  -0.07815  -0.04261  -0.01340  -0.00945
 Alpha virt. eigenvalues --   -0.00843   0.00077   0.00336   0.01754   0.02795
 Alpha virt. eigenvalues --    0.03570   0.03630   0.04075   0.04179   0.04369

 Mulliken charges:
               1
     1  C   -0.038826
     2  C   -0.080306
     3  C   -0.083346
     4  C   -0.114875
     5  N   -0.164899
     6  C   -0.067207
     7  C   -0.039199
     8  C   -0.034135
     9  C    0.066549
    10  C    0.051896
    11  C   -0.002865
    12  C   -0.016257
    13  C    0.168146
    14  O   -0.271034
    15  O   -0.338351
    16  N   -0.050268
    17  C    0.030853
    18  C   -0.075422
    19  C    0.034659
    20  C    0.059885
    21  C   -0.026581
    22  C   -0.037233
    23  C   -0.110445
    24  N   -0.179190
    25  C    0.057855
    26  C   -0.052764
    27  C   -0.119575
    28  C    0.056760
    29  C   -0.060475
    30  C    0.121855
    31  C   -0.102960
    32  N   -0.079028
    33  C    0.134821
    34  C   -0.118678
    35  C   -0.006811
    36  C    0.113491
    37  C    0.122043
    38  C    0.029450
    39  O   -0.133711
    40  C    0.023908
    41  C    0.202812
    42  O   -0.220986
    43  O   -0.290740
    44  C    0.206978
    45  C    0.305160
    46  C   -0.100553
    47  C   -0.110672
    48  C    0.022658
    49  C    0.070657
    50  C   -0.002189
    51  C    0.023095
    52  C   -0.089187
    53  C    0.031159
    54  C   -0.011927
    55  C    0.015992
    56  C    0.008818
    57  C   -0.060246
    58  C   -0.041718
    59  C    0.004340
    60  C    0.084298
    61  C   -0.009841
    62  C   -0.000550
    63  C   -0.061387
    64  C   -0.051782
    65  H    0.024648
    66  H   -0.024218
    67  H   -0.004212
    68  H    0.067351
    69  H   -0.004531
    70  H   -0.023420
    71  H    0.007384
    72  H    0.016885
    73  H    0.052288
    74  H    0.055495
    75  H    0.030424
    76  H    0.051714
    77  H    0.048133
    78  H    0.033871
    79  H    0.054105
    80  H   -0.001694
    81  H    0.046025
    82  H    0.044800
    83  H    0.061390
    84  H    0.069123
    85  H    0.048155
    86  H   -0.015130
    87  H    0.002652
    88  H    0.012576
    89  H    0.022888
    90  H    0.057862
    91  H    0.028584
    92  H    0.059011
    93  H   -0.053316
    94  H    0.035590
    95  H    0.046984
    96  H   -0.006933
    97  H   -0.004204
    98  H    0.007019
    99  H    0.027952
   100  H    0.009585
   101  H    0.027976
   102  H    0.039578
   103  H   -0.005615
   104  H    0.023909
   105  H   -0.032434
   106  H    0.034011
   107  H    0.014891
   108  H    0.012397
   109  H   -0.011019
   110  H    0.014985
   111  H    0.007277
   112  H    0.000462
   113  H   -0.022974
   114  H    0.004483
   115  H    0.008048
   116  H    0.028675
   117  H   -0.001985
   118  H   -0.012285
   119  H   -0.023422
   120  H   -0.012976
   121  H    0.013865
   122  H    0.028655
   123  H    0.042527
   124  H   -0.011286
   125  H    0.013734
   126  H   -0.019029
   127  H   -0.025115
   128  H   -0.001207
   129  H    0.009046
   130  H   -0.012913
   131  H    0.019357
   132  H    0.021000
   133  H    0.032786
   134  H    0.016043
   135  H    0.005078
   136  H    0.010786
   137  H    0.147969
   138  H    0.137962
 Sum of Mulliken charges =   0.00000

 Dipole moment (field-independent basis, Debye):
    X=              1.5346    Y=              4.4686    Z=              0.0785  Tot=              4.7255
 Quadrupole moment (field-independent basis, Debye-Ang):
   XX=           -351.0829   YY=           -389.8778   ZZ=           -394.0886
   XY=            -23.9476   XZ=              9.9618   YZ=             -2.8126

 Normal termination of Gaussian 09 at Sat Aug  3 23:10:54 2019.
