 Gaussian 09, Revision D.01,
 Gaussian 09:  ES64L-G09RevD.01 24-Apr-2013

 --------------------------
 # td=(NStates=1) B3LYP/SVP
 --------------------------

 --
 TD
 --
 Symbolic Z-matrix:
 Charge =  0 Multiplicity = 1

                         Standard orientation:
 ---------------------------------------------------------------------
 Center     Atomic      Atomic             Coordinates (Angstroms)
 Number     Number       Type             X           Y           Z
 ---------------------------------------------------------------------
      1          6           0       -5.155671   -1.954730    0.460851
      2          6           0       -4.686152    2.625264    1.462818
      3          6           0       -9.217876    3.329802   -0.206249
      4          6           0       -9.759118   -1.393151   -1.045789
      5          7           0       -5.112662    0.428485    0.835085
      6          6           0       -4.554394   -0.780890    0.883071
      7          6           0       -3.125710   -0.644483    1.411790
      8          6           0       -3.067461    0.836438    1.941220
      9          6           0       -4.326823    1.330286    1.385077
     10          6           0       -2.994803    0.855086    3.478032
     11          6           0       -2.039137   -0.979705    0.284000
     12          6           0       -0.563510   -0.744558    0.615197
     13          6           0        0.318945   -1.072822   -0.488170
     14          8           0        0.031396   -1.284608   -1.595939
     15          8           0        1.620805   -0.736945   -0.141242
     16          7           0       -6.952564    2.755024    0.447439
     17          6           0       -5.903905    3.325477    0.992037
     18          6           0       -6.181902    4.698939    1.285645
     19          6           0       -7.378391    5.004303    0.659335
     20          6           0       -7.964303    3.666922    0.305041
     21          6           0       -5.197186    5.652705    1.887723
     22          6           0       -8.167073    6.320854    0.495727
     23          6           0       -8.873848    6.567110   -0.457198
     24          7           0       -9.143116    0.938210   -0.610525
     25          6           0       -9.781736    2.064111   -0.586651
     26          6           0      -11.153107    1.924753   -1.102064
     27          6           0      -11.251427    0.620199   -1.373739
     28          6           0      -10.037070    0.041272   -1.031534
     29          6           0      -12.148594    3.050748   -1.202652
     30          6           0      -12.392564   -0.050682   -1.965575
     31          6           0      -12.443947   -0.379586   -3.451418
     32          7           0       -7.446997   -1.261902   -0.317404
     33          6           0       -8.562385   -2.025783   -0.714234
     34          6           0       -8.132847   -3.430791   -0.715265
     35          6           0       -6.863850   -3.443243   -0.190309
     36          6           0       -6.412861   -2.090422    0.019186
     37          6           0       -8.943308   -4.635176   -1.055622
     38          6           0       -5.737087   -4.269743    0.097857
     39          8           0       -5.681524   -5.551718   -0.092396
     40          6           0       -4.588761   -3.330391    0.470678
     41          6           0       -3.975342   -3.887507    1.767176
     42          8           0       -4.108509   -3.505523    2.950004
     43          8           0       -3.151396   -4.931944    1.468529
     44          6           0       -2.699381   -5.539117    2.707685
     45          6           0        2.609711   -0.949775   -1.167745
     46          6           0        3.893263   -0.515248   -0.569954
     47          6           0        4.887187    0.182862   -1.160488
     48          6           0        4.766373    0.983709   -2.337794
     49          6           0        6.241278    0.297569   -0.394185
     50          6           0        7.498844   -0.432699   -1.089153
     51          6           0        8.689627    0.008171   -0.272308
     52          6           0       10.028119   -0.745535   -0.895353
     53          6           0        9.968808   -2.304120   -0.889171
     54          6           0       11.229924   -0.131986    0.054788
     55          6           0       12.584202   -0.442599   -0.483381
     56          6           0       13.735956    0.016693    0.248714
     57          6           0       15.089592   -0.216657   -0.384859
     58          6           0       15.480728   -1.715509   -0.486677
     59          6           0       16.177402    0.433531    0.457058
     60          6           0       17.545506    0.677596   -0.274777
     61          6           0       18.550569    1.528129    0.593377
     62          6           0       19.934445    1.580418    0.023713
     63          6           0       19.985911    2.235841   -1.293111
     64          6           0       20.959788    2.242753    1.026569
     65          1           0       -3.852854    3.241349    1.931213
     66          1           0       -9.892859    4.151336    0.035149
     67          1           0      -10.698049   -2.202192   -1.370954
     68          1           0       -2.987288   -1.168290    2.456175
     69          1           0       -2.177133    1.217776    1.326048
     70          1           0       -1.975896    0.407686    3.629377
     71          1           0       -2.940437    1.818114    3.832693
     72          1           0       -3.843592    0.280768    3.738837
     73          1           0       -2.121032   -1.956195   -0.182970
     74          1           0       -2.190985   -0.323362   -0.526971
     75          1           0       -0.450882    0.109136    0.884423
     76          1           0       -0.250060   -1.371878    1.570445
     77          1           0       -4.154529    5.852096    1.439823
     78          1           0       -5.520328    6.606965    1.819859
     79          1           0       -5.124350    5.457578    3.103780
     80          1           0       -7.827902    7.026304    1.376752
     81          1           0       -8.908797    5.909818   -1.372470
     82          1           0       -9.254145    7.580652   -0.716991
     83          1           0      -12.486785    3.618346   -0.308447
     84          1           0      -11.514589    3.736572   -2.047173
     85          1           0      -13.168259    2.729908   -1.574434
     86          1           0      -12.571057   -0.920182   -1.593438
     87          1           0      -13.439352    0.471319   -1.659398
     88          1           0      -12.285485    0.673488   -3.970552
     89          1           0      -11.409611   -0.955857   -3.816325
     90          1           0      -13.301931   -1.021271   -3.756178
     91          1           0       -9.878809   -4.480594   -0.359042
     92          1           0       -9.266004   -4.736050   -2.215192
     93          1           0       -8.331338   -5.420737   -0.930693
     94          1           0       -3.681418   -3.437146   -0.556118
     95          1           0       -2.124064   -6.423323    2.426286
     96          1           0       -2.248933   -4.785702    3.477917
     97          1           0       -3.480224   -5.976063    3.314089
     98          1           0        2.833567   -2.028355   -1.179159
     99          1           0        2.673471   -0.231281   -2.197925
    100          1           0        4.400630   -1.146255    0.367355
    101          1           0        4.961702    2.070513   -2.113708
    102          1           0        5.488027    0.580833   -3.079582
    103          1           0        3.612652    0.673886   -2.862236
    104          1           0        6.184401    1.480254   -0.438328
    105          1           0        6.073162    0.019635    0.582777
    106          1           0        7.219356   -1.492176   -1.044355
    107          1           0        7.539184   -0.147658   -2.145922
    108          1           0        9.169887    1.163514   -0.062081
    109          1           0        8.506266   -0.407609    0.727692
    110          1           0       10.121996   -0.280294   -1.979278
    111          1           0        8.991811   -2.397188   -1.368460
    112          1           0       10.831723   -2.674423   -1.342607
    113          1           0        9.725787   -2.635064    0.151741
    114          1           0       11.114578    0.886668   -0.022164
    115          1           0       11.048246   -0.487855    0.910648
    116          1           0       12.661288   -1.575615   -0.703695
    117          1           0       12.695958    0.056388   -1.376123
    118          1           0       13.744039    1.235723    0.372910
    119          1           0       13.700932   -0.320722    1.390113
    120          1           0       14.983942    0.023280   -1.300143
    121          1           0       14.700748   -2.468333   -0.995682
    122          1           0       16.219140   -1.948917   -1.430913
    123          1           0       15.736506   -2.090509    0.568427
    124          1           0       15.773181    1.413687    0.644164
    125          1           0       16.331248   -0.140935    1.452066
    126          1           0       18.027166   -0.155795   -0.608931
    127          1           0       17.552949    1.346224   -1.253669
    128          1           0       18.231455    2.542639    0.860675
    129          1           0       18.661169    1.053623    1.541700
    130          1           0       20.431191    0.526305   -0.219124
    131          1           0       19.714900    3.334983   -1.193055
    132          1           0       21.062857    2.322155   -1.848964
    133          1           0       19.521833    1.634221   -1.919746
    134          1           0       20.722567    1.857000    2.088422
    135          1           0       21.985167    2.020597    0.794449
    136          1           0       20.628621    3.346418    0.890136
    137          1           0       -7.336437    1.700801    0.563095
    138          1           0       -7.354608   -0.271330   -0.193509
 ---------------------------------------------------------------------

 SCF Done:  E(RB3LYP) =  -2732.90413590     A.U. after   17 cycles

 Excitation energies and oscillator strengths:

 Excited State   1:      Singlet-A      2.0766 eV  597.05 nm  f=0.1473  <S**2>=0.000
     235 -> 237       -0.10502
     235 -> 238        0.32597
     236 -> 237        0.61059
 This state for optimization and/or second-order correction.
 Total Energy, E(TD-HF/TD-KS) =  -2732.82782223
 Copying the excited state density for this state as the 1-particle RhoCI density.

 The electronic state is 1-A.
 Alpha  occ. eigenvalues --  -19.18238 -19.16445 -19.12888 -19.12874 -19.11551
 Alpha  occ. eigenvalues --  -14.37779 -14.36848 -14.31537 -14.29717 -10.32353
 Alpha  occ. eigenvalues --  -10.30815 -10.27689 -10.25225 -10.24396 -10.24203
 Alpha  occ. eigenvalues --  -10.24014 -10.23923 -10.23470 -10.23028 -10.22988
 Alpha  occ. eigenvalues --  -10.22292 -10.22227 -10.21676 -10.21387 -10.21146
 Alpha  occ. eigenvalues --  -10.21067 -10.20947 -10.20889 -10.20863 -10.20811
 Alpha  occ. eigenvalues --  -10.20767 -10.20581 -10.20334 -10.20256 -10.20131
 Alpha  occ. eigenvalues --  -10.20129 -10.20039 -10.20023 -10.19974 -10.19744
 Alpha  occ. eigenvalues --  -10.19523 -10.19378 -10.19229 -10.19197 -10.19128
 Alpha  occ. eigenvalues --  -10.19064 -10.19061 -10.18915 -10.18856 -10.18804
 Alpha  occ. eigenvalues --  -10.18758 -10.18746 -10.18611 -10.18348 -10.18324
 Alpha  occ. eigenvalues --  -10.18141 -10.18031 -10.17943 -10.17471 -10.17351
 Alpha  occ. eigenvalues --  -10.17348 -10.16967 -10.16818 -10.15809  -1.09882
 Alpha  occ. eigenvalues --   -1.08763  -1.01311  -0.99702  -0.98872  -0.98686
 Alpha  occ. eigenvalues --   -0.97421  -0.96387  -0.95873  -0.86433  -0.82863
 Alpha  occ. eigenvalues --   -0.82616  -0.82444  -0.81731  -0.81539  -0.81127
 Alpha  occ. eigenvalues --   -0.80839  -0.80212  -0.79758  -0.79320  -0.78245
 Alpha  occ. eigenvalues --   -0.77907  -0.77094  -0.75957  -0.74924  -0.74476
 Alpha  occ. eigenvalues --   -0.73368  -0.73069  -0.72797  -0.72031  -0.71154
 Alpha  occ. eigenvalues --   -0.70456  -0.69720  -0.68917  -0.67918  -0.67548
 Alpha  occ. eigenvalues --   -0.67471  -0.67169  -0.66545  -0.65939  -0.65055
 Alpha  occ. eigenvalues --   -0.64352  -0.62792  -0.62210  -0.61346  -0.61167
 Alpha  occ. eigenvalues --   -0.60803  -0.59472  -0.58926  -0.57856  -0.57506
 Alpha  occ. eigenvalues --   -0.57277  -0.56670  -0.56117  -0.56097  -0.55480
 Alpha  occ. eigenvalues --   -0.54825  -0.54579  -0.53797  -0.53505  -0.53222
 Alpha  occ. eigenvalues --   -0.53064  -0.52268  -0.51636  -0.50622  -0.50395
 Alpha  occ. eigenvalues --   -0.49993  -0.49786  -0.49399  -0.48676  -0.48565
 Alpha  occ. eigenvalues --   -0.48499  -0.47780  -0.47593  -0.47521  -0.47395
 Alpha  occ. eigenvalues --   -0.47216  -0.47002  -0.46671  -0.46311  -0.46271
 Alpha  occ. eigenvalues --   -0.45719  -0.45566  -0.45206  -0.44960  -0.44921
 Alpha  occ. eigenvalues --   -0.44645  -0.44351  -0.44196  -0.43606  -0.43550
 Alpha  occ. eigenvalues --   -0.43364  -0.43047  -0.43007  -0.42643  -0.42563
 Alpha  occ. eigenvalues --   -0.42233  -0.42132  -0.41891  -0.41554  -0.41394
 Alpha  occ. eigenvalues --   -0.41264  -0.40977  -0.40852  -0.40773  -0.40654
 Alpha  occ. eigenvalues --   -0.40153  -0.39957  -0.39748  -0.39566  -0.39295
 Alpha  occ. eigenvalues --   -0.38996  -0.38819  -0.38673  -0.38591  -0.38529
 Alpha  occ. eigenvalues --   -0.38386  -0.38022  -0.37774  -0.37487  -0.37381
 Alpha  occ. eigenvalues --   -0.37071  -0.36987  -0.36772  -0.36680  -0.36386
 Alpha  occ. eigenvalues --   -0.36368  -0.36103  -0.36036  -0.35961  -0.35788
 Alpha  occ. eigenvalues --   -0.35746  -0.35682  -0.35311  -0.35054  -0.34944
 Alpha  occ. eigenvalues --   -0.34624  -0.34453  -0.34377  -0.34262  -0.33640
 Alpha  occ. eigenvalues --   -0.33554  -0.33032  -0.32995  -0.32472  -0.32361
 Alpha  occ. eigenvalues --   -0.32028  -0.31734  -0.31573  -0.31337  -0.31108
 Alpha  occ. eigenvalues --   -0.30911  -0.30236  -0.30206  -0.30090  -0.29967
 Alpha  occ. eigenvalues --   -0.29578  -0.28861  -0.28536  -0.28491  -0.27835
 Alpha  occ. eigenvalues --   -0.27201  -0.27159  -0.26932  -0.26403  -0.26295
 Alpha  occ. eigenvalues --   -0.25787  -0.24675  -0.24079  -0.23191  -0.20044
 Alpha  occ. eigenvalues --   -0.19117
 Alpha virt. eigenvalues --   -0.10283  -0.08268  -0.05206  -0.02184  -0.00476
 Alpha virt. eigenvalues --    0.00071   0.00664   0.00872   0.02063   0.02534
 Alpha virt. eigenvalues --    0.03546   0.04224   0.04297   0.04313   0.04737

 Mulliken charges:
               1
     1  C    0.082977
     2  C   -0.059441
     3  C   -0.057428
     4  C   -0.138571
     5  N   -0.130616
     6  C   -0.106233
     7  C   -0.078031
     8  C   -0.059652
     9  C   -0.080924
    10  C    0.153186
    11  C    0.076425
    12  C    0.157463
    13  C    0.159837
    14  O   -0.176623
    15  O   -0.347765
    16  N   -0.031461
    17  C    0.075261
    18  C   -0.128428
    19  C   -0.014008
    20  C   -0.035155
    21  C    0.082838
    22  C    0.018581
    23  C   -0.047193
    24  N   -0.149462
    25  C    0.005339
    26  C   -0.112458
    27  C   -0.052872
    28  C    0.027729
    29  C    0.019374
    30  C    0.128298
    31  C   -0.063312
    32  N   -0.049008
    33  C    0.096263
    34  C   -0.158515
    35  C    0.078031
    36  C    0.039356
    37  C    0.098637
    38  C    0.057133
    39  O   -0.252604
    40  C   -0.125578
    41  C    0.251218
    42  O   -0.264546
    43  O   -0.292396
    44  C    0.180116
    45  C    0.275572
    46  C   -0.130855
    47  C   -0.217416
    48  C    0.042978
    49  C    0.049877
    50  C    0.057552
    51  C   -0.020785
    52  C   -0.209256
    53  C    0.100452
    54  C    0.186858
    55  C    0.094679
    56  C   -0.041071
    57  C    0.056985
    58  C   -0.077453
    59  C    0.087095
    60  C    0.028413
    61  C    0.072671
    62  C   -0.161630
    63  C    0.054024
    64  C    0.020969
    65  H   -0.017773
    66  H    0.004667
    67  H    0.040245
    68  H    0.030733
    69  H    0.008593
    70  H    0.020500
    71  H   -0.008985
    72  H    0.033787
    73  H    0.004398
    74  H   -0.009505
    75  H   -0.087551
    76  H    0.036370
    77  H    0.042903
    78  H   -0.036771
    79  H    0.041851
    80  H    0.027575
    81  H    0.046571
    82  H    0.029886
    83  H    0.037028
    84  H    0.051345
    85  H    0.014650
    86  H   -0.074292
    87  H   -0.001949
    88  H    0.023980
    89  H    0.020979
    90  H    0.033676
    91  H    0.059081
    92  H    0.046210
    93  H    0.002941
    94  H    0.125123
    95  H    0.026126
    96  H    0.048240
    97  H    0.016243
    98  H    0.023200
    99  H    0.055759
   100  H    0.004430
   101  H    0.046246
   102  H    0.026670
   103  H    0.021253
   104  H    0.008502
   105  H   -0.023890
   106  H    0.024725
   107  H    0.000752
   108  H    0.038639
   109  H   -0.006476
   110  H    0.003790
   111  H   -0.005422
   112  H    0.022149
   113  H    0.005965
   114  H   -0.040635
   115  H   -0.075906
   116  H   -0.002508
   117  H   -0.047232
   118  H   -0.006670
   119  H   -0.011130
   120  H   -0.090064
   121  H    0.008726
   122  H    0.023916
   123  H    0.026083
   124  H   -0.020239
   125  H    0.016522
   126  H   -0.032100
   127  H    0.007031
   128  H   -0.012619
   129  H   -0.027799
   130  H   -0.005088
   131  H    0.008210
   132  H    0.000673
   133  H   -0.022879
   134  H    0.013340
   135  H    0.013456
   136  H    0.011119
   137  H    0.214714
   138  H    0.122472
 Sum of Mulliken charges =   0.00000

 Dipole moment (field-independent basis, Debye):
    X=              1.2204    Y=              5.0704    Z=              0.8905  Tot=              5.2907
 Quadrupole moment (field-independent basis, Debye-Ang):
   XX=           -367.4287   YY=           -384.9885   ZZ=           -395.3223
   XY=            -33.2524   XZ=             -5.1968   YZ=              1.4271

 Normal termination of Gaussian 09 at Sat Aug  3 04:23:12 2019.
