 Gaussian 09, Revision D.01,
 Gaussian 09:  ES64L-G09RevD.01 24-Apr-2013

 --------------------------
 # td=(NStates=1) B3LYP/SVP
 --------------------------

 --
 TD
 --
 Symbolic Z-matrix:
 Charge =  0 Multiplicity = 1

                         Standard orientation:
 ---------------------------------------------------------------------
 Center     Atomic      Atomic             Coordinates (Angstroms)
 Number     Number       Type             X           Y           Z
 ---------------------------------------------------------------------
      1          6           0       -5.196062   -1.930036    0.431739
      2          6           0       -4.777871    2.735943    1.467259
      3          6           0       -9.319418    3.386486   -0.242713
      4          6           0       -9.908451   -1.438924   -1.050546
      5          7           0       -5.291077    0.445956    0.813996
      6          6           0       -4.572568   -0.803801    0.935759
      7          6           0       -3.158521   -0.638090    1.357101
      8          6           0       -3.097434    0.837079    1.825607
      9          6           0       -4.446335    1.318104    1.407755
     10          6           0       -2.954284    0.827793    3.414214
     11          6           0       -2.035511   -0.818348    0.231079
     12          6           0       -0.635191   -0.785304    0.694909
     13          6           0        0.347192   -1.085342   -0.466355
     14          8           0        0.128938   -1.448086   -1.606617
     15          8           0        1.630954   -0.815776   -0.103242
     16          7           0       -7.117127    2.691779    0.485998
     17          6           0       -5.967954    3.346769    1.053670
     18          6           0       -6.205992    4.741479    1.064974
     19          6           0       -7.449971    5.033530    0.382880
     20          6           0       -8.025336    3.745630    0.050064
     21          6           0       -5.161892    5.723713    1.544936
     22          6           0       -8.069314    6.235778    0.259032
     23          6           0       -8.930644    6.703517   -0.622143
     24          7           0       -9.217506    0.905467   -0.518188
     25          6           0       -9.870635    2.045469   -0.466920
     26          6           0      -11.297553    1.941169   -0.942561
     27          6           0      -11.418576    0.518099   -1.193492
     28          6           0      -10.124156   -0.074342   -0.939317
     29          6           0      -12.265129    2.954871   -1.297447
     30          6           0      -12.680752   -0.131243   -1.676075
     31          6           0      -12.577031   -0.612984   -3.105933
     32          7           0       -7.530066   -1.280258   -0.227493
     33          6           0       -8.644427   -2.039801   -0.669570
     34          6           0       -8.183508   -3.357332   -0.710478
     35          6           0       -6.808446   -3.399845   -0.338895
     36          6           0       -6.601868   -2.058944    0.050486
     37          6           0       -8.990142   -4.632437   -1.009479
     38          6           0       -5.700204   -4.257666    0.035889
     39          8           0       -5.685592   -5.508253   -0.039583
     40          6           0       -4.507113   -3.361093    0.404519
     41          6           0       -4.054276   -3.834138    1.706760
     42          8           0       -4.238588   -3.333404    2.837375
     43          8           0       -3.041778   -4.753838    1.577494
     44          6           0       -2.552034   -5.345635    2.770061
     45          6           0        2.672743   -1.032375   -1.056513
     46          6           0        4.011243   -0.729431   -0.560664
     47          6           0        4.950421    0.028824   -1.061321
     48          6           0        4.747620    0.967587   -2.314938
     49          6           0        6.145389    0.189638   -0.258224
     50          6           0        7.502498   -0.320310   -0.901383
     51          6           0        8.879757   -0.214905   -0.097429
     52          6           0       10.174739   -0.605618   -0.789827
     53          6           0       10.112231   -2.165529   -1.232525
     54          6           0       11.360704   -0.287575    0.002695
     55          6           0       12.677703   -0.581277   -0.648094
     56          6           0       13.867350    0.058325    0.174232
     57          6           0       15.215130   -0.050797   -0.558796
     58          6           0       15.633198   -1.491676   -0.899785
     59          6           0       16.311083    0.621572    0.408241
     60          6           0       17.693502    0.577603   -0.279153
     61          6           0       18.648636    1.464411    0.661967
     62          6           0       20.121455    1.500303    0.239781
     63          6           0       20.359773    2.026999   -1.193342
     64          6           0       20.924831    2.338242    1.314792
     65          1           0       -4.105911    3.447217    1.840004
     66          1           0       -9.984641    4.296243   -0.150056
     67          1           0      -10.615886   -2.309959   -1.302433
     68          1           0       -3.078496   -1.313115    2.177947
     69          1           0       -2.493628    1.672178    1.529358
     70          1           0       -2.027192    0.349190    3.595456
     71          1           0       -3.018190    1.796469    3.973733
     72          1           0       -3.842798    0.249307    3.511832
     73          1           0       -2.166645   -1.803153   -0.221436
     74          1           0       -2.387656   -0.195841   -0.398374
     75          1           0       -0.154180    0.032123    1.209232
     76          1           0       -0.377012   -1.525681    1.398710
     77          1           0       -4.416272    5.758743    0.804384
     78          1           0       -5.579355    6.720174    1.568563
     79          1           0       -4.828668    5.392460    2.371899
     80          1           0       -7.731739    6.818636    1.152493
     81          1           0       -9.344638    6.077722   -1.500449
     82          1           0       -9.309944    7.612347   -0.291280
     83          1           0      -12.281529    3.880745   -0.424374
     84          1           0      -11.889271    3.675601   -2.165425
     85          1           0      -13.223389    2.473229   -1.281579
     86          1           0      -12.861240   -1.071095   -0.890465
     87          1           0      -13.443239    0.786262   -1.685728
     88          1           0      -12.509556    0.252496   -3.763065
     89          1           0      -11.648104   -1.201901   -3.268277
     90          1           0      -13.440435   -1.216083   -3.563588
     91          1           0       -9.832408   -4.919440   -0.120725
     92          1           0       -9.555686   -4.392543   -1.971171
     93          1           0       -8.119656   -5.587028   -1.203720
     94          1           0       -3.705197   -3.496405   -0.266587
     95          1           0       -1.839091   -6.143086    2.425441
     96          1           0       -2.048551   -4.472499    3.166436
     97          1           0       -3.397578   -5.697659    3.011330
     98          1           0        2.632918   -2.103607   -1.318934
     99          1           0        2.466358   -0.549490   -2.106429
    100          1           0        4.410820   -1.110351    0.471134
    101          1           0        4.938256    2.055055   -2.028480
    102          1           0        5.779793    0.658932   -2.929757
    103          1           0        3.912038    0.600273   -2.890638
    104          1           0        6.322467    1.210962    0.001045
    105          1           0        5.904526   -0.232174    0.828430
    106          1           0        7.358736   -1.409358   -1.309121
    107          1           0        7.626451    0.240247   -1.862088
    108          1           0        8.826752    0.931509   -0.056048
    109          1           0        8.749845   -0.709858    0.906895
    110          1           0        9.999930   -0.145926   -1.674004
    111          1           0        9.353334   -2.035232   -2.025550
    112          1           0       11.022063   -2.527495   -1.767947
    113          1           0       10.136639   -2.683413   -0.384227
    114          1           0       11.408003    0.782951    0.194771
    115          1           0       11.264280   -0.742543    1.079395
    116          1           0       12.862754   -1.598912   -0.678669
    117          1           0       12.749198   -0.202767   -1.727472
    118          1           0       13.580750    1.089857    0.437989
    119          1           0       13.763980   -0.371873    1.055229
    120          1           0       15.053673    0.545804   -1.435426
    121          1           0       14.854109   -1.927793   -1.560583
    122          1           0       16.625184   -1.363224   -1.420416
    123          1           0       15.535520   -2.279728   -0.046682
    124          1           0       15.819348    1.703741    0.431248
    125          1           0       16.228918    0.225059    1.229946
    126          1           0       18.048780   -0.396229   -0.322910
    127          1           0       17.609499    1.055689   -1.081558
    128          1           0       18.231352    2.540396    0.779844
    129          1           0       18.858063    1.127939    1.706489
    130          1           0       20.721991    0.556607    0.279880
    131          1           0       19.983111    3.103496   -1.288346
    132          1           0       21.527595    1.987414   -1.445679
    133          1           0       19.769090    1.420936   -1.824990
    134          1           0       20.811200    2.087463    2.372482
    135          1           0       21.910061    2.471963    0.947926
    136          1           0       20.393107    3.382256    1.626393
    137          1           0       -7.371955    1.624371    0.487895
    138          1           0       -7.693372   -0.129150    0.038363
 ---------------------------------------------------------------------

 SCF Done:  E(RB3LYP) =  -2732.96625552     A.U. after   17 cycles

 Excitation energies and oscillator strengths:

 Excited State   1:      Singlet-A      2.0632 eV  600.93 nm  f=0.1397  <S**2>=0.000
     235 -> 237       -0.27791
     235 -> 238       -0.24447
     236 -> 237        0.57400
     236 -> 238       -0.15960
 This state for optimization and/or second-order correction.
 Total Energy, E(TD-HF/TD-KS) =  -2732.89043471
 Copying the excited state density for this state as the 1-particle RhoCI density.

 The electronic state is 1-A.
 Alpha  occ. eigenvalues --  -19.17446 -19.16171 -19.12523 -19.11941 -19.11408
 Alpha  occ. eigenvalues --  -14.37378 -14.36266 -14.33028 -14.31607 -10.31865
 Alpha  occ. eigenvalues --  -10.31496 -10.27656 -10.25116 -10.24116 -10.24027
 Alpha  occ. eigenvalues --  -10.23464 -10.22989 -10.22936 -10.22923 -10.22828
 Alpha  occ. eigenvalues --  -10.22748 -10.22276 -10.22180 -10.22161 -10.21444
 Alpha  occ. eigenvalues --  -10.21373 -10.21351 -10.21238 -10.21142 -10.21058
 Alpha  occ. eigenvalues --  -10.20978 -10.20806 -10.20789 -10.20599 -10.20486
 Alpha  occ. eigenvalues --  -10.20388 -10.20066 -10.20006 -10.19750 -10.19572
 Alpha  occ. eigenvalues --  -10.19549 -10.19360 -10.19322 -10.19269 -10.19172
 Alpha  occ. eigenvalues --  -10.19105 -10.18995 -10.18972 -10.18809 -10.18707
 Alpha  occ. eigenvalues --  -10.18646 -10.18642 -10.18403 -10.18381 -10.18355
 Alpha  occ. eigenvalues --  -10.18103 -10.18060 -10.17953 -10.17879 -10.17454
 Alpha  occ. eigenvalues --  -10.17147 -10.16989 -10.16847 -10.16479  -1.09304
 Alpha  occ. eigenvalues --   -1.08404  -1.00662  -0.99991  -0.99767  -0.98479
 Alpha  occ. eigenvalues --   -0.94838  -0.94053  -0.93412  -0.84460  -0.83170
 Alpha  occ. eigenvalues --   -0.82932  -0.82415  -0.82183  -0.81344  -0.81042
 Alpha  occ. eigenvalues --   -0.80170  -0.79790  -0.79189  -0.79059  -0.78593
 Alpha  occ. eigenvalues --   -0.77266  -0.76465  -0.76389  -0.75245  -0.74658
 Alpha  occ. eigenvalues --   -0.73865  -0.73050  -0.72620  -0.71861  -0.71208
 Alpha  occ. eigenvalues --   -0.70087  -0.69746  -0.68261  -0.68168  -0.67392
 Alpha  occ. eigenvalues --   -0.67153  -0.67080  -0.66513  -0.65977  -0.65458
 Alpha  occ. eigenvalues --   -0.64371  -0.64209  -0.63266  -0.62295  -0.62181
 Alpha  occ. eigenvalues --   -0.61007  -0.60375  -0.59090  -0.57750  -0.57322
 Alpha  occ. eigenvalues --   -0.56831  -0.56745  -0.56268  -0.55758  -0.55178
 Alpha  occ. eigenvalues --   -0.54824  -0.54389  -0.53534  -0.52996  -0.52668
 Alpha  occ. eigenvalues --   -0.52092  -0.51946  -0.51500  -0.51333  -0.50917
 Alpha  occ. eigenvalues --   -0.50617  -0.49999  -0.49325  -0.49018  -0.48756
 Alpha  occ. eigenvalues --   -0.48344  -0.48227  -0.48087  -0.47709  -0.47204
 Alpha  occ. eigenvalues --   -0.47127  -0.46959  -0.46324  -0.45945  -0.45923
 Alpha  occ. eigenvalues --   -0.45802  -0.45415  -0.45344  -0.45134  -0.44959
 Alpha  occ. eigenvalues --   -0.44741  -0.44634  -0.44284  -0.44161  -0.43692
 Alpha  occ. eigenvalues --   -0.43543  -0.43347  -0.43152  -0.42987  -0.42848
 Alpha  occ. eigenvalues --   -0.42661  -0.42620  -0.42255  -0.42020  -0.41901
 Alpha  occ. eigenvalues --   -0.41671  -0.41483  -0.41419  -0.40958  -0.40906
 Alpha  occ. eigenvalues --   -0.40681  -0.40237  -0.39612  -0.39533  -0.39342
 Alpha  occ. eigenvalues --   -0.39237  -0.39073  -0.38959  -0.38674  -0.38561
 Alpha  occ. eigenvalues --   -0.38391  -0.38245  -0.38045  -0.38015  -0.37690
 Alpha  occ. eigenvalues --   -0.37427  -0.37170  -0.37076  -0.36851  -0.36560
 Alpha  occ. eigenvalues --   -0.36496  -0.36396  -0.36278  -0.36004  -0.35989
 Alpha  occ. eigenvalues --   -0.35554  -0.35360  -0.35322  -0.35123  -0.34742
 Alpha  occ. eigenvalues --   -0.34328  -0.33938  -0.33864  -0.33683  -0.33503
 Alpha  occ. eigenvalues --   -0.33393  -0.33273  -0.32758  -0.32725  -0.32606
 Alpha  occ. eigenvalues --   -0.32503  -0.31959  -0.31881  -0.31872  -0.31590
 Alpha  occ. eigenvalues --   -0.31231  -0.31170  -0.30914  -0.30196  -0.29889
 Alpha  occ. eigenvalues --   -0.29313  -0.28852  -0.28682  -0.28111  -0.27924
 Alpha  occ. eigenvalues --   -0.27508  -0.27271  -0.27033  -0.26194  -0.25706
 Alpha  occ. eigenvalues --   -0.25060  -0.24635  -0.23759  -0.22301  -0.19833
 Alpha  occ. eigenvalues --   -0.19493
 Alpha virt. eigenvalues --   -0.10738  -0.08169  -0.04526  -0.02129  -0.01196
 Alpha virt. eigenvalues --   -0.00291   0.00119   0.00601   0.01165   0.03427
 Alpha virt. eigenvalues --    0.03954   0.04026   0.04184   0.04632   0.04679

 Mulliken charges:
               1
     1  C   -0.064085
     2  C   -0.067423
     3  C   -0.134977
     4  C   -0.098371
     5  N   -0.222383
     6  C   -0.062229
     7  C    0.082055
     8  C   -0.071211
     9  C    0.038891
    10  C    0.047804
    11  C    0.189699
    12  C    0.112848
    13  C    0.141027
    14  O   -0.235989
    15  O   -0.319564
    16  N   -0.223707
    17  C    0.158241
    18  C   -0.203444
    19  C    0.077005
    20  C    0.134951
    21  C    0.251763
    22  C   -0.132151
    23  C    0.012090
    24  N   -0.243322
    25  C    0.089553
    26  C   -0.138514
    27  C   -0.107125
    28  C    0.148643
    29  C    0.027853
    30  C    0.024585
    31  C    0.000083
    32  N   -0.034187
    33  C    0.012959
    34  C   -0.121107
    35  C   -0.010471
    36  C    0.046819
    37  C   -0.058846
    38  C    0.041647
    39  O   -0.222189
    40  C    0.053161
    41  C    0.208503
    42  O   -0.274380
    43  O   -0.345783
    44  C    0.280979
    45  C    0.276151
    46  C   -0.093450
    47  C   -0.176303
    48  C    0.059395
    49  C    0.086706
    50  C   -0.068845
    51  C    0.009218
    52  C   -0.022224
    53  C    0.054159
    54  C    0.066049
    55  C    0.035863
    56  C    0.065203
    57  C   -0.064058
    58  C    0.001967
    59  C    0.075442
    60  C    0.215704
    61  C   -0.037466
    62  C   -0.098315
    63  C    0.009074
    64  C    0.006588
    65  H   -0.069767
    66  H    0.000553
    67  H    0.021374
    68  H   -0.004994
    69  H   -0.001573
    70  H    0.013355
    71  H    0.021519
    72  H    0.030509
    73  H    0.006931
    74  H   -0.046165
    75  H    0.012772
    76  H    0.002732
    77  H    0.017684
    78  H   -0.001129
    79  H   -0.021200
    80  H    0.010581
    81  H    0.049627
    82  H    0.007605
    83  H    0.020207
    84  H    0.051814
    85  H    0.025182
    86  H    0.036610
    87  H    0.017738
    88  H    0.004091
    89  H    0.014438
    90  H    0.020793
    91  H    0.065530
    92  H    0.036906
    93  H    0.088288
    94  H    0.049794
    95  H    0.031903
    96  H    0.031068
    97  H   -0.017359
    98  H    0.012900
    99  H    0.025725
   100  H   -0.000612
   101  H    0.047582
   102  H    0.021699
   103  H    0.018976
   104  H   -0.017471
   105  H    0.005004
   106  H    0.012058
   107  H   -0.000327
   108  H    0.003227
   109  H    0.005111
   110  H   -0.058426
   111  H    0.021535
   112  H    0.002969
   113  H   -0.023005
   114  H   -0.026408
   115  H   -0.001652
   116  H   -0.021117
   117  H   -0.004620
   118  H   -0.025936
   119  H   -0.064129
   120  H   -0.016818
   121  H    0.004958
   122  H    0.027196
   123  H    0.018357
   124  H    0.002344
   125  H   -0.089224
   126  H    0.000814
   127  H   -0.068829
   128  H    0.009261
   129  H   -0.000887
   130  H    0.003076
   131  H    0.011839
   132  H    0.022935
   133  H    0.003196
   134  H   -0.000163
   135  H    0.005534
   136  H   -0.011618
   137  H    0.185332
   138  H    0.241638
 Sum of Mulliken charges =   0.00000

 Dipole moment (field-independent basis, Debye):
    X=              2.2656    Y=              5.6700    Z=              1.2709  Tot=              6.2368
 Quadrupole moment (field-independent basis, Debye-Ang):
   XX=           -366.8796   YY=           -387.8626   ZZ=           -396.8512
   XY=            -37.9066   XZ=              7.3829   YZ=              0.5124

 Normal termination of Gaussian 09 at Thu Aug  1 11:12:37 2019.
