 Gaussian 09, Revision D.01,
 Gaussian 09:  ES64L-G09RevD.01 24-Apr-2013

 --------------------------
 # td=(NStates=1) B3LYP/SVP
 --------------------------

 --
 TD
 --
 Symbolic Z-matrix:
 Charge =  0 Multiplicity = 1

                         Standard orientation:
 ---------------------------------------------------------------------
 Center     Atomic      Atomic             Coordinates (Angstroms)
 Number     Number       Type             X           Y           Z
 ---------------------------------------------------------------------
      1          6           0       -5.132035   -1.930548    0.456248
      2          6           0       -4.830186    2.735477    1.495290
      3          6           0       -9.340005    3.318453   -0.201882
      4          6           0       -9.784285   -1.505583   -0.899040
      5          7           0       -5.157310    0.423287    0.786333
      6          6           0       -4.524066   -0.730793    0.803341
      7          6           0       -3.039112   -0.531450    1.280884
      8          6           0       -3.048910    0.880566    1.866491
      9          6           0       -4.352589    1.382414    1.268074
     10          6           0       -2.917063    0.978268    3.313741
     11          6           0       -1.984171   -0.772134    0.079385
     12          6           0       -0.563644   -0.784065    0.514894
     13          6           0        0.389488   -1.195686   -0.490930
     14          8           0        0.094670   -1.599746   -1.582418
     15          8           0        1.645162   -0.801768   -0.168814
     16          7           0       -7.012985    2.816867    0.486777
     17          6           0       -5.956558    3.353801    1.107869
     18          6           0       -6.276349    4.760039    1.207196
     19          6           0       -7.526423    4.946405    0.539894
     20          6           0       -7.982103    3.706147    0.263877
     21          6           0       -5.278648    5.808762    1.529534
     22          6           0       -8.258174    6.145215    0.469113
     23          6           0       -8.902141    6.624487   -0.631496
     24          7           0       -9.175372    0.789619   -0.431938
     25          6           0       -9.926497    2.016064   -0.511181
     26          6           0      -11.258720    1.820890   -0.864328
     27          6           0      -11.358412    0.464292   -1.125968
     28          6           0      -10.064589   -0.048035   -0.807627
     29          6           0      -12.284876    2.891957   -1.043065
     30          6           0      -12.550378   -0.152446   -1.859717
     31          6           0      -12.370696   -0.371340   -3.440806
     32          7           0       -7.446460   -1.170455   -0.320504
     33          6           0       -8.538567   -2.054084   -0.587018
     34          6           0       -8.123241   -3.395468   -0.707655
     35          6           0       -6.823509   -3.394230   -0.279957
     36          6           0       -6.468571   -1.968331   -0.007319
     37          6           0       -8.951005   -4.579006   -1.085610
     38          6           0       -5.617771   -4.256770    0.019603
     39          8           0       -5.621119   -5.448408   -0.299283
     40          6           0       -4.541397   -3.303539    0.422200
     41          6           0       -3.951485   -3.731092    1.758096
     42          8           0       -4.159189   -3.169657    2.824077
     43          8           0       -3.136963   -4.802306    1.590266
     44          6           0       -2.829603   -5.588765    2.847379
     45          6           0        2.682663   -1.133701   -1.146200
     46          6           0        4.019057   -0.692438   -0.676171
     47          6           0        4.937184   -0.042090   -1.282113
     48          6           0        4.888991    0.553469   -2.613302
     49          6           0        6.237707    0.228953   -0.485843
     50          6           0        7.493862   -0.349706   -1.097428
     51          6           0        8.697042   -0.247196   -0.087834
     52          6           0        9.987505   -0.750037   -0.617600
     53          6           0       10.035122   -2.271166   -0.694902
     54          6           0       11.230454   -0.184092    0.028430
     55          6           0       12.629409   -0.515416   -0.487091
     56          6           0       13.744639    0.126645    0.366703
     57          6           0       15.192003   -0.276614   -0.215586
     58          6           0       15.619177   -1.764511    0.015162
     59          6           0       16.157825    0.698922    0.469750
     60          6           0       17.680697    0.490465   -0.024137
     61          6           0       18.659505    1.658682    0.379635
     62          6           0       19.955497    1.638904   -0.169531
     63          6           0       20.082731    2.328897   -1.488359
     64          6           0       20.937897    2.447476    0.809340
     65          1           0       -4.134387    3.423378    1.924839
     66          1           0      -10.060045    4.294832   -0.385394
     67          1           0      -10.468208   -2.217675   -1.354217
     68          1           0       -2.808299   -1.163092    2.162318
     69          1           0       -2.272866    1.693426    1.472782
     70          1           0       -1.891463    0.811188    3.577723
     71          1           0       -3.260118    1.924468    3.792069
     72          1           0       -3.574196    0.274699    3.855682
     73          1           0       -2.369027   -1.764787   -0.405045
     74          1           0       -2.049456   -0.059262   -0.659224
     75          1           0       -0.352661    0.200323    1.099933
     76          1           0       -0.619145   -1.368373    1.487068
     77          1           0       -4.689462    5.846507    0.557645
     78          1           0       -5.802147    6.832380    1.825119
     79          1           0       -4.719382    5.587537    2.551943
     80          1           0       -7.971035    6.755992    1.456338
     81          1           0       -9.000604    6.110786   -1.615291
     82          1           0       -9.342771    7.559033   -0.620878
     83          1           0      -12.289614    3.649046   -0.368335
     84          1           0      -11.961829    3.564013   -1.854441
     85          1           0      -13.450554    2.683307   -1.032193
     86          1           0      -12.873395   -1.040295   -1.456154
     87          1           0      -13.290553    0.448998   -1.653720
     88          1           0      -11.795137    0.564460   -4.052367
     89          1           0      -11.729325   -1.320945   -3.587913
     90          1           0      -13.492071   -0.595312   -3.870651
     91          1           0       -9.874407   -4.598357   -0.461117
     92          1           0       -9.201345   -4.300494   -2.129278
     93          1           0       -8.437982   -5.484552   -0.769403
     94          1           0       -3.764142   -3.541419   -0.482959
     95          1           0       -2.015246   -6.229644    2.400213
     96          1           0       -2.475163   -4.929305    3.702508
     97          1           0       -3.853691   -6.261805    3.179002
     98          1           0        2.734764   -2.163966   -1.565385
     99          1           0        2.422921   -0.441027   -2.128664
    100          1           0        4.104318   -1.118788    0.322778
    101          1           0        4.839791    1.833232   -2.533480
    102          1           0        5.631580    0.374505   -3.405492
    103          1           0        3.951863    0.265368   -3.070780
    104          1           0        6.554326    1.267479   -0.402283
    105          1           0        6.169403   -0.000800    0.529799
    106          1           0        7.297362   -1.476041   -1.222910
    107          1           0        7.766977    0.108420   -2.061935
    108          1           0        8.852071    0.823219   -0.096445
    109          1           0        8.474765   -0.641503    0.975788
    110          1           0       10.047038   -0.473154   -1.552061
    111          1           0        9.189387   -2.669822   -1.427771
    112          1           0       11.007605   -2.694731   -0.912121
    113          1           0        9.905152   -2.572205    0.403312
    114          1           0       11.130613    0.841297    0.217396
    115          1           0       11.118737   -0.515134    1.122229
    116          1           0       12.775415   -1.649934   -0.496745
    117          1           0       12.632535   -0.149140   -1.401157
    118          1           0       13.528460    1.227214    0.201073
    119          1           0       14.079636   -0.100759    1.298696
    120          1           0       15.293172    0.064991   -1.261113
    121          1           0       14.900031   -2.439640   -0.334255
    122          1           0       16.678904   -2.016862   -0.346486
    123          1           0       15.865307   -1.928844    1.240080
    124          1           0       15.953060    1.851500    0.134764
    125          1           0       16.017376    0.812110    1.707045
    126          1           0       18.217775   -0.578280    0.159573
    127          1           0       17.666291    0.593778   -1.174139
    128          1           0       17.993458    2.687683    0.384805
    129          1           0       18.792874    1.676984    1.628071
    130          1           0       20.451427    0.830826   -0.260096
    131          1           0       19.752310    3.409599   -1.609141
    132          1           0       21.118690    2.337653   -2.105048
    133          1           0       19.632909    1.708191   -2.312438
    134          1           0       20.985811    1.892749    1.912901
    135          1           0       21.932856    2.325328    0.631868
    136          1           0       20.604983    3.420359    1.192194
    137          1           0       -7.086445    1.727770    0.708258
    138          1           0       -7.547427   -0.150741   -0.027197
 ---------------------------------------------------------------------

 SCF Done:  E(RB3LYP) =  -2733.01610470     A.U. after   17 cycles

 Excitation energies and oscillator strengths:

 Excited State   1:      Singlet-A      2.0161 eV  614.96 nm  f=0.1543  <S**2>=0.000
     235 -> 237       -0.12867
     235 -> 238       -0.24418
     236 -> 237        0.63567
     236 -> 238       -0.12433
 This state for optimization and/or second-order correction.
 Total Energy, E(TD-HF/TD-KS) =  -2732.94201267
 Copying the excited state density for this state as the 1-particle RhoCI density.

 The electronic state is 1-A.
 Alpha  occ. eigenvalues --  -19.18404 -19.17894 -19.13217 -19.12512 -19.12424
 Alpha  occ. eigenvalues --  -14.36898 -14.36193 -14.32147 -14.29539 -10.32398
 Alpha  occ. eigenvalues --  -10.31395 -10.28439 -10.27453 -10.25592 -10.23296
 Alpha  occ. eigenvalues --  -10.23008 -10.22985 -10.22921 -10.22866 -10.22757
 Alpha  occ. eigenvalues --  -10.21901 -10.21886 -10.21317 -10.21293 -10.21194
 Alpha  occ. eigenvalues --  -10.21068 -10.21059 -10.20924 -10.20712 -10.20582
 Alpha  occ. eigenvalues --  -10.20468 -10.20350 -10.20318 -10.20246 -10.19999
 Alpha  occ. eigenvalues --  -10.19904 -10.19852 -10.19833 -10.19737 -10.19616
 Alpha  occ. eigenvalues --  -10.19542 -10.19487 -10.19447 -10.19438 -10.18887
 Alpha  occ. eigenvalues --  -10.18880 -10.18859 -10.18726 -10.18696 -10.18380
 Alpha  occ. eigenvalues --  -10.18343 -10.18309 -10.18131 -10.18123 -10.18108
 Alpha  occ. eigenvalues --  -10.18075 -10.18051 -10.17949 -10.17939 -10.17729
 Alpha  occ. eigenvalues --  -10.17586 -10.17575 -10.17172 -10.16612  -1.09418
 Alpha  occ. eigenvalues --   -1.08520  -1.02046  -1.00782  -1.00237  -0.99391
 Alpha  occ. eigenvalues --   -0.98788  -0.95522  -0.94370  -0.85131  -0.83451
 Alpha  occ. eigenvalues --   -0.82409  -0.82210  -0.82090  -0.81856  -0.81420
 Alpha  occ. eigenvalues --   -0.80232  -0.80164  -0.79620  -0.78877  -0.77456
 Alpha  occ. eigenvalues --   -0.76996  -0.75888  -0.75098  -0.74773  -0.73942
 Alpha  occ. eigenvalues --   -0.72901  -0.72426  -0.71972  -0.71449  -0.70575
 Alpha  occ. eigenvalues --   -0.69961  -0.69440  -0.68868  -0.67895  -0.67535
 Alpha  occ. eigenvalues --   -0.66973  -0.66888  -0.66163  -0.65588  -0.65078
 Alpha  occ. eigenvalues --   -0.64193  -0.63198  -0.62596  -0.61501  -0.61122
 Alpha  occ. eigenvalues --   -0.61041  -0.58896  -0.58470  -0.57735  -0.57476
 Alpha  occ. eigenvalues --   -0.56928  -0.56435  -0.56248  -0.56109  -0.55654
 Alpha  occ. eigenvalues --   -0.54961  -0.54589  -0.53980  -0.53901  -0.53469
 Alpha  occ. eigenvalues --   -0.52300  -0.52112  -0.51923  -0.51201  -0.50542
 Alpha  occ. eigenvalues --   -0.49653  -0.49387  -0.49175  -0.48577  -0.48230
 Alpha  occ. eigenvalues --   -0.48094  -0.47687  -0.47504  -0.47161  -0.47012
 Alpha  occ. eigenvalues --   -0.46862  -0.46466  -0.46304  -0.46025  -0.45950
 Alpha  occ. eigenvalues --   -0.45815  -0.45391  -0.44916  -0.44850  -0.44370
 Alpha  occ. eigenvalues --   -0.44268  -0.44084  -0.43995  -0.43748  -0.43490
 Alpha  occ. eigenvalues --   -0.43112  -0.43038  -0.42798  -0.42746  -0.42611
 Alpha  occ. eigenvalues --   -0.42262  -0.42111  -0.41831  -0.41340  -0.41275
 Alpha  occ. eigenvalues --   -0.41004  -0.40842  -0.40532  -0.40250  -0.40176
 Alpha  occ. eigenvalues --   -0.40109  -0.39904  -0.39619  -0.39390  -0.39081
 Alpha  occ. eigenvalues --   -0.38834  -0.38649  -0.38626  -0.38465  -0.38328
 Alpha  occ. eigenvalues --   -0.38227  -0.37787  -0.37541  -0.37397  -0.37279
 Alpha  occ. eigenvalues --   -0.37166  -0.37052  -0.36959  -0.36549  -0.36432
 Alpha  occ. eigenvalues --   -0.36409  -0.36208  -0.36145  -0.36070  -0.35496
 Alpha  occ. eigenvalues --   -0.35376  -0.35288  -0.35113  -0.34986  -0.34646
 Alpha  occ. eigenvalues --   -0.34584  -0.34308  -0.34098  -0.33942  -0.33720
 Alpha  occ. eigenvalues --   -0.33364  -0.33277  -0.33147  -0.32790  -0.32042
 Alpha  occ. eigenvalues --   -0.31953  -0.31702  -0.31382  -0.31330  -0.30885
 Alpha  occ. eigenvalues --   -0.30855  -0.30567  -0.30145  -0.30069  -0.29795
 Alpha  occ. eigenvalues --   -0.29789  -0.28990  -0.28612  -0.28477  -0.27795
 Alpha  occ. eigenvalues --   -0.27774  -0.27585  -0.27262  -0.26794  -0.25904
 Alpha  occ. eigenvalues --   -0.25739  -0.25028  -0.23256  -0.22365  -0.20026
 Alpha  occ. eigenvalues --   -0.17889
 Alpha virt. eigenvalues --   -0.09628  -0.07694  -0.04678  -0.02411  -0.01065
 Alpha virt. eigenvalues --   -0.00869   0.00368   0.00521   0.02549   0.04079
 Alpha virt. eigenvalues --    0.04093   0.04284   0.04469   0.04713   0.04986

 Mulliken charges:
               1
     1  C   -0.014912
     2  C   -0.078545
     3  C   -0.122959
     4  C   -0.101061
     5  N   -0.146115
     6  C   -0.092849
     7  C   -0.029649
     8  C   -0.088210
     9  C   -0.006395
    10  C    0.089608
    11  C    0.075042
    12  C   -0.002334
    13  C    0.231365
    14  O   -0.218384
    15  O   -0.323448
    16  N   -0.034101
    17  C    0.075975
    18  C   -0.147882
    19  C    0.021262
    20  C    0.046090
    21  C    0.009673
    22  C   -0.083377
    23  C   -0.017469
    24  N   -0.224729
    25  C    0.073407
    26  C   -0.099406
    27  C   -0.168805
    28  C    0.049983
    29  C    0.141419
    30  C    0.239430
    31  C   -0.101717
    32  N   -0.016979
    33  C    0.096116
    34  C   -0.203947
    35  C   -0.032360
    36  C    0.084885
    37  C    0.132440
    38  C    0.075129
    39  O   -0.184143
    40  C   -0.040517
    41  C    0.215287
    42  O   -0.227161
    43  O   -0.325642
    44  C    0.104390
    45  C    0.210625
    46  C   -0.112554
    47  C   -0.035510
    48  C    0.036018
    49  C    0.141206
    50  C   -0.042274
    51  C    0.017491
    52  C    0.054679
    53  C   -0.003151
    54  C    0.014660
    55  C    0.135042
    56  C    0.040513
    57  C   -0.059697
    58  C    0.007566
    59  C   -0.084200
    60  C   -0.014274
    61  C   -0.035838
    62  C    0.099139
    63  C   -0.033243
    64  C    0.001804
    65  H   -0.050615
    66  H    0.022109
    67  H   -0.027188
    68  H    0.017447
    69  H    0.014331
    70  H    0.004026
    71  H    0.006383
    72  H    0.017342
    73  H    0.027485
    74  H   -0.016597
    75  H    0.036956
    76  H    0.021465
    77  H    0.065554
    78  H    0.024842
    79  H    0.043706
    80  H    0.037364
    81  H    0.043477
    82  H    0.006149
    83  H   -0.033638
    84  H    0.000506
    85  H    0.036109
    86  H   -0.035660
    87  H   -0.069536
    88  H    0.050853
    89  H    0.029188
    90  H    0.035533
    91  H    0.024991
    92  H    0.044550
    93  H    0.039390
    94  H    0.112149
    95  H    0.060918
    96  H    0.069700
    97  H    0.076714
    98  H    0.048105
    99  H    0.031914
   100  H   -0.011937
   101  H    0.035909
   102  H    0.034488
   103  H   -0.010789
   104  H   -0.027269
   105  H   -0.036943
   106  H    0.002066
   107  H    0.006865
   108  H   -0.023081
   109  H    0.010991
   110  H   -0.082172
   111  H    0.030400
   112  H    0.000600
   113  H   -0.006491
   114  H   -0.045548
   115  H   -0.030635
   116  H    0.009183
   117  H   -0.048455
   118  H    0.000519
   119  H   -0.026346
   120  H   -0.008640
   121  H    0.011895
   122  H    0.030397
   123  H    0.017305
   124  H    0.014001
   125  H    0.021364
   126  H    0.025336
   127  H    0.005264
   128  H    0.012314
   129  H    0.000988
   130  H   -0.073581
   131  H    0.020957
   132  H    0.001924
   133  H   -0.002674
   134  H   -0.012780
   135  H   -0.016153
   136  H    0.015676
   137  H    0.194438
   138  H    0.178186
 Sum of Mulliken charges =   0.00000

 Dipole moment (field-independent basis, Debye):
    X=              2.1495    Y=              2.5593    Z=              1.0523  Tot=              3.5040
 Quadrupole moment (field-independent basis, Debye-Ang):
   XX=           -358.0756   YY=           -381.2551   ZZ=           -391.8460
   XY=            -18.1688   XZ=             -9.6419   YZ=             -7.3278

 Normal termination of Gaussian 09 at Wed Jul 24 11:19:36 2019.
