 Gaussian 09, Revision D.01,
 Gaussian 09:  ES64L-G09RevD.01 24-Apr-2013

 --------------------------
 # td=(NStates=1) B3LYP/SVP
 --------------------------

 --
 TD
 --
 Symbolic Z-matrix:
 Charge =  0 Multiplicity = 1

                         Standard orientation:
 ---------------------------------------------------------------------
 Center     Atomic      Atomic             Coordinates (Angstroms)
 Number     Number       Type             X           Y           Z
 ---------------------------------------------------------------------
      1          6           0       -5.050634   -1.922569    0.461286
      2          6           0       -4.777717    2.719226    1.482208
      3          6           0       -9.346913    3.299888   -0.278739
      4          6           0       -9.992601   -1.512892   -0.879943
      5          7           0       -5.215684    0.346691    0.822448
      6          6           0       -4.494131   -0.701059    0.768710
      7          6           0       -3.053580   -0.583622    1.264978
      8          6           0       -3.139785    0.860851    1.963349
      9          6           0       -4.372349    1.330835    1.375350
     10          6           0       -3.065556    0.740698    3.452259
     11          6           0       -2.043106   -0.767499    0.070789
     12          6           0       -0.625981   -0.703770    0.387733
     13          6           0        0.423135   -0.941443   -0.675993
     14          8           0        0.205553   -1.225254   -1.828331
     15          8           0        1.612966   -0.595715   -0.214804
     16          7           0       -6.995451    2.683047    0.488088
     17          6           0       -5.940594    3.340078    1.052513
     18          6           0       -6.284545    4.772262    1.110359
     19          6           0       -7.601428    4.981257    0.625467
     20          6           0       -8.044848    3.645699    0.155664
     21          6           0       -5.198501    5.808690    1.618814
     22          6           0       -8.197617    6.315781    0.418472
     23          6           0       -9.173161    6.576850   -0.511973
     24          7           0       -9.212106    0.747277   -0.610491
     25          6           0       -9.767970    2.006203   -0.651048
     26          6           0      -11.249748    1.808144   -0.954773
     27          6           0      -11.409237    0.441782   -1.111943
     28          6           0      -10.149052   -0.203942   -0.874277
     29          6           0      -12.342282    2.874095   -1.121024
     30          6           0      -12.747166   -0.339513   -1.508527
     31          6           0      -12.874346   -0.459358   -3.079803
     32          7           0       -7.425492   -1.246731   -0.384852
     33          6           0       -8.597464   -2.029435   -0.669952
     34          6           0       -8.173926   -3.443230   -0.665835
     35          6           0       -6.850753   -3.437669   -0.268729
     36          6           0       -6.355508   -2.115415   -0.074403
     37          6           0       -8.994046   -4.645202   -1.108247
     38          6           0       -5.669809   -4.330879   -0.023402
     39          8           0       -5.595159   -5.502014   -0.079823
     40          6           0       -4.446829   -3.378129    0.330840
     41          6           0       -3.979580   -3.890755    1.653574
     42          8           0       -4.184621   -3.278021    2.746405
     43          8           0       -3.050218   -4.836583    1.520170
     44          6           0       -2.656158   -5.403052    2.781870
     45          6           0        2.674082   -0.752812   -1.151002
     46          6           0        4.042200   -0.606054   -0.571289
     47          6           0        5.025149    0.308895   -1.014191
     48          6           0        4.957575    1.211686   -2.279520
     49          6           0        6.229796    0.347936   -0.173855
     50          6           0        7.548976   -0.102032   -0.809979
     51          6           0        8.824477   -0.166396    0.019654
     52          6           0       10.112591   -0.670269   -0.683993
     53          6           0       10.065113   -2.159975   -1.028584
     54          6           0       11.292797   -0.136887   -0.020585
     55          6           0       12.638194   -0.410810   -0.810099
     56          6           0       13.820569   -0.049819    0.194223
     57          6           0       15.254264   -0.168715   -0.385001
     58          6           0       15.575122   -1.589021   -0.541004
     59          6           0       16.285451    0.517672    0.555975
     60          6           0       17.638847    0.531892   -0.173131
     61          6           0       18.714176    1.347755    0.673213
     62          6           0       20.109456    1.431925    0.066277
     63          6           0       20.198475    2.206184   -1.287355
     64          6           0       21.046236    1.942633    1.059526
     65          1           0       -3.875118    3.367026    1.787704
     66          1           0      -10.160348    3.941765   -0.368709
     67          1           0      -10.893195   -2.215063   -0.964344
     68          1           0       -2.765405   -1.485947    1.815055
     69          1           0       -2.239895    1.610107    1.719839
     70          1           0       -2.205971    0.206919    3.622842
     71          1           0       -2.975018    1.643780    3.823155
     72          1           0       -3.819525    0.092103    3.805241
     73          1           0       -2.181994   -1.720033   -0.570842
     74          1           0       -2.317927    0.063894   -0.530253
     75          1           0       -0.272971    0.185438    0.986527
     76          1           0       -0.444747   -1.539137    1.129652
     77          1           0       -4.564858    5.812782    0.731928
     78          1           0       -5.562376    6.746710    1.771224
     79          1           0       -4.730663    5.386085    2.384030
     80          1           0       -7.706689    7.156769    1.130644
     81          1           0       -9.506098    6.031553   -1.467501
     82          1           0       -9.365197    7.642312   -0.527118
     83          1           0      -12.464949    3.544486   -0.112711
     84          1           0      -12.378727    3.677441   -2.015865
     85          1           0      -13.292215    2.236456   -1.262942
     86          1           0      -12.886230   -1.330689   -1.106702
     87          1           0      -13.631092    0.144835   -1.025621
     88          1           0      -13.235790    0.614391   -3.564292
     89          1           0      -12.012469   -0.997483   -3.657638
     90          1           0      -13.666501   -1.187523   -3.286624
     91          1           0       -9.906935   -4.858908   -0.366173
     92          1           0       -9.394519   -4.529650   -2.090356
     93          1           0       -8.492924   -5.589315   -1.118150
     94          1           0       -3.874526   -3.468996   -0.634062
     95          1           0       -1.959236   -6.213484    2.610388
     96          1           0       -2.431097   -4.385719    3.434679
     97          1           0       -3.330157   -5.853372    3.396091
     98          1           0        2.624679   -1.747066   -1.562311
     99          1           0        2.790545   -0.141882   -2.000644
    100          1           0        4.277444   -0.986560    0.377921
    101          1           0        5.645716    2.200411   -1.924031
    102          1           0        5.483171    0.710008   -3.132668
    103          1           0        3.877680    1.333301   -2.624253
    104          1           0        6.387508    1.338574    0.296016
    105          1           0        6.394829   -0.571143    0.739642
    106          1           0        7.378891   -1.172820   -1.320971
    107          1           0        7.709472    0.664750   -1.875958
    108          1           0        9.061714    0.857590    0.142721
    109          1           0        8.774351   -0.656913    1.012569
    110          1           0       10.075559    0.003857   -1.553864
    111          1           0        9.126335   -2.315826   -1.471142
    112          1           0       10.943903   -2.486536   -1.682541
    113          1           0       10.300761   -2.732629    0.133052
    114          1           0       11.310382    0.956503    0.164216
    115          1           0       11.172806   -0.589720    1.032636
    116          1           0       12.669279   -1.468507   -0.878495
    117          1           0       12.484082   -0.033787   -1.894401
    118          1           0       13.603374    1.034632    0.700213
    119          1           0       13.616769   -0.590008    0.974109
    120          1           0       15.184641    0.295647   -1.459793
    121          1           0       14.855910   -2.181809   -1.159888
    122          1           0       16.314579   -2.087712   -1.024149
    123          1           0       15.634916   -2.206579    0.377082
    124          1           0       15.954510    1.591953    0.858686
    125          1           0       16.456743    0.094141    1.606431
    126          1           0       18.177399   -0.446534   -0.347645
    127          1           0       17.849000    1.044462   -1.260398
    128          1           0       18.305411    2.418485    0.815234
    129          1           0       18.694234    0.858711    1.773266
    130          1           0       20.465254    0.357598   -0.246276
    131          1           0       20.113742    3.250425   -1.353001
    132          1           0       21.011929    2.442034   -1.660975
    133          1           0       19.579103    1.711979   -2.032847
    134          1           0       21.102583    1.490573    1.866406
    135          1           0       22.111069    1.911981    0.563349
    136          1           0       20.748566    3.035471    1.237075
    137          1           0       -7.049731    1.727405    0.245848
    138          1           0       -7.499337   -0.335460   -0.214037
 ---------------------------------------------------------------------

 SCF Done:  E(RB3LYP) =  -2732.96843799     A.U. after   17 cycles

 Excitation energies and oscillator strengths:

 Excited State   1:      Singlet-A      2.0030 eV  618.98 nm  f=0.1899  <S**2>=0.000
     235 -> 237       -0.14141
     235 -> 238       -0.28269
     236 -> 237        0.62430
     236 -> 238       -0.10140
 This state for optimization and/or second-order correction.
 Total Energy, E(TD-HF/TD-KS) =  -2732.89482736
 Copying the excited state density for this state as the 1-particle RhoCI density.

 The electronic state is 1-A.
 Alpha  occ. eigenvalues --  -19.19135 -19.18582 -19.12786 -19.12554 -19.12125
 Alpha  occ. eigenvalues --  -14.37121 -14.36030 -14.32637 -14.29271 -10.32342
 Alpha  occ. eigenvalues --  -10.31403 -10.28045 -10.24851 -10.24392 -10.24326
 Alpha  occ. eigenvalues --  -10.24274 -10.24001 -10.23419 -10.23139 -10.22614
 Alpha  occ. eigenvalues --  -10.22227 -10.22170 -10.22063 -10.21645 -10.21506
 Alpha  occ. eigenvalues --  -10.21440 -10.21370 -10.21357 -10.21314 -10.21237
 Alpha  occ. eigenvalues --  -10.21231 -10.20993 -10.20788 -10.20340 -10.20331
 Alpha  occ. eigenvalues --  -10.20317 -10.20283 -10.20224 -10.20103 -10.20067
 Alpha  occ. eigenvalues --  -10.20014 -10.19949 -10.19943 -10.19876 -10.19705
 Alpha  occ. eigenvalues --  -10.19687 -10.19330 -10.19266 -10.19149 -10.18988
 Alpha  occ. eigenvalues --  -10.18956 -10.18783 -10.18745 -10.18683 -10.18591
 Alpha  occ. eigenvalues --  -10.18296 -10.18165 -10.18155 -10.18137 -10.18093
 Alpha  occ. eigenvalues --  -10.16667 -10.16604 -10.16568 -10.15518  -1.11055
 Alpha  occ. eigenvalues --   -1.10068  -1.05385  -1.00965  -0.98717  -0.96879
 Alpha  occ. eigenvalues --   -0.96152  -0.95485  -0.92272  -0.83909  -0.82888
 Alpha  occ. eigenvalues --   -0.82129  -0.81699  -0.81320  -0.81228  -0.80649
 Alpha  occ. eigenvalues --   -0.80284  -0.79781  -0.79303  -0.78126  -0.77308
 Alpha  occ. eigenvalues --   -0.77025  -0.75787  -0.75395  -0.75031  -0.73839
 Alpha  occ. eigenvalues --   -0.73460  -0.72867  -0.72189  -0.71723  -0.71377
 Alpha  occ. eigenvalues --   -0.70813  -0.70631  -0.69768  -0.68613  -0.68082
 Alpha  occ. eigenvalues --   -0.67638  -0.66768  -0.66472  -0.66138  -0.65422
 Alpha  occ. eigenvalues --   -0.63902  -0.63032  -0.62257  -0.61269  -0.60935
 Alpha  occ. eigenvalues --   -0.60568  -0.59138  -0.58424  -0.57840  -0.57601
 Alpha  occ. eigenvalues --   -0.56877  -0.56621  -0.56264  -0.56071  -0.55486
 Alpha  occ. eigenvalues --   -0.55366  -0.55093  -0.54121  -0.53275  -0.52658
 Alpha  occ. eigenvalues --   -0.52389  -0.51906  -0.51641  -0.51153  -0.50898
 Alpha  occ. eigenvalues --   -0.50135  -0.49010  -0.48779  -0.48706  -0.48501
 Alpha  occ. eigenvalues --   -0.48442  -0.48144  -0.47937  -0.47445  -0.47195
 Alpha  occ. eigenvalues --   -0.47070  -0.46613  -0.46341  -0.46176  -0.45592
 Alpha  occ. eigenvalues --   -0.45449  -0.45421  -0.45104  -0.44772  -0.44712
 Alpha  occ. eigenvalues --   -0.44564  -0.44300  -0.44013  -0.43665  -0.43463
 Alpha  occ. eigenvalues --   -0.43390  -0.43033  -0.42638  -0.42572  -0.42442
 Alpha  occ. eigenvalues --   -0.42244  -0.42118  -0.42009  -0.41508  -0.41393
 Alpha  occ. eigenvalues --   -0.41305  -0.41072  -0.40862  -0.40703  -0.40263
 Alpha  occ. eigenvalues --   -0.40037  -0.39866  -0.39715  -0.39625  -0.39335
 Alpha  occ. eigenvalues --   -0.39273  -0.39108  -0.38875  -0.38276  -0.38081
 Alpha  occ. eigenvalues --   -0.37913  -0.37702  -0.37530  -0.37409  -0.37277
 Alpha  occ. eigenvalues --   -0.37141  -0.37090  -0.37043  -0.36982  -0.36775
 Alpha  occ. eigenvalues --   -0.36500  -0.36472  -0.36102  -0.35980  -0.35747
 Alpha  occ. eigenvalues --   -0.35513  -0.35290  -0.35132  -0.35104  -0.34918
 Alpha  occ. eigenvalues --   -0.34796  -0.34604  -0.34545  -0.34389  -0.33540
 Alpha  occ. eigenvalues --   -0.33303  -0.33221  -0.33000  -0.32533  -0.32070
 Alpha  occ. eigenvalues --   -0.31906  -0.31816  -0.31773  -0.31708  -0.31154
 Alpha  occ. eigenvalues --   -0.30963  -0.30693  -0.30313  -0.30183  -0.30113
 Alpha  occ. eigenvalues --   -0.29536  -0.28802  -0.28683  -0.27901  -0.27872
 Alpha  occ. eigenvalues --   -0.27702  -0.27393  -0.26412  -0.25991  -0.25079
 Alpha  occ. eigenvalues --   -0.24697  -0.24135  -0.23809  -0.22228  -0.19950
 Alpha  occ. eigenvalues --   -0.18431
 Alpha virt. eigenvalues --   -0.10213  -0.07595  -0.04180  -0.02841  -0.01507
 Alpha virt. eigenvalues --   -0.01401  -0.00174   0.00661   0.02128   0.02798
 Alpha virt. eigenvalues --    0.03869   0.04046   0.04136   0.04450   0.04800

 Mulliken charges:
               1
     1  C    0.036508
     2  C   -0.105066
     3  C   -0.034537
     4  C   -0.124091
     5  N   -0.135510
     6  C   -0.066483
     7  C   -0.051076
     8  C   -0.109775
     9  C    0.007579
    10  C    0.260996
    11  C    0.052852
    12  C    0.032757
    13  C    0.161412
    14  O   -0.230076
    15  O   -0.280208
    16  N   -0.086600
    17  C    0.138018
    18  C   -0.195602
    19  C    0.010928
    20  C    0.129442
    21  C    0.227459
    22  C   -0.069063
    23  C   -0.049658
    24  N   -0.252604
    25  C    0.054821
    26  C   -0.136539
    27  C   -0.061590
    28  C    0.133113
    29  C   -0.031251
    30  C    0.049009
    31  C   -0.045762
    32  N   -0.037434
    33  C    0.067039
    34  C   -0.161747
    35  C    0.018159
    36  C    0.062171
    37  C    0.095391
    38  C    0.012292
    39  O   -0.122231
    40  C   -0.056543
    41  C    0.262176
    42  O   -0.290091
    43  O   -0.268682
    44  C    0.181619
    45  C    0.389940
    46  C   -0.122582
    47  C   -0.126212
    48  C    0.005966
    49  C    0.009208
    50  C   -0.101514
    51  C    0.081506
    52  C   -0.054564
    53  C    0.039590
    54  C   -0.061535
    55  C    0.042196
    56  C    0.072988
    57  C    0.028678
    58  C    0.054723
    59  C    0.041189
    60  C   -0.030493
    61  C   -0.049060
    62  C   -0.090654
    63  C    0.141854
    64  C    0.136012
    65  H   -0.003432
    66  H   -0.047766
    67  H    0.019587
    68  H    0.003571
    69  H    0.013110
    70  H   -0.026100
    71  H   -0.036363
    72  H    0.009375
    73  H    0.036066
    74  H   -0.017559
    75  H    0.028767
    76  H    0.014407
    77  H    0.026418
    78  H   -0.018134
    79  H   -0.001560
    80  H    0.044512
    81  H    0.066023
    82  H    0.018776
    83  H    0.044283
    84  H    0.048426
    85  H    0.023301
    86  H   -0.011776
    87  H    0.010693
    88  H    0.040145
    89  H    0.035241
    90  H    0.002656
    91  H    0.033280
    92  H    0.019810
    93  H    0.018038
    94  H    0.084467
    95  H    0.029019
    96  H    0.055426
    97  H    0.006073
    98  H    0.004718
    99  H   -0.033605
   100  H   -0.029815
   101  H    0.050542
   102  H    0.051926
   103  H    0.049397
   104  H    0.016419
   105  H    0.027738
   106  H    0.017051
   107  H   -0.006194
   108  H   -0.026152
   109  H   -0.004337
   110  H   -0.032271
   111  H    0.005903
   112  H    0.031950
   113  H    0.015219
   114  H   -0.003821
   115  H   -0.014711
   116  H   -0.012923
   117  H    0.013547
   118  H   -0.009069
   119  H   -0.065880
   120  H    0.014711
   121  H   -0.022419
   122  H   -0.037216
   123  H   -0.015604
   124  H    0.006017
   125  H    0.008967
   126  H    0.006589
   127  H    0.011721
   128  H    0.002106
   129  H    0.000919
   130  H   -0.003272
   131  H   -0.033856
   132  H   -0.090625
   133  H    0.006486
   134  H   -0.068244
   135  H    0.005681
   136  H    0.002764
   137  H    0.128199
   138  H    0.063903
 Sum of Mulliken charges =   0.00000

 Dipole moment (field-independent basis, Debye):
    X=              2.8018    Y=              3.4811    Z=              0.7524  Tot=              4.5315
 Quadrupole moment (field-independent basis, Debye-Ang):
   XX=           -357.2398   YY=           -373.4590   ZZ=           -395.7358
   XY=            -14.6055   XZ=              4.7127   YZ=             -1.8115

 Normal termination of Gaussian 09 at Sat Aug  3 00:04:07 2019.
