 Gaussian 09, Revision D.01,
 Gaussian 09:  ES64L-G09RevD.01 24-Apr-2013

 --------------------------
 # td=(NStates=1) B3LYP/SVP
 --------------------------

 --
 TD
 --
 Symbolic Z-matrix:
 Charge =  0 Multiplicity = 1

                         Standard orientation:
 ---------------------------------------------------------------------
 Center     Atomic      Atomic             Coordinates (Angstroms)
 Number     Number       Type             X           Y           Z
 ---------------------------------------------------------------------
      1          6           0       -5.040639   -1.888228    0.489976
      2          6           0       -4.866557    2.780375    1.269627
      3          6           0       -9.513722    3.193545   -0.215302
      4          6           0       -9.830712   -1.652536   -0.904751
      5          7           0       -5.275542    0.530424    0.816345
      6          6           0       -4.507216   -0.626382    0.832301
      7          6           0       -3.035034   -0.396885    1.294671
      8          6           0       -3.161977    1.029298    1.827033
      9          6           0       -4.512522    1.435711    1.282510
     10          6           0       -3.105030    1.085330    3.405326
     11          6           0       -2.046974   -0.625170    0.147826
     12          6           0       -0.504490   -0.484142    0.633885
     13          6           0        0.391892   -0.923364   -0.518861
     14          8           0        0.083579   -1.549778   -1.442493
     15          8           0        1.599700   -0.574753   -0.175859
     16          7           0       -7.151548    2.738237    0.423977
     17          6           0       -6.004136    3.356405    0.872327
     18          6           0       -6.413212    4.807254    0.971618
     19          6           0       -7.672139    4.944965    0.525497
     20          6           0       -8.235097    3.638417    0.174922
     21          6           0       -5.467455    5.971280    1.403244
     22          6           0       -8.314499    6.220398    0.285031
     23          6           0       -9.315495    6.402204   -0.610791
     24          7           0       -9.292434    0.691411   -0.443296
     25          6           0       -9.944321    1.958964   -0.534982
     26          6           0      -11.386340    1.662616   -0.921353
     27          6           0      -11.474348    0.279244   -1.281265
     28          6           0      -10.143356   -0.243460   -0.880132
     29          6           0      -12.344331    2.772748   -1.209751
     30          6           0      -12.686208   -0.579314   -1.731291
     31          6           0      -12.548948   -0.671056   -3.317822
     32          7           0       -7.550454   -1.229468   -0.133244
     33          6           0       -8.581533   -2.166525   -0.509813
     34          6           0       -8.120301   -3.503999   -0.511109
     35          6           0       -6.832422   -3.400128   -0.156162
     36          6           0       -6.424991   -2.011036    0.144275
     37          6           0       -8.695788   -4.804932   -0.885065
     38          6           0       -5.634626   -4.318188    0.018485
     39          8           0       -5.375629   -5.485362   -0.205014
     40          6           0       -4.430557   -3.305179    0.501684
     41          6           0       -3.847193   -3.691993    1.777849
     42          8           0       -4.031212   -3.219627    2.944297
     43          8           0       -2.972176   -4.676810    1.698214
     44          6           0       -2.402592   -5.226529    2.942159
     45          6           0        2.631097   -0.869594   -1.150063
     46          6           0        3.887415   -0.606628   -0.525898
     47          6           0        4.938001    0.113983   -1.058338
     48          6           0        4.871074    0.800291   -2.369237
     49          6           0        6.260153    0.214433   -0.418996
     50          6           0        7.563623   -0.297446   -1.149984
     51          6           0        8.788992   -0.198202   -0.235679
     52          6           0        9.985904   -0.692498   -0.915462
     53          6           0       10.087193   -2.221836   -1.195354
     54          6           0       11.294579   -0.187166   -0.082886
     55          6           0       12.655470   -0.430356   -0.661653
     56          6           0       13.877184    0.207251    0.176708
     57          6           0       15.242474   -0.151446   -0.396058
     58          6           0       15.553201   -1.667097   -0.522327
     59          6           0       16.368872    0.643544    0.416180
     60          6           0       17.690978    0.637736   -0.163414
     61          6           0       18.676425    1.603148    0.700239
     62          6           0       20.190560    1.490286    0.243985
     63          6           0       20.416906    1.896349   -1.238561
     64          6           0       21.113431    2.246432    1.159190
     65          1           0       -4.141365    3.484532    1.746020
     66          1           0      -10.333118    4.073420   -0.307291
     67          1           0      -10.557623   -2.285545   -1.378492
     68          1           0       -2.668654   -1.153560    1.987456
     69          1           0       -2.342113    1.697719    1.423562
     70          1           0       -2.148383    0.705093    3.589655
     71          1           0       -3.330871    2.036296    3.761645
     72          1           0       -3.876151    0.522341    3.948653
     73          1           0       -2.209646   -1.684288   -0.339785
     74          1           0       -2.264050    0.020498   -0.570602
     75          1           0       -0.277127    0.645078    0.958476
     76          1           0       -0.326805   -1.146101    1.578402
     77          1           0       -4.358609    6.055195    0.915172
     78          1           0       -6.019124    6.905573    1.403311
     79          1           0       -5.393932    5.563519    2.390995
     80          1           0       -7.986538    7.196638    0.753071
     81          1           0       -9.611488    5.844990   -1.530081
     82          1           0       -9.848258    7.381619   -0.719071
     83          1           0      -12.710675    3.402647   -0.287001
     84          1           0      -11.975894    3.350363   -2.183590
     85          1           0      -13.220821    2.188761   -1.449035
     86          1           0      -12.690934   -1.728092   -1.433265
     87          1           0      -13.513093    0.048223   -1.277310
     88          1           0      -12.066935    0.525983   -3.393429
     89          1           0      -11.783352   -1.282334   -3.656588
     90          1           0      -13.521015   -0.986582   -4.051148
     91          1           0       -9.788652   -4.759201   -0.215421
     92          1           0       -9.197877   -4.806415   -1.901079
     93          1           0       -8.084463   -5.755769   -0.591088
     94          1           0       -3.623972   -3.438298   -0.352979
     95          1           0       -1.441342   -6.096349    2.690259
     96          1           0       -1.833802   -4.309040    3.342689
     97          1           0       -3.090857   -5.630045    3.420671
     98          1           0        2.610019   -1.903611   -1.308056
     99          1           0        2.588519   -0.281787   -2.098521
    100          1           0        4.076428   -1.315195    0.367303
    101          1           0        5.228676    1.714664   -2.054228
    102          1           0        5.632546    0.089318   -3.150678
    103          1           0        3.901125    0.692153   -2.787996
    104          1           0        6.350735    1.284246   -0.144477
    105          1           0        6.199075   -0.238550    0.710054
    106          1           0        7.256555   -1.285722   -1.664204
    107          1           0        7.868483    0.254096   -2.046070
    108          1           0        8.861302    0.917621    0.146011
    109          1           0        8.581973   -0.659213    0.818502
    110          1           0       10.166947   -0.069791   -1.875175
    111          1           0        9.101257   -2.641434   -1.788839
    112          1           0       10.948023   -2.604075   -1.681696
    113          1           0       10.064827   -2.674140   -0.236690
    114          1           0       11.077186    1.001716    0.105263
    115          1           0       11.384888   -0.635266    0.970909
    116          1           0       12.941440   -1.537409   -0.440371
    117          1           0       12.658726   -0.365593   -1.858701
    118          1           0       13.842035    1.397086    0.241433
    119          1           0       13.941356   -0.205111    1.369720
    120          1           0       15.401564    0.326232   -1.593238
    121          1           0       14.908503   -2.190511   -0.989967
    122          1           0       16.496384   -1.845918   -0.952740
    123          1           0       15.525809   -2.057186    0.409819
    124          1           0       15.924539    1.771130    0.727950
    125          1           0       16.570038    0.123715    1.442772
    126          1           0       18.248548   -0.560579   -0.235834
    127          1           0       18.020074    1.163491   -1.106934
    128          1           0       18.402886    2.692060    0.672723
    129          1           0       18.609932    1.183511    1.636825
    130          1           0       20.296850    0.499705    0.343895
    131          1           0       19.999492    2.855850   -1.251580
    132          1           0       21.374510    1.964424   -1.593098
    133          1           0       19.853496    1.142130   -1.967037
    134          1           0       20.679843    2.249765    2.237098
    135          1           0       22.216682    1.869561    0.812691
    136          1           0       21.019527    3.362320    1.012119
    137          1           0       -7.091707    1.736624   -0.014597
    138          1           0       -7.689782   -0.176161   -0.001899
 ---------------------------------------------------------------------

 SCF Done:  E(RB3LYP) =  -2732.96646205     A.U. after   17 cycles

 Excitation energies and oscillator strengths:

 Excited State   1:      Singlet-A      2.0527 eV  603.99 nm  f=0.1988  <S**2>=0.000
     235 -> 237       -0.11745
     235 -> 238        0.25962
     236 -> 237        0.63021
     236 -> 238        0.14302
 This state for optimization and/or second-order correction.
 Total Energy, E(TD-HF/TD-KS) =  -2732.89102537
 Copying the excited state density for this state as the 1-particle RhoCI density.

 The electronic state is 1-A.
 Alpha  occ. eigenvalues --  -19.17486 -19.16928 -19.13533 -19.12379 -19.10274
 Alpha  occ. eigenvalues --  -14.36949 -14.36913 -14.32539 -14.29998 -10.30975
 Alpha  occ. eigenvalues --  -10.30666 -10.29290 -10.25544 -10.24100 -10.24090
 Alpha  occ. eigenvalues --  -10.23985 -10.23656 -10.23646 -10.23402 -10.22320
 Alpha  occ. eigenvalues --  -10.22201 -10.22160 -10.21585 -10.21510 -10.21303
 Alpha  occ. eigenvalues --  -10.21276 -10.21196 -10.21130 -10.21017 -10.20958
 Alpha  occ. eigenvalues --  -10.20898 -10.20890 -10.20761 -10.20595 -10.20511
 Alpha  occ. eigenvalues --  -10.20430 -10.20398 -10.20344 -10.20286 -10.20273
 Alpha  occ. eigenvalues --  -10.20247 -10.20165 -10.20161 -10.20150 -10.20042
 Alpha  occ. eigenvalues --  -10.20024 -10.19997 -10.19996 -10.19919 -10.19771
 Alpha  occ. eigenvalues --  -10.19501 -10.19412 -10.19410 -10.19383 -10.19370
 Alpha  occ. eigenvalues --  -10.19039 -10.18940 -10.18693 -10.18447 -10.17957
 Alpha  occ. eigenvalues --  -10.17866 -10.17638 -10.17387 -10.15489  -1.11738
 Alpha  occ. eigenvalues --   -1.08536  -1.03304  -1.03004  -0.96969  -0.96082
 Alpha  occ. eigenvalues --   -0.95905  -0.95643  -0.91583  -0.83510  -0.83434
 Alpha  occ. eigenvalues --   -0.81897  -0.81564  -0.81430  -0.81086  -0.80793
 Alpha  occ. eigenvalues --   -0.80275  -0.79606  -0.78511  -0.78212  -0.78089
 Alpha  occ. eigenvalues --   -0.76502  -0.75903  -0.75373  -0.74921  -0.73986
 Alpha  occ. eigenvalues --   -0.73494  -0.73434  -0.72203  -0.71846  -0.70216
 Alpha  occ. eigenvalues --   -0.69925  -0.69012  -0.68364  -0.68209  -0.67996
 Alpha  occ. eigenvalues --   -0.67424  -0.66676  -0.66048  -0.65676  -0.65142
 Alpha  occ. eigenvalues --   -0.64188  -0.63255  -0.61757  -0.60943  -0.60634
 Alpha  occ. eigenvalues --   -0.60204  -0.58685  -0.58425  -0.57485  -0.56983
 Alpha  occ. eigenvalues --   -0.56473  -0.56412  -0.55504  -0.55182  -0.54704
 Alpha  occ. eigenvalues --   -0.54521  -0.54321  -0.53393  -0.53311  -0.52640
 Alpha  occ. eigenvalues --   -0.52202  -0.51979  -0.51106  -0.50810  -0.50466
 Alpha  occ. eigenvalues --   -0.49801  -0.49138  -0.48908  -0.48467  -0.47965
 Alpha  occ. eigenvalues --   -0.47747  -0.47614  -0.47355  -0.47331  -0.47088
 Alpha  occ. eigenvalues --   -0.46261  -0.46082  -0.45785  -0.45671  -0.45516
 Alpha  occ. eigenvalues --   -0.45378  -0.45122  -0.44550  -0.44530  -0.44227
 Alpha  occ. eigenvalues --   -0.44114  -0.43869  -0.43556  -0.43498  -0.43285
 Alpha  occ. eigenvalues --   -0.43207  -0.43023  -0.42880  -0.42417  -0.42305
 Alpha  occ. eigenvalues --   -0.42263  -0.41899  -0.41684  -0.41542  -0.41492
 Alpha  occ. eigenvalues --   -0.41285  -0.41056  -0.40614  -0.40420  -0.40383
 Alpha  occ. eigenvalues --   -0.40130  -0.40029  -0.39839  -0.39493  -0.39167
 Alpha  occ. eigenvalues --   -0.38748  -0.38427  -0.38338  -0.38313  -0.38137
 Alpha  occ. eigenvalues --   -0.38088  -0.37762  -0.37682  -0.37590  -0.37407
 Alpha  occ. eigenvalues --   -0.37302  -0.37220  -0.37166  -0.37048  -0.36898
 Alpha  occ. eigenvalues --   -0.36779  -0.36624  -0.36509  -0.36205  -0.35784
 Alpha  occ. eigenvalues --   -0.35639  -0.35522  -0.35087  -0.34954  -0.34798
 Alpha  occ. eigenvalues --   -0.34687  -0.34657  -0.34488  -0.33940  -0.33790
 Alpha  occ. eigenvalues --   -0.33470  -0.32669  -0.32531  -0.32308  -0.32164
 Alpha  occ. eigenvalues --   -0.32039  -0.31870  -0.31429  -0.31311  -0.31045
 Alpha  occ. eigenvalues --   -0.30973  -0.30680  -0.30516  -0.30274  -0.29783
 Alpha  occ. eigenvalues --   -0.29540  -0.29103  -0.28842  -0.28061  -0.27676
 Alpha  occ. eigenvalues --   -0.27208  -0.26641  -0.26233  -0.26026  -0.25653
 Alpha  occ. eigenvalues --   -0.25175  -0.24093  -0.23502  -0.22178  -0.20333
 Alpha  occ. eigenvalues --   -0.18156
 Alpha virt. eigenvalues --   -0.09789  -0.07679  -0.04606  -0.02357  -0.00801
 Alpha virt. eigenvalues --   -0.00751   0.00183   0.00988   0.02010   0.03412
 Alpha virt. eigenvalues --    0.03473   0.03814   0.03940   0.04100   0.04338

 Mulliken charges:
               1
     1  C   -0.021809
     2  C   -0.095660
     3  C   -0.114120
     4  C   -0.079521
     5  N   -0.123150
     6  C   -0.033159
     7  C   -0.008435
     8  C   -0.050515
     9  C   -0.021844
    10  C    0.131532
    11  C    0.067714
    12  C   -0.062658
    13  C    0.154328
    14  O   -0.182414
    15  O   -0.287594
    16  N   -0.156721
    17  C    0.122323
    18  C   -0.158340
    19  C    0.102821
    20  C    0.077142
    21  C    0.080735
    22  C   -0.055036
    23  C   -0.095722
    24  N   -0.272062
    25  C    0.109458
    26  C   -0.175183
    27  C   -0.123750
    28  C    0.055986
    29  C    0.056165
    30  C    0.040501
    31  C   -0.078375
    32  N   -0.134146
    33  C    0.127668
    34  C   -0.088909
    35  C   -0.069640
    36  C    0.130830
    37  C    0.009064
    38  C    0.124247
    39  O   -0.156400
    40  C   -0.084520
    41  C    0.219065
    42  O   -0.307000
    43  O   -0.298054
    44  C    0.219375
    45  C    0.325952
    46  C   -0.126899
    47  C   -0.185358
    48  C    0.112209
    49  C    0.031375
    50  C    0.013952
    51  C   -0.004606
    52  C   -0.053483
    53  C    0.046082
    54  C   -0.040356
    55  C   -0.002507
    56  C   -0.038878
    57  C   -0.132862
    58  C    0.196720
    59  C    0.016104
    60  C   -0.079284
    61  C    0.000204
    62  C   -0.045470
    63  C    0.048234
    64  C    0.006914
    65  H   -0.025359
    66  H    0.032854
    67  H   -0.036933
    68  H   -0.001224
    69  H    0.002542
    70  H    0.006483
    71  H   -0.015636
    72  H    0.022044
    73  H    0.037879
    74  H   -0.043264
    75  H    0.049292
    76  H    0.051148
    77  H    0.061367
    78  H    0.012697
    79  H    0.031177
    80  H    0.019094
    81  H    0.042256
    82  H    0.019211
    83  H    0.044063
    84  H    0.057908
    85  H   -0.009926
    86  H    0.032998
    87  H    0.039897
    88  H    0.039511
    89  H    0.011211
    90  H    0.040271
    91  H    0.030521
    92  H    0.041091
    93  H    0.084161
    94  H    0.092495
    95  H    0.050358
    96  H    0.053454
    97  H   -0.013212
    98  H    0.002129
    99  H    0.015102
   100  H    0.002014
   101  H    0.012996
   102  H    0.051147
   103  H   -0.007202
   104  H    0.004699
   105  H    0.008367
   106  H    0.020210
   107  H   -0.005859
   108  H    0.008534
   109  H    0.002091
   110  H    0.004295
   111  H    0.021817
   112  H    0.011965
   113  H   -0.004427
   114  H    0.007929
   115  H    0.001067
   116  H    0.012225
   117  H    0.024223
   118  H    0.019731
   119  H    0.021570
   120  H    0.005304
   121  H   -0.051177
   122  H   -0.007740
   123  H   -0.039815
   124  H    0.024086
   125  H    0.004891
   126  H    0.023639
   127  H    0.011448
   128  H    0.008554
   129  H   -0.028591
   130  H   -0.044506
   131  H   -0.010894
   132  H   -0.016294
   133  H    0.027797
   134  H    0.013477
   135  H    0.038889
   136  H   -0.001895
   137  H    0.190275
   138  H    0.175234
 Sum of Mulliken charges =   0.00000

 Dipole moment (field-independent basis, Debye):
    X=              4.0257    Y=              3.6445    Z=             -0.1810  Tot=              5.4334
 Quadrupole moment (field-independent basis, Debye-Ang):
   XX=           -366.4974   YY=           -379.3020   ZZ=           -398.7189
   XY=            -21.6208   XZ=              9.2917   YZ=             -0.0570

 Normal termination of Gaussian 09 at Thu Jul 25 21:55:41 2019.
