 Gaussian 09, Revision D.01,
 Gaussian 09:  ES64L-G09RevD.01 24-Apr-2013

 --------------------------
 # td=(NStates=1) B3LYP/SVP
 --------------------------

 --
 TD
 --
 Symbolic Z-matrix:
 Charge =  0 Multiplicity = 1

                         Standard orientation:
 ---------------------------------------------------------------------
 Center     Atomic      Atomic             Coordinates (Angstroms)
 Number     Number       Type             X           Y           Z
 ---------------------------------------------------------------------
      1          6           0       -5.162271   -2.003091    0.443039
      2          6           0       -4.710869    2.688560    1.658355
      3          6           0       -9.166742    3.466411   -0.271685
      4          6           0       -9.863698   -1.114057   -1.113031
      5          7           0       -5.208760    0.341565    0.882652
      6          6           0       -4.565302   -0.820976    0.778524
      7          6           0       -3.128745   -0.766039    1.235359
      8          6           0       -3.057690    0.633951    1.821255
      9          6           0       -4.452128    1.250545    1.432869
     10          6           0       -3.035793    0.474416    3.364954
     11          6           0       -2.168612   -0.924681    0.050016
     12          6           0       -0.678837   -1.010603    0.475259
     13          6           0        0.355949   -1.090270   -0.546539
     14          8           0        0.194110   -1.638758   -1.657167
     15          8           0        1.606721   -0.786916   -0.244499
     16          7           0       -6.930337    2.815422    0.582593
     17          6           0       -5.846326    3.324661    1.173970
     18          6           0       -5.997437    4.718333    1.105626
     19          6           0       -7.280448    4.965339    0.667945
     20          6           0       -7.892078    3.672651    0.239398
     21          6           0       -5.085073    5.681985    1.696857
     22          6           0       -7.756083    6.412093    0.506492
     23          6           0       -8.591558    6.879436   -0.425762
     24          7           0       -9.094859    1.072354   -0.508648
     25          6           0       -9.836992    2.261478   -0.581731
     26          6           0      -11.161195    2.122447   -0.956086
     27          6           0      -11.299778    0.856905   -1.277012
     28          6           0      -10.105205    0.232417   -0.845297
     29          6           0      -12.160883    3.234019   -1.134656
     30          6           0      -12.605443    0.125605   -1.789464
     31          6           0      -12.633395   -0.098507   -3.313212
     32          7           0       -7.549146   -1.193658   -0.233225
     33          6           0       -8.631585   -1.853699   -0.729369
     34          6           0       -8.260453   -3.246069   -0.771401
     35          6           0       -7.005667   -3.333956   -0.354226
     36          6           0       -6.459508   -2.043801    0.010873
     37          6           0       -9.131748   -4.429175   -1.249671
     38          6           0       -6.049081   -4.357883   -0.019810
     39          8           0       -6.036343   -5.516913    0.022072
     40          6           0       -4.743210   -3.471376    0.458749
     41          6           0       -4.160500   -3.939810    1.762392
     42          8           0       -4.414241   -3.544855    2.863520
     43          8           0       -3.382593   -5.100762    1.557955
     44          6           0       -3.039576   -5.689615    2.814954
     45          6           0        2.727599   -1.140515   -1.168091
     46          6           0        4.059585   -0.859532   -0.631089
     47          6           0        5.011146   -0.039671   -1.032111
     48          6           0        4.890724    0.608857   -2.291659
     49          6           0        6.273012    0.073516   -0.325576
     50          6           0        7.571044   -0.250412   -1.162034
     51          6           0        8.848845   -0.313330   -0.246298
     52          6           0       10.131872   -0.802085   -0.906401
     53          6           0        9.982174   -2.384239   -1.103083
     54          6           0       11.274601   -0.467893    0.077354
     55          6           0       12.631738   -0.636616   -0.733247
     56          6           0       13.855343   -0.063877    0.058945
     57          6           0       15.309615   -0.083220   -0.405398
     58          6           0       15.676046   -1.637395   -0.865734
     59          6           0       16.304853    0.579194    0.482462
     60          6           0       17.682559    0.944732   -0.244886
     61          6           0       18.647167    1.747905    0.674258
     62          6           0       20.110646    1.689001    0.211340
     63          6           0       20.222280    2.565845   -1.002277
     64          6           0       21.083594    2.224064    1.303448
     65          1           0       -4.102863    3.429285    2.075283
     66          1           0       -9.851574    4.052630   -0.280974
     67          1           0      -10.922992   -1.630543   -1.303607
     68          1           0       -2.919477   -1.653773    2.093415
     69          1           0       -2.260352    1.532934    1.769052
     70          1           0       -2.221420   -0.224844    3.869267
     71          1           0       -2.789163    1.699094    3.857648
     72          1           0       -4.138518    0.148315    3.861431
     73          1           0       -2.367799   -1.636585   -0.558029
     74          1           0       -2.024646   -0.051939   -0.730111
     75          1           0       -0.402518   -0.174829    1.448835
     76          1           0       -0.737766   -2.072603    1.045980
     77          1           0       -3.994777    5.685802    1.064486
     78          1           0       -5.271838    6.664244    1.511576
     79          1           0       -4.682240    5.555708    2.694243
     80          1           0       -7.384487    7.143272    1.099303
     81          1           0       -9.023030    6.106692   -1.187042
     82          1           0       -9.053740    7.787141   -0.437017
     83          1           0      -12.455534    3.680817   -0.024373
     84          1           0      -11.802002    3.976163   -1.723774
     85          1           0      -13.275455    3.110146   -1.534059
     86          1           0      -12.796985   -0.875365   -1.026466
     87          1           0      -13.501362    0.863057   -1.575983
     88          1           0      -12.861927    0.799025   -3.872455
     89          1           0      -11.750687   -0.660529   -3.864758
     90          1           0      -13.364353   -0.663544   -3.539385
     91          1           0       -9.833402   -4.770708   -0.361410
     92          1           0       -9.905187   -4.326063   -2.126946
     93          1           0       -8.447624   -5.263838   -1.494700
     94          1           0       -3.978554   -3.689064   -0.309255
     95          1           0       -2.393862   -6.685448    2.685755
     96          1           0       -2.484634   -4.898505    3.422025
     97          1           0       -3.902341   -5.964446    3.376856
     98          1           0        2.591793   -2.264885   -1.384194
     99          1           0        2.644923   -0.675104   -2.015014
    100          1           0        4.253017   -1.230035    0.485218
    101          1           0        5.211915    1.616941   -2.099049
    102          1           0        5.498764    0.387175   -3.276442
    103          1           0        4.011475    0.630034   -2.666316
    104          1           0        6.562801    1.142954   -0.012609
    105          1           0        6.431205   -0.563583    0.710441
    106          1           0        7.514331   -1.462064   -1.529138
    107          1           0        7.697332    0.411856   -2.073779
    108          1           0        9.046877    0.762631    0.100031
    109          1           0        8.492884   -0.828175    0.690382
    110          1           0       10.387562   -0.223222   -1.788851
    111          1           0        9.275191   -2.398237   -1.936836
    112          1           0       10.929355   -2.974002   -1.335218
    113          1           0        9.863456   -2.802705   -0.063973
    114          1           0       11.022431    0.595243    0.470546
    115          1           0       11.234527   -1.262596    0.952430
    116          1           0       12.735945   -1.598536   -1.053747
    117          1           0       12.535058    0.073703   -1.543072
    118          1           0       13.627504    1.003986    0.453871
    119          1           0       13.874407   -0.737233    1.060692
    120          1           0       15.434369    0.461797   -1.294768
    121          1           0       14.768839   -1.851310   -1.544852
    122          1           0       16.684485   -1.848394   -1.393420
    123          1           0       15.406914   -2.127289    0.131930
    124          1           0       15.773675    1.488506    0.890912
    125          1           0       16.496380    0.094074    1.506902
    126          1           0       18.236430   -0.025113   -0.654624
    127          1           0       17.360913    1.505508   -1.064515
    128          1           0       18.174184    2.775212    0.734075
    129          1           0       18.472205    1.255147    1.666893
    130          1           0       20.357857    0.694458   -0.051258
    131          1           0       20.351635    3.758485   -0.895262
    132          1           0       21.160011    2.339122   -1.252538
    133          1           0       19.731042    2.081741   -1.804727
    134          1           0       21.202583    1.455243    2.210175
    135          1           0       22.074384    2.659319    0.807769
    136          1           0       20.430601    3.158630    2.083085
    137          1           0       -7.142953    1.827025    0.669260
    138          1           0       -7.331609   -0.214000   -0.261021
 ---------------------------------------------------------------------

 SCF Done:  E(RB3LYP) =  -2732.89491236     A.U. after   17 cycles

 Excitation energies and oscillator strengths:

 Excited State   1:      Singlet-A      2.1078 eV  588.23 nm  f=0.1437  <S**2>=0.000
     235 -> 238       -0.32927
     236 -> 237        0.61848
 This state for optimization and/or second-order correction.
 Total Energy, E(TD-HF/TD-KS) =  -2732.81745366
 Copying the excited state density for this state as the 1-particle RhoCI density.

 The electronic state is 1-A.
 Alpha  occ. eigenvalues --  -19.16939 -19.16845 -19.13402 -19.13057 -19.10255
 Alpha  occ. eigenvalues --  -14.37211 -14.37093 -14.32940 -14.29555 -10.31471
 Alpha  occ. eigenvalues --  -10.31004 -10.28342 -10.24441 -10.24402 -10.24351
 Alpha  occ. eigenvalues --  -10.24335 -10.24106 -10.23193 -10.23175 -10.23157
 Alpha  occ. eigenvalues --  -10.22852 -10.22606 -10.22475 -10.21955 -10.21614
 Alpha  occ. eigenvalues --  -10.21505 -10.21376 -10.21315 -10.21208 -10.21040
 Alpha  occ. eigenvalues --  -10.20988 -10.20811 -10.20790 -10.20753 -10.20703
 Alpha  occ. eigenvalues --  -10.20361 -10.20261 -10.20238 -10.20003 -10.19949
 Alpha  occ. eigenvalues --  -10.19817 -10.19652 -10.19616 -10.19504 -10.19488
 Alpha  occ. eigenvalues --  -10.19278 -10.19245 -10.19245 -10.19068 -10.19059
 Alpha  occ. eigenvalues --  -10.18884 -10.18857 -10.18554 -10.18491 -10.18465
 Alpha  occ. eigenvalues --  -10.18444 -10.18337 -10.18270 -10.18246 -10.18136
 Alpha  occ. eigenvalues --  -10.18087 -10.18017 -10.17843 -10.16856  -1.08503
 Alpha  occ. eigenvalues --   -1.08377  -1.06579  -1.00517  -1.00383  -0.98490
 Alpha  occ. eigenvalues --   -0.96899  -0.96653  -0.94648  -0.85382  -0.84385
 Alpha  occ. eigenvalues --   -0.82579  -0.81694  -0.81577  -0.81255  -0.81108
 Alpha  occ. eigenvalues --   -0.80850  -0.79963  -0.79617  -0.78831  -0.77565
 Alpha  occ. eigenvalues --   -0.76708  -0.76050  -0.75618  -0.75036  -0.74872
 Alpha  occ. eigenvalues --   -0.73918  -0.73319  -0.72753  -0.71441  -0.71199
 Alpha  occ. eigenvalues --   -0.69982  -0.69866  -0.68819  -0.67948  -0.67649
 Alpha  occ. eigenvalues --   -0.67060  -0.67006  -0.66222  -0.65470  -0.65093
 Alpha  occ. eigenvalues --   -0.64150  -0.63156  -0.62455  -0.62262  -0.61715
 Alpha  occ. eigenvalues --   -0.61075  -0.59128  -0.58578  -0.58112  -0.57071
 Alpha  occ. eigenvalues --   -0.56711  -0.56524  -0.55998  -0.55820  -0.55732
 Alpha  occ. eigenvalues --   -0.55410  -0.55038  -0.54334  -0.54150  -0.53387
 Alpha  occ. eigenvalues --   -0.53151  -0.52651  -0.51749  -0.51414  -0.50540
 Alpha  occ. eigenvalues --   -0.49971  -0.49859  -0.48994  -0.48520  -0.48264
 Alpha  occ. eigenvalues --   -0.47896  -0.47573  -0.47206  -0.47057  -0.46880
 Alpha  occ. eigenvalues --   -0.46765  -0.46507  -0.45964  -0.45924  -0.45713
 Alpha  occ. eigenvalues --   -0.45509  -0.45083  -0.44925  -0.44808  -0.44722
 Alpha  occ. eigenvalues --   -0.44580  -0.44511  -0.44341  -0.44180  -0.43900
 Alpha  occ. eigenvalues --   -0.43782  -0.43471  -0.43126  -0.42826  -0.42801
 Alpha  occ. eigenvalues --   -0.42672  -0.42345  -0.42176  -0.42031  -0.41875
 Alpha  occ. eigenvalues --   -0.41351  -0.41231  -0.40942  -0.40654  -0.40596
 Alpha  occ. eigenvalues --   -0.40270  -0.40161  -0.40088  -0.39661  -0.39489
 Alpha  occ. eigenvalues --   -0.39296  -0.39108  -0.38928  -0.38513  -0.38254
 Alpha  occ. eigenvalues --   -0.38072  -0.37896  -0.37653  -0.37341  -0.37217
 Alpha  occ. eigenvalues --   -0.36926  -0.36856  -0.36705  -0.36559  -0.36070
 Alpha  occ. eigenvalues --   -0.35852  -0.35802  -0.35409  -0.35267  -0.35245
 Alpha  occ. eigenvalues --   -0.34974  -0.34934  -0.34775  -0.34579  -0.34364
 Alpha  occ. eigenvalues --   -0.34333  -0.34270  -0.33739  -0.33635  -0.33402
 Alpha  occ. eigenvalues --   -0.33318  -0.33282  -0.33120  -0.32390  -0.32280
 Alpha  occ. eigenvalues --   -0.31985  -0.31948  -0.31525  -0.31165  -0.31014
 Alpha  occ. eigenvalues --   -0.30961  -0.30457  -0.30236  -0.29972  -0.29834
 Alpha  occ. eigenvalues --   -0.29285  -0.29070  -0.29034  -0.28672  -0.28409
 Alpha  occ. eigenvalues --   -0.28090  -0.27580  -0.27173  -0.26717  -0.26211
 Alpha  occ. eigenvalues --   -0.25545  -0.24872  -0.24285  -0.23831  -0.20062
 Alpha  occ. eigenvalues --   -0.19202
 Alpha virt. eigenvalues --   -0.10183  -0.08008  -0.04469  -0.01620  -0.01402
 Alpha virt. eigenvalues --   -0.00798  -0.00482   0.00623   0.01886   0.03058
 Alpha virt. eigenvalues --    0.03689   0.04005   0.04254   0.04370   0.04831

 Mulliken charges:
               1
     1  C    0.073878
     2  C   -0.003459
     3  C    0.086600
     4  C   -0.069035
     5  N   -0.107523
     6  C   -0.119335
     7  C   -0.052983
     8  C   -0.076193
     9  C    0.043031
    10  C   -0.112519
    11  C    0.137280
    12  C   -0.075554
    13  C    0.210997
    14  O   -0.298532
    15  O   -0.312720
    16  N    0.028134
    17  C    0.010518
    18  C   -0.095067
    19  C    0.016236
    20  C    0.129485
    21  C    0.095052
    22  C   -0.010281
    23  C   -0.018581
    24  N   -0.253579
    25  C   -0.038924
    26  C   -0.048360
    27  C   -0.062038
    28  C    0.017355
    29  C    0.043791
    30  C   -0.066129
    31  C    0.097451
    32  N   -0.035306
    33  C    0.063467
    34  C   -0.128040
    35  C   -0.003827
    36  C    0.049865
    37  C    0.025763
    38  C    0.084204
    39  O   -0.087211
    40  C   -0.049309
    41  C    0.184107
    42  O   -0.209588
    43  O   -0.334405
    44  C    0.166065
    45  C    0.401839
    46  C   -0.159567
    47  C   -0.050682
    48  C    0.149627
    49  C    0.018624
    50  C   -0.082109
    51  C    0.004701
    52  C   -0.057419
    53  C    0.020541
    54  C   -0.045196
    55  C    0.117450
    56  C   -0.056681
    57  C   -0.000440
    58  C   -0.045918
    59  C    0.000444
    60  C   -0.009678
    61  C    0.047464
    62  C   -0.065731
    63  C    0.108573
    64  C   -0.087803
    65  H   -0.062534
    66  H   -0.186791
    67  H    0.020780
    68  H    0.074977
    69  H    0.040859
    70  H    0.053931
    71  H    0.012022
    72  H    0.057842
    73  H   -0.056330
    74  H    0.019257
    75  H    0.056662
    76  H    0.059948
    77  H    0.012471
    78  H   -0.019222
    79  H    0.036223
    80  H   -0.036472
    81  H    0.032429
    82  H   -0.001620
    83  H    0.035473
    84  H    0.006967
    85  H    0.030558
    86  H    0.049221
    87  H    0.021367
    88  H    0.006709
    89  H    0.027847
    90  H   -0.048847
    91  H    0.044206
    92  H    0.040397
    93  H    0.041228
    94  H    0.051036
    95  H    0.046630
    96  H    0.026708
    97  H    0.019222
    98  H    0.035547
    99  H   -0.059542
   100  H    0.002293
   101  H   -0.008142
   102  H    0.035174
   103  H   -0.066219
   104  H    0.012238
   105  H    0.023248
   106  H    0.017430
   107  H    0.021571
   108  H   -0.010546
   109  H   -0.000307
   110  H   -0.013175
   111  H    0.036472
   112  H    0.010638
   113  H    0.016103
   114  H    0.011442
   115  H    0.006362
   116  H   -0.017055
   117  H   -0.011901
   118  H    0.005375
   119  H   -0.003717
   120  H   -0.034658
   121  H    0.018935
   122  H    0.043918
   123  H    0.016347
   124  H   -0.016219
   125  H   -0.010897
   126  H    0.009499
   127  H   -0.010998
   128  H    0.003616
   129  H   -0.008337
   130  H   -0.014434
   131  H    0.035723
   132  H   -0.053896
   133  H   -0.013700
   134  H    0.033529
   135  H    0.042102
   136  H    0.016697
   137  H    0.142927
   138  H    0.140582
 Sum of Mulliken charges =   0.00000

 Dipole moment (field-independent basis, Debye):
    X=              0.5340    Y=              4.8790    Z=             -0.5060  Tot=              4.9342
 Quadrupole moment (field-independent basis, Debye-Ang):
   XX=           -327.4937   YY=           -387.2034   ZZ=           -395.8193
   XY=            -23.8778   XZ=              0.8533   YZ=             -1.4164

 Normal termination of Gaussian 09 at Fri Jul 26 16:33:54 2019.
