 Gaussian 09, Revision D.01,
 Gaussian 09:  ES64L-G09RevD.01 24-Apr-2013

 --------------------------
 # td=(NStates=1) B3LYP/SVP
 --------------------------

 --
 TD
 --
 Symbolic Z-matrix:
 Charge =  0 Multiplicity = 1

                         Standard orientation:
 ---------------------------------------------------------------------
 Center     Atomic      Atomic             Coordinates (Angstroms)
 Number     Number       Type             X           Y           Z
 ---------------------------------------------------------------------
      1          6           0       -5.093155   -1.926232    0.419831
      2          6           0       -4.698249    2.790645    1.271143
      3          6           0       -9.355952    3.281946   -0.173898
      4          6           0       -9.901080   -1.430387   -0.881494
      5          7           0       -5.066000    0.461761    0.761243
      6          6           0       -4.472509   -0.769845    0.856618
      7          6           0       -3.085861   -0.551860    1.263769
      8          6           0       -3.050800    0.917648    1.711474
      9          6           0       -4.375465    1.407454    1.207816
     10          6           0       -2.880297    1.056392    3.204591
     11          6           0       -2.135724   -0.794773    0.023839
     12          6           0       -0.606456   -0.624671    0.501390
     13          6           0        0.400045   -1.131991   -0.625196
     14          8           0        0.060287   -1.458677   -1.703730
     15          8           0        1.649259   -0.785522   -0.300447
     16          7           0       -6.962533    2.729627    0.481370
     17          6           0       -5.958161    3.407892    1.029929
     18          6           0       -6.162984    4.784125    0.958419
     19          6           0       -7.489030    5.028336    0.494382
     20          6           0       -8.006762    3.642442    0.222617
     21          6           0       -5.183948    5.832714    1.483081
     22          6           0       -8.184682    6.157177    0.405713
     23          6           0       -9.004976    6.526458   -0.551043
     24          7           0       -9.215904    0.856384   -0.341308
     25          6           0       -9.856638    2.034841   -0.490712
     26          6           0      -11.277961    1.940791   -0.959649
     27          6           0      -11.403290    0.561863   -1.101684
     28          6           0      -10.135091   -0.048930   -0.840059
     29          6           0      -12.229596    2.995698   -1.020276
     30          6           0      -12.548427   -0.177143   -1.559958
     31          6           0      -12.630279   -0.466741   -3.137741
     32          7           0       -7.522123   -1.275968   -0.242210
     33          6           0       -8.653662   -1.959975   -0.604673
     34          6           0       -8.264683   -3.428826   -0.640961
     35          6           0       -6.826795   -3.323283   -0.294440
     36          6           0       -6.425535   -2.066880    0.003371
     37          6           0       -9.178847   -4.621224   -0.792215
     38          6           0       -5.762082   -4.331640    0.084520
     39          8           0       -5.777369   -5.552753   -0.052189
     40          6           0       -4.642883   -3.376234    0.412119
     41          6           0       -4.029963   -3.826577    1.749151
     42          8           0       -4.165287   -3.285366    2.773562
     43          8           0       -3.257313   -4.983759    1.517898
     44          6           0       -2.780894   -5.523670    2.814211
     45          6           0        2.670555   -1.043853   -1.260095
     46          6           0        4.026675   -0.777925   -0.648178
     47          6           0        5.003210    0.018431   -1.058867
     48          6           0        4.949724    0.819419   -2.398631
     49          6           0        6.221449    0.194595   -0.334494
     50          6           0        7.406541   -0.448154   -0.975546
     51          6           0        8.844965   -0.220014   -0.217907
     52          6           0       10.125453   -0.566214   -0.854268
     53          6           0       10.201740   -2.109647   -1.193941
     54          6           0       11.333460   -0.221864   -0.043725
     55          6           0       12.651558   -0.499880   -0.719349
     56          6           0       13.896884    0.117305    0.191553
     57          6           0       15.244360   -0.165164   -0.357770
     58          6           0       15.671899   -1.630834   -0.336345
     59          6           0       16.275014    0.531618    0.515921
     60          6           0       17.694481    0.662635   -0.104995
     61          6           0       18.670188    1.503685    0.665397
     62          6           0       20.152770    1.506792    0.272435
     63          6           0       20.243222    1.916565   -1.275588
     64          6           0       20.869669    2.474374    1.222643
     65          1           0       -3.838128    3.371419    1.757311
     66          1           0       -9.895490    4.142074   -0.129897
     67          1           0      -10.996649   -1.826028   -1.295080
     68          1           0       -2.718298   -1.045647    2.282349
     69          1           0       -2.407612    1.543010    1.293573
     70          1           0       -1.956449    0.708549    3.555360
     71          1           0       -3.149256    1.987801    3.685850
     72          1           0       -3.640493    0.500477    3.729033
     73          1           0       -2.314906   -1.790566   -0.245245
     74          1           0       -2.283341   -0.139228   -0.853466
     75          1           0       -0.325307    0.546839    0.711292
     76          1           0       -0.258514   -1.349458    1.394103
     77          1           0       -4.038107    5.614989    1.213726
     78          1           0       -5.310337    7.200717    1.008273
     79          1           0       -5.115385    5.749820    2.580737
     80          1           0       -7.919956    7.010149    1.063650
     81          1           0       -9.040404    5.788765   -1.507424
     82          1           0       -9.202712    7.598714   -0.581261
     83          1           0      -12.413416    3.423753   -0.041170
     84          1           0      -11.957086    3.765702   -1.819274
     85          1           0      -13.114750    2.481580   -1.087703
     86          1           0      -12.687800   -1.084895   -1.064573
     87          1           0      -13.711887    0.475025   -1.426802
     88          1           0      -12.492211    0.458769   -3.632902
     89          1           0      -11.906392   -1.399939   -3.564040
     90          1           0      -13.778844   -0.533436   -3.345043
     91          1           0       -9.900056   -4.787027   -0.036738
     92          1           0       -9.592975   -4.444493   -1.663858
     93          1           0       -8.466249   -5.507102   -0.990774
     94          1           0       -3.739510   -3.544592   -0.267663
     95          1           0       -2.525639   -6.601388    2.475916
     96          1           0       -1.927832   -4.819009    3.061643
     97          1           0       -3.500497   -5.695335    3.656132
     98          1           0        2.395834   -2.173466   -1.498144
     99          1           0        2.344640   -0.221913   -1.976484
    100          1           0        4.105317   -1.504208    0.149456
    101          1           0        5.202290    1.867150   -2.192991
    102          1           0        5.352909    0.339746   -3.213757
    103          1           0        4.092258    0.682868   -2.992966
    104          1           0        6.471412    1.259824   -0.136263
    105          1           0        6.020116   -0.308329    0.528909
    106          1           0        7.387350   -1.594741   -1.068849
    107          1           0        7.406110   -0.130186   -2.139917
    108          1           0        9.031052    0.857369   -0.256948
    109          1           0        8.842042   -0.576196    0.853174
    110          1           0       10.007068    0.121031   -1.847035
    111          1           0        9.354114   -2.529183   -1.966851
    112          1           0       11.236369   -2.302594   -1.511610
    113          1           0        9.924942   -2.623400   -0.271205
    114          1           0       11.017798    0.889092    0.341123
    115          1           0       11.295332   -0.678150    0.978253
    116          1           0       12.609849   -1.649211   -0.685607
    117          1           0       12.737872    0.048061   -1.698804
    118          1           0       13.573886    1.192486    0.281360
    119          1           0       13.603957   -0.049696    1.318346
    120          1           0       15.354669    0.355104   -1.460318
    121          1           0       15.016934   -2.155326   -1.069400
    122          1           0       16.585527   -1.717025   -0.523815
    123          1           0       15.537559   -2.154136    0.770820
    124          1           0       15.956139    1.560547    0.526805
    125          1           0       16.394016    0.204230    1.485182
    126          1           0       18.276950   -0.405088   -0.111543
    127          1           0       17.535061    0.858288   -1.243761
    128          1           0       18.270892    2.558225    0.727004
    129          1           0       18.583928    1.266228    1.769665
    130          1           0       20.803288    0.495992    0.282688
    131          1           0       19.813736    2.818384   -1.237298
    132          1           0       21.190786    2.095465   -1.332177
    133          1           0       19.823366    1.223415   -1.948009
    134          1           0       20.651752    1.927215    2.201323
    135          1           0       22.008611    2.170091    1.196002
    136          1           0       20.579018    3.678791    1.117394
    137          1           0       -7.035597    1.595681    0.528388
    138          1           0       -7.510244   -0.250899   -0.275998
 ---------------------------------------------------------------------

 SCF Done:  E(RB3LYP) =  -2732.91972719     A.U. after   16 cycles

 Excitation energies and oscillator strengths:

 Excited State   1:      Singlet-A      2.0408 eV  607.52 nm  f=0.1547  <S**2>=0.000
     235 -> 237       -0.26921
     235 -> 238        0.25532
     236 -> 237        0.56047
     236 -> 238        0.21041
 This state for optimization and/or second-order correction.
 Total Energy, E(TD-HF/TD-KS) =  -2732.84472835
 Copying the excited state density for this state as the 1-particle RhoCI density.

 The electronic state is 1-A.
 Alpha  occ. eigenvalues --  -19.16933 -19.16562 -19.13502 -19.12167 -19.12084
 Alpha  occ. eigenvalues --  -14.37264 -14.36631 -14.31258 -14.29803 -10.31332
 Alpha  occ. eigenvalues --  -10.30742 -10.27602 -10.25358 -10.25089 -10.24353
 Alpha  occ. eigenvalues --  -10.23860 -10.23454 -10.23325 -10.22813 -10.22702
 Alpha  occ. eigenvalues --  -10.22411 -10.21912 -10.21601 -10.21578 -10.21023
 Alpha  occ. eigenvalues --  -10.20945 -10.20901 -10.20742 -10.20619 -10.20611
 Alpha  occ. eigenvalues --  -10.20575 -10.20452 -10.20443 -10.20355 -10.20267
 Alpha  occ. eigenvalues --  -10.20217 -10.20179 -10.20004 -10.19990 -10.19986
 Alpha  occ. eigenvalues --  -10.19736 -10.19523 -10.19474 -10.19415 -10.19396
 Alpha  occ. eigenvalues --  -10.19332 -10.19165 -10.19012 -10.18843 -10.18576
 Alpha  occ. eigenvalues --  -10.18458 -10.18445 -10.18382 -10.18367 -10.18291
 Alpha  occ. eigenvalues --  -10.18282 -10.18255 -10.18082 -10.18018 -10.17829
 Alpha  occ. eigenvalues --  -10.17410 -10.17382 -10.16976 -10.14906  -1.10201
 Alpha  occ. eigenvalues --   -1.09119  -1.01705  -1.01554  -1.00798  -0.98059
 Alpha  occ. eigenvalues --   -0.97731  -0.96494  -0.93326  -0.85918  -0.83866
 Alpha  occ. eigenvalues --   -0.83443  -0.82446  -0.81601  -0.80664  -0.80543
 Alpha  occ. eigenvalues --   -0.80124  -0.79893  -0.79305  -0.78626  -0.77392
 Alpha  occ. eigenvalues --   -0.77040  -0.75874  -0.75543  -0.75158  -0.74256
 Alpha  occ. eigenvalues --   -0.73326  -0.72888  -0.72607  -0.72189  -0.70434
 Alpha  occ. eigenvalues --   -0.69589  -0.69135  -0.68672  -0.68603  -0.68103
 Alpha  occ. eigenvalues --   -0.67602  -0.67317  -0.66495  -0.65861  -0.65649
 Alpha  occ. eigenvalues --   -0.64100  -0.63517  -0.62668  -0.61682  -0.61536
 Alpha  occ. eigenvalues --   -0.60958  -0.58752  -0.58445  -0.57828  -0.57218
 Alpha  occ. eigenvalues --   -0.56628  -0.55408  -0.55104  -0.54827  -0.54484
 Alpha  occ. eigenvalues --   -0.53990  -0.53881  -0.53777  -0.53371  -0.52940
 Alpha  occ. eigenvalues --   -0.52420  -0.52086  -0.51485  -0.51060  -0.50891
 Alpha  occ. eigenvalues --   -0.50349  -0.49907  -0.49541  -0.48743  -0.48183
 Alpha  occ. eigenvalues --   -0.47915  -0.47698  -0.47368  -0.46992  -0.46915
 Alpha  occ. eigenvalues --   -0.46614  -0.46352  -0.45957  -0.45849  -0.45748
 Alpha  occ. eigenvalues --   -0.45606  -0.45327  -0.45049  -0.44958  -0.44778
 Alpha  occ. eigenvalues --   -0.44664  -0.44539  -0.44424  -0.44157  -0.43919
 Alpha  occ. eigenvalues --   -0.43696  -0.43660  -0.43530  -0.42802  -0.42614
 Alpha  occ. eigenvalues --   -0.42002  -0.41938  -0.41813  -0.41714  -0.41400
 Alpha  occ. eigenvalues --   -0.41150  -0.41103  -0.40667  -0.40511  -0.40463
 Alpha  occ. eigenvalues --   -0.40308  -0.40065  -0.39830  -0.39553  -0.39453
 Alpha  occ. eigenvalues --   -0.39290  -0.38998  -0.38994  -0.38841  -0.38620
 Alpha  occ. eigenvalues --   -0.38465  -0.38153  -0.38144  -0.37647  -0.37105
 Alpha  occ. eigenvalues --   -0.37056  -0.36970  -0.36741  -0.36637  -0.36517
 Alpha  occ. eigenvalues --   -0.36459  -0.36200  -0.36114  -0.35786  -0.35499
 Alpha  occ. eigenvalues --   -0.35353  -0.35338  -0.35244  -0.34906  -0.34435
 Alpha  occ. eigenvalues --   -0.34331  -0.34117  -0.33829  -0.33741  -0.33522
 Alpha  occ. eigenvalues --   -0.33334  -0.33233  -0.32719  -0.32638  -0.32546
 Alpha  occ. eigenvalues --   -0.32246  -0.32163  -0.31935  -0.31598  -0.31500
 Alpha  occ. eigenvalues --   -0.30832  -0.30612  -0.30343  -0.30065  -0.29738
 Alpha  occ. eigenvalues --   -0.29561  -0.28987  -0.28703  -0.28320  -0.27713
 Alpha  occ. eigenvalues --   -0.27677  -0.26982  -0.26393  -0.25685  -0.25217
 Alpha  occ. eigenvalues --   -0.24733  -0.24559  -0.23770  -0.22447  -0.19662
 Alpha  occ. eigenvalues --   -0.18731
 Alpha virt. eigenvalues --   -0.10315  -0.07616  -0.04640  -0.02328  -0.00571
 Alpha virt. eigenvalues --   -0.00003   0.00816   0.01391   0.01590   0.02099
 Alpha virt. eigenvalues --    0.03014   0.03985   0.04102   0.04433   0.04601

 Mulliken charges:
               1
     1  C    0.069297
     2  C   -0.070803
     3  C   -0.070083
     4  C   -0.107626
     5  N   -0.115369
     6  C   -0.060527
     7  C   -0.089483
     8  C    0.041379
     9  C   -0.103893
    10  C    0.104436
    11  C    0.135457
    12  C   -0.089357
    13  C    0.156395
    14  O   -0.206297
    15  O   -0.318944
    16  N   -0.116248
    17  C    0.100096
    18  C   -0.083703
    19  C    0.136397
    20  C    0.024748
    21  C   -0.038733
    22  C   -0.142064
    23  C   -0.056476
    24  N   -0.243378
    25  C    0.144642
    26  C   -0.200321
    27  C   -0.003123
    28  C   -0.000906
    29  C    0.214478
    30  C   -0.070409
    31  C   -0.008272
    32  N   -0.042302
    33  C    0.117191
    34  C   -0.166742
    35  C   -0.090899
    36  C    0.094710
    37  C    0.193163
    38  C    0.124037
    39  O   -0.177838
    40  C   -0.067797
    41  C    0.164800
    42  O   -0.164301
    43  O   -0.353297
    44  C    0.141465
    45  C    0.223290
    46  C   -0.087006
    47  C   -0.136102
    48  C    0.126269
    49  C    0.213262
    50  C   -0.070164
    51  C    0.023516
    52  C   -0.082482
    53  C   -0.005115
    54  C   -0.059134
    55  C    0.040367
    56  C   -0.023900
    57  C   -0.055832
    58  C    0.136812
    59  C    0.074919
    60  C   -0.041148
    61  C    0.039738
    62  C   -0.193248
    63  C    0.198030
    64  C   -0.017339
    65  H   -0.010321
    66  H   -0.072639
    67  H    0.032161
    68  H    0.035597
    69  H   -0.058337
    70  H    0.003634
    71  H   -0.009228
    72  H   -0.006340
    73  H   -0.013739
    74  H    0.028198
    75  H    0.069734
    76  H    0.045931
    77  H    0.043873
    78  H    0.049173
    79  H    0.040673
    80  H    0.004826
    81  H    0.059031
    82  H    0.027775
    83  H    0.007749
    84  H    0.043895
    85  H   -0.048983
    86  H    0.004695
    87  H    0.021451
    88  H   -0.000158
    89  H    0.055623
    90  H    0.015661
    91  H    0.033494
    92  H   -0.024886
    93  H    0.044665
    94  H    0.081295
    95  H    0.049702
    96  H    0.043874
    97  H    0.051377
    98  H    0.043027
    99  H    0.022613
   100  H   -0.017961
   101  H    0.031951
   102  H    0.003213
   103  H   -0.034436
   104  H    0.006254
   105  H   -0.042818
   106  H    0.007414
   107  H    0.011220
   108  H   -0.012801
   109  H   -0.001458
   110  H    0.002648
   111  H    0.025455
   112  H    0.020610
   113  H   -0.001942
   114  H   -0.014308
   115  H   -0.006769
   116  H    0.044606
   117  H    0.016763
   118  H   -0.012302
   119  H   -0.004349
   120  H    0.011467
   121  H    0.009278
   122  H   -0.070549
   123  H    0.012697
   124  H   -0.025038
   125  H   -0.026854
   126  H    0.006008
   127  H    0.008314
   128  H   -0.013272
   129  H   -0.014683
   130  H    0.012173
   131  H   -0.047682
   132  H   -0.058337
   133  H    0.017008
   134  H    0.015493
   135  H    0.012649
   136  H    0.054042
   137  H    0.218395
   138  H    0.134581
 Sum of Mulliken charges =   0.00000

 Dipole moment (field-independent basis, Debye):
    X=              2.4144    Y=              4.6625    Z=              1.3246  Tot=              5.4151
 Quadrupole moment (field-independent basis, Debye-Ang):
   XX=           -346.2631   YY=           -386.2517   ZZ=           -393.5263
   XY=            -24.2246   XZ=              8.2956   YZ=             -5.8036

 Normal termination of Gaussian 09 at Sat Jul 27 03:51:23 2019.
