 Gaussian 09, Revision D.01,
 Gaussian 09:  ES64L-G09RevD.01 24-Apr-2013

 --------------------------
 # td=(NStates=1) B3LYP/SVP
 --------------------------

 --
 TD
 --
 Symbolic Z-matrix:
 Charge =  0 Multiplicity = 1

                         Standard orientation:
 ---------------------------------------------------------------------
 Center     Atomic      Atomic             Coordinates (Angstroms)
 Number     Number       Type             X           Y           Z
 ---------------------------------------------------------------------
      1          6           0       -5.172976   -2.023260    0.518926
      2          6           0       -4.544565    2.645012    1.650196
      3          6           0       -9.083349    3.532102   -0.186238
      4          6           0       -9.761249   -1.240692   -1.179804
      5          7           0       -5.134557    0.318211    1.008354
      6          6           0       -4.506035   -0.821472    0.997087
      7          6           0       -3.094377   -0.807767    1.586105
      8          6           0       -3.090491    0.574535    2.207927
      9          6           0       -4.354722    1.270914    1.656693
     10          6           0       -3.130179    0.600126    3.787774
     11          6           0       -2.160336   -0.848503    0.326922
     12          6           0       -0.671077   -0.995511    0.753522
     13          6           0        0.259259   -1.193610   -0.411645
     14          8           0       -0.164866   -1.582189   -1.555921
     15          8           0        1.526790   -1.104608   -0.133231
     16          7           0       -6.804259    2.757387    0.446868
     17          6           0       -5.712055    3.349297    1.111476
     18          6           0       -6.013356    4.805479    1.253238
     19          6           0       -7.259779    5.043341    0.636513
     20          6           0       -7.779096    3.737603    0.258940
     21          6           0       -4.936545    5.638503    1.658165
     22          6           0       -7.717989    6.372899    0.490469
     23          6           0       -8.567855    6.886574   -0.419620
     24          7           0       -8.991197    1.168043   -0.708508
     25          6           0       -9.698996    2.387327   -0.692207
     26          6           0      -11.030504    2.191200   -1.106705
     27          6           0      -11.224445    0.796442   -1.336758
     28          6           0       -9.929386    0.151546   -1.012979
     29          6           0      -11.966048    3.249105   -1.291529
     30          6           0      -12.336726    0.120939   -2.031667
     31          6           0      -12.216760   -0.022743   -3.614649
     32          7           0       -7.491293   -1.176019   -0.383639
     33          6           0       -8.615241   -1.790758   -0.884440
     34          6           0       -8.375034   -3.287178   -0.816605
     35          6           0       -6.973351   -3.358126   -0.298263
     36          6           0       -6.436382   -2.052675    0.007967
     37          6           0       -9.250648   -4.409975   -1.363017
     38          6           0       -5.809865   -4.337541   -0.005248
     39          8           0       -5.908555   -5.539304    0.089389
     40          6           0       -4.551296   -3.432432    0.460051
     41          6           0       -4.098189   -4.041136    1.794951
     42          8           0       -4.409456   -3.584707    2.867525
     43          8           0       -3.108519   -4.879695    1.625178
     44          6           0       -2.834682   -5.588850    2.794581
     45          6           0        2.554456   -1.318125   -1.090272
     46          6           0        3.872778   -0.974633   -0.508044
     47          6           0        4.816055   -0.072209   -1.046286
     48          6           0        4.695310    0.657705   -2.294275
     49          6           0        6.163708   -0.044315   -0.249948
     50          6           0        7.366986   -0.562460   -1.063791
     51          6           0        8.698796   -0.349344   -0.265616
     52          6           0        9.912714   -0.786433   -1.044319
     53          6           0       10.018158   -2.266786   -1.252546
     54          6           0       11.212519   -0.324992   -0.108686
     55          6           0       12.648128   -0.513765   -0.757672
     56          6           0       13.774099   -0.156570    0.228421
     57          6           0       15.140032   -0.185917   -0.311582
     58          6           0       15.596239   -1.598424   -0.814823
     59          6           0       16.196210    0.541566    0.568706
     60          6           0       17.555307    0.778763   -0.172009
     61          6           0       18.416618    1.706647    0.687770
     62          6           0       19.908821    1.835359    0.203928
     63          6           0       20.016295    2.151426   -1.383753
     64          6           0       20.714263    3.016577    1.035401
     65          1           0       -3.984383    3.273827    2.251874
     66          1           0       -9.692476    4.399281   -0.215991
     67          1           0      -10.551321   -1.793510   -1.501583
     68          1           0       -2.826646   -1.543945    2.208389
     69          1           0       -2.177704    1.131378    1.789506
     70          1           0       -2.040309    0.260131    3.978526
     71          1           0       -3.281414    1.644852    4.189202
     72          1           0       -4.060430    0.028631    4.140385
     73          1           0       -2.494967   -1.831841   -0.380838
     74          1           0       -2.384677    0.071669   -0.466967
     75          1           0       -0.325227   -0.066213    1.414851
     76          1           0       -0.727042   -1.977643    1.384656
     77          1           0       -3.937509    5.556434    1.152371
     78          1           0       -5.256700    6.629864    1.385913
     79          1           0       -4.796081    5.321948    2.775429
     80          1           0       -7.272797    7.171394    1.306957
     81          1           0       -9.074783    6.185055   -1.230254
     82          1           0       -8.805848    8.005320   -0.297636
     83          1           0      -12.213907    3.964288   -0.441248
     84          1           0      -11.554693    3.714714   -2.296175
     85          1           0      -13.053924    2.904230   -1.563446
     86          1           0      -12.263601   -1.102794   -1.668200
     87          1           0      -13.382676    0.625931   -1.765904
     88          1           0      -12.017119    0.963383   -4.010102
     89          1           0      -11.373844   -0.855264   -3.659846
     90          1           0      -13.294373   -0.327324   -3.984584
     91          1           0      -10.112322   -4.364092   -0.910521
     92          1           0       -9.129406   -4.365724   -2.449248
     93          1           0       -8.552886   -5.419122   -1.109287
     94          1           0       -3.833068   -3.633744   -0.524625
     95          1           0       -2.142002   -6.146548    2.218824
     96          1           0       -2.209920   -4.899192    3.391943
     97          1           0       -3.839508   -5.912977    3.332235
     98          1           0        2.296480   -2.403194   -1.478529
     99          1           0        2.330919   -0.680800   -1.973525
    100          1           0        4.218406   -1.614928    0.390417
    101          1           0        4.651794    1.909362   -1.959494
    102          1           0        5.821537    0.647433   -2.952641
    103          1           0        3.884241    0.437604   -2.923784
    104          1           0        6.504592    1.039157    0.188719
    105          1           0        6.178097   -0.825738    0.651784
    106          1           0        7.425267   -1.736338   -1.692238
    107          1           0        7.407852   -0.064344   -1.927341
    108          1           0        8.715435    0.734235    0.061635
    109          1           0        8.932781   -1.051002    0.647222
    110          1           0       10.043640   -0.346057   -1.923466
    111          1           0        8.984786   -2.744441   -1.564337
    112          1           0       10.837418   -2.574811   -1.878018
    113          1           0       10.368284   -2.969561   -0.356719
    114          1           0       11.101254    0.679350    0.305958
    115          1           0       11.163470   -0.924923    0.688002
    116          1           0       12.762246   -1.618612   -1.086666
    117          1           0       12.821860    0.072891   -1.551356
    118          1           0       13.605833    1.006049    0.666599
    119          1           0       13.915295   -0.720538    1.240279
    120          1           0       15.179161    0.693579   -1.305656
    121          1           0       14.848314   -2.105459   -1.657942
    122          1           0       16.644704   -1.713516   -1.228328
    123          1           0       15.572207   -2.172615    0.157882
    124          1           0       15.865136    1.478869    1.228595
    125          1           0       16.169434   -0.138545    1.574455
    126          1           0       18.050703   -0.077953   -0.497402
    127          1           0       17.313522    1.173046   -1.166192
    128          1           0       18.085835    2.753855    0.713780
    129          1           0       18.372098    1.246074    1.790579
    130          1           0       20.383228    0.898869    0.513295
    131          1           0       19.247466    2.964552   -1.861290
    132          1           0       21.134846    2.370746   -1.554587
    133          1           0       19.732567    1.344781   -2.166411
    134          1           0       20.378986    2.707782    2.211774
    135          1           0       21.626545    3.171157    0.683516
    136          1           0       20.293877    4.193919    0.583862
    137          1           0       -6.986938    1.715040    0.696274
    138          1           0       -7.552628   -0.125413   -0.382753
 ---------------------------------------------------------------------

 SCF Done:  E(RB3LYP) =  -2732.91554174     A.U. after   17 cycles

 Excitation energies and oscillator strengths:

 Excited State   1:      Singlet-A      2.0179 eV  614.42 nm  f=0.1305  <S**2>=0.000
     235 -> 238        0.32143
     236 -> 237        0.60915
 This state for optimization and/or second-order correction.
 Total Energy, E(TD-HF/TD-KS) =  -2732.84138565
 Copying the excited state density for this state as the 1-particle RhoCI density.

 The electronic state is 1-A.
 Alpha  occ. eigenvalues --  -19.18492 -19.18330 -19.12976 -19.12647 -19.11118
 Alpha  occ. eigenvalues --  -14.37262 -14.35975 -14.32188 -14.29311 -10.31762
 Alpha  occ. eigenvalues --  -10.31678 -10.28732 -10.26048 -10.24567 -10.23870
 Alpha  occ. eigenvalues --  -10.23786 -10.23628 -10.23484 -10.23074 -10.23056
 Alpha  occ. eigenvalues --  -10.22942 -10.22842 -10.22823 -10.22471 -10.22438
 Alpha  occ. eigenvalues --  -10.22077 -10.21936 -10.21281 -10.21030 -10.20926
 Alpha  occ. eigenvalues --  -10.20898 -10.20870 -10.20654 -10.20596 -10.20594
 Alpha  occ. eigenvalues --  -10.20575 -10.20556 -10.20554 -10.20497 -10.20432
 Alpha  occ. eigenvalues --  -10.20393 -10.20308 -10.20269 -10.20233 -10.20084
 Alpha  occ. eigenvalues --  -10.20039 -10.20030 -10.19921 -10.19885 -10.19834
 Alpha  occ. eigenvalues --  -10.19817 -10.19777 -10.19574 -10.19534 -10.19476
 Alpha  occ. eigenvalues --  -10.19099 -10.19081 -10.18621 -10.18601 -10.18535
 Alpha  occ. eigenvalues --  -10.18180 -10.17892 -10.17803 -10.17776  -1.12508
 Alpha  occ. eigenvalues --   -1.10575  -1.03377  -1.01736  -0.97243  -0.96228
 Alpha  occ. eigenvalues --   -0.95785  -0.94784  -0.90542  -0.84302  -0.82649
 Alpha  occ. eigenvalues --   -0.82314  -0.81709  -0.81015  -0.80700  -0.80471
 Alpha  occ. eigenvalues --   -0.79559  -0.78684  -0.78328  -0.78036  -0.77675
 Alpha  occ. eigenvalues --   -0.76810  -0.76134  -0.75540  -0.74780  -0.74315
 Alpha  occ. eigenvalues --   -0.74037  -0.73242  -0.71797  -0.71593  -0.70576
 Alpha  occ. eigenvalues --   -0.69848  -0.69186  -0.67921  -0.67619  -0.66627
 Alpha  occ. eigenvalues --   -0.66310  -0.65892  -0.65531  -0.65218  -0.64568
 Alpha  occ. eigenvalues --   -0.63997  -0.62294  -0.61716  -0.60668  -0.60462
 Alpha  occ. eigenvalues --   -0.59859  -0.59074  -0.58046  -0.57677  -0.57546
 Alpha  occ. eigenvalues --   -0.57073  -0.57029  -0.56033  -0.55875  -0.55156
 Alpha  occ. eigenvalues --   -0.54068  -0.53867  -0.53338  -0.52693  -0.52592
 Alpha  occ. eigenvalues --   -0.52376  -0.52122  -0.50948  -0.50891  -0.50378
 Alpha  occ. eigenvalues --   -0.50162  -0.49488  -0.48812  -0.48462  -0.48208
 Alpha  occ. eigenvalues --   -0.47809  -0.47426  -0.47330  -0.47142  -0.46996
 Alpha  occ. eigenvalues --   -0.46796  -0.46413  -0.46242  -0.45971  -0.45922
 Alpha  occ. eigenvalues --   -0.45421  -0.45211  -0.44945  -0.44403  -0.44289
 Alpha  occ. eigenvalues --   -0.44068  -0.43904  -0.43744  -0.43710  -0.43567
 Alpha  occ. eigenvalues --   -0.42997  -0.42921  -0.42618  -0.42517  -0.42281
 Alpha  occ. eigenvalues --   -0.42112  -0.41954  -0.41536  -0.41343  -0.41254
 Alpha  occ. eigenvalues --   -0.41143  -0.41064  -0.40834  -0.40739  -0.40545
 Alpha  occ. eigenvalues --   -0.39741  -0.39586  -0.39262  -0.39101  -0.38835
 Alpha  occ. eigenvalues --   -0.38559  -0.38454  -0.38210  -0.38021  -0.37783
 Alpha  occ. eigenvalues --   -0.37742  -0.37611  -0.37470  -0.37115  -0.37035
 Alpha  occ. eigenvalues --   -0.36975  -0.36847  -0.36800  -0.36669  -0.36376
 Alpha  occ. eigenvalues --   -0.36170  -0.36069  -0.35530  -0.35450  -0.35424
 Alpha  occ. eigenvalues --   -0.35345  -0.35085  -0.34741  -0.34580  -0.34372
 Alpha  occ. eigenvalues --   -0.34325  -0.34247  -0.34217  -0.34056  -0.33771
 Alpha  occ. eigenvalues --   -0.33720  -0.33235  -0.33053  -0.32781  -0.32302
 Alpha  occ. eigenvalues --   -0.32051  -0.32030  -0.31737  -0.31627  -0.31336
 Alpha  occ. eigenvalues --   -0.31258  -0.31111  -0.30624  -0.30435  -0.29653
 Alpha  occ. eigenvalues --   -0.29539  -0.28477  -0.28401  -0.27656  -0.27569
 Alpha  occ. eigenvalues --   -0.26979  -0.26701  -0.26345  -0.25270  -0.24954
 Alpha  occ. eigenvalues --   -0.24595  -0.24543  -0.23523  -0.20801  -0.19746
 Alpha  occ. eigenvalues --   -0.18468
 Alpha virt. eigenvalues --   -0.09766  -0.08290  -0.04415  -0.03078  -0.02041
 Alpha virt. eigenvalues --   -0.01158  -0.00826   0.00069   0.02166   0.02992
 Alpha virt. eigenvalues --    0.03125   0.03162   0.03521   0.03548   0.03865

 Mulliken charges:
               1
     1  C   -0.021452
     2  C    0.016194
     3  C   -0.067470
     4  C   -0.059143
     5  N   -0.138805
     6  C   -0.088075
     7  C    0.095364
     8  C   -0.064044
     9  C    0.017787
    10  C    0.038701
    11  C   -0.126571
    12  C    0.022255
    13  C    0.190981
    14  O   -0.313405
    15  O   -0.258542
    16  N   -0.095511
    17  C    0.015028
    18  C   -0.138074
    19  C    0.086946
    20  C    0.112665
    21  C    0.064026
    22  C   -0.118584
    23  C   -0.081062
    24  N   -0.317630
    25  C    0.066733
    26  C   -0.071959
    27  C   -0.054356
    28  C    0.091994
    29  C    0.003753
    30  C   -0.095523
    31  C   -0.000278
    32  N   -0.122769
    33  C    0.141463
    34  C   -0.184324
    35  C   -0.056137
    36  C    0.187461
    37  C    0.119566
    38  C    0.058839
    39  O   -0.172072
    40  C   -0.099872
    41  C    0.201543
    42  O   -0.227021
    43  O   -0.258801
    44  C    0.171692
    45  C    0.236841
    46  C   -0.092175
    47  C   -0.071869
    48  C   -0.016375
    49  C    0.003122
    50  C    0.015853
    51  C   -0.008903
    52  C    0.014931
    53  C   -0.026045
    54  C    0.056017
    55  C    0.115031
    56  C   -0.046694
    57  C   -0.122069
    58  C   -0.016518
    59  C   -0.050013
    60  C    0.112213
    61  C   -0.004061
    62  C   -0.084067
    63  C   -0.069674
    64  C   -0.013644
    65  H   -0.059039
    66  H   -0.050634
    67  H   -0.083831
    68  H   -0.052554
    69  H    0.008734
    70  H    0.033180
    71  H    0.017596
    72  H    0.048896
    73  H    0.058649
    74  H    0.048253
    75  H    0.050462
    76  H    0.054237
    77  H    0.040879
    78  H    0.001418
    79  H    0.049324
    80  H    0.042244
    81  H    0.057650
    82  H    0.040272
    83  H    0.042617
    84  H    0.040883
    85  H    0.008563
    86  H    0.022102
    87  H    0.025434
    88  H    0.020131
    89  H    0.040024
    90  H    0.032229
    91  H    0.007953
    92  H    0.046765
    93  H    0.066321
    94  H    0.103141
    95  H    0.024898
    96  H    0.015932
    97  H    0.078549
    98  H    0.041093
    99  H    0.008314
   100  H    0.021378
   101  H    0.047834
   102  H    0.060670
   103  H    0.025566
   104  H    0.034994
   105  H    0.032805
   106  H    0.013404
   107  H   -0.048352
   108  H    0.007141
   109  H    0.014536
   110  H   -0.048897
   111  H    0.023230
   112  H    0.007671
   113  H    0.004816
   114  H   -0.015785
   115  H   -0.044093
   116  H    0.009305
   117  H   -0.035489
   118  H    0.008426
   119  H   -0.001719
   120  H   -0.009510
   121  H    0.043552
   122  H    0.029171
   123  H    0.011320
   124  H    0.015722
   125  H   -0.014777
   126  H   -0.023237
   127  H   -0.014222
   128  H    0.006592
   129  H    0.013363
   130  H    0.007295
   131  H    0.033204
   132  H    0.029062
   133  H    0.019339
   134  H    0.057021
   135  H   -0.013126
   136  H    0.008444
   137  H    0.197928
   138  H    0.151321
 Sum of Mulliken charges =   0.00000

 Dipole moment (field-independent basis, Debye):
    X=              4.8202    Y=              3.1265    Z=              0.4764  Tot=              5.7651
 Quadrupole moment (field-independent basis, Debye-Ang):
   XX=           -364.0795   YY=           -386.2777   ZZ=           -395.9411
   XY=            -26.0234   XZ=              1.3284   YZ=              1.8815

 Normal termination of Gaussian 09 at Tue Jul 30 07:00:04 2019.
