 Gaussian 09, Revision D.01,
 Gaussian 09:  ES64L-G09RevD.01 24-Apr-2013

 --------------------------
 # td=(NStates=1) B3LYP/SVP
 --------------------------

 --
 TD
 --
 Symbolic Z-matrix:
 Charge =  0 Multiplicity = 1

                         Standard orientation:
 ---------------------------------------------------------------------
 Center     Atomic      Atomic             Coordinates (Angstroms)
 Number     Number       Type             X           Y           Z
 ---------------------------------------------------------------------
      1          6           0       -5.210883   -1.934937    0.405948
      2          6           0       -4.654809    2.699327    1.429133
      3          6           0       -9.203511    3.628296   -0.226971
      4          6           0       -9.969504   -1.225233   -0.819400
      5          7           0       -5.135736    0.471312    0.620201
      6          6           0       -4.474879   -0.777535    0.724547
      7          6           0       -3.069496   -0.683438    1.174814
      8          6           0       -2.837911    0.707251    1.758218
      9          6           0       -4.224884    1.301291    1.228381
     10          6           0       -2.950748    0.633558    3.266754
     11          6           0       -2.118127   -0.935602   -0.019297
     12          6           0       -0.598130   -0.921341    0.415787
     13          6           0        0.358157   -1.251778   -0.618424
     14          8           0        0.195043   -1.683801   -1.754190
     15          8           0        1.527906   -0.831380   -0.263141
     16          7           0       -6.929311    2.799751    0.445742
     17          6           0       -5.811924    3.342493    0.937819
     18          6           0       -6.012101    4.845013    1.134857
     19          6           0       -7.284117    5.018484    0.475104
     20          6           0       -7.847965    3.742721    0.209886
     21          6           0       -4.895726    5.845955    1.475225
     22          6           0       -7.973406    6.319106    0.445753
     23          6           0       -8.626229    6.789066   -0.551707
     24          7           0       -9.156522    1.019335   -0.479309
     25          6           0       -9.760689    2.277925   -0.474691
     26          6           0      -11.189503    2.084935   -0.932008
     27          6           0      -11.414208    0.741036   -0.975920
     28          6           0      -10.144585    0.076063   -0.696599
     29          6           0      -12.039548    3.275367   -1.118657
     30          6           0      -12.627668    0.138351   -1.431680
     31          6           0      -12.672110   -0.187462   -2.976975
     32          7           0       -7.557713   -1.210013   -0.091424
     33          6           0       -8.741094   -1.894022   -0.520086
     34          6           0       -8.383223   -3.240772   -0.551406
     35          6           0       -7.082194   -3.444670   -0.225964
     36          6           0       -6.496667   -2.073488    0.023300
     37          6           0       -9.313230   -4.450048   -0.904197
     38          6           0       -5.852625   -4.309122   -0.084778
     39          8           0       -5.827451   -5.526607   -0.294693
     40          6           0       -4.607648   -3.419284    0.352096
     41          6           0       -4.052293   -3.913853    1.682448
     42          8           0       -4.400253   -3.514676    2.753293
     43          8           0       -3.291693   -4.964028    1.501364
     44          6           0       -2.754414   -5.591302    2.686577
     45          6           0        2.623146   -1.151092   -1.225344
     46          6           0        3.894366   -0.887129   -0.613697
     47          6           0        4.987356   -0.107964   -1.046761
     48          6           0        4.944587    0.489399   -2.366624
     49          6           0        6.300644   -0.081164   -0.280057
     50          6           0        7.468517   -0.661992   -1.015816
     51          6           0        8.787668   -0.429926   -0.224232
     52          6           0       10.157746   -1.062681   -0.819528
     53          6           0       10.027217   -2.554789   -0.948432
     54          6           0       11.307996   -0.544403    0.059411
     55          6           0       12.693776   -0.657823   -0.639858
     56          6           0       13.837984   -0.108178    0.219357
     57          6           0       15.205878   -0.189223   -0.361159
     58          6           0       15.754714   -1.554231   -0.563464
     59          6           0       16.175896    0.552036    0.630706
     60          6           0       17.588358    0.859588   -0.001735
     61          6           0       18.450879    1.850403    0.750590
     62          6           0       19.908119    1.962960    0.146536
     63          6           0       20.036968    2.561622   -1.191410
     64          6           0       20.824072    2.752236    1.218008
     65          1           0       -3.951596    3.510575    1.949395
     66          1           0       -9.646362    4.697891   -0.347899
     67          1           0      -10.787002   -1.892907   -0.872866
     68          1           0       -2.720030   -1.334420    2.066063
     69          1           0       -1.965158    1.046163    1.318351
     70          1           0       -2.052041    0.227807    3.748953
     71          1           0       -3.032645    1.564721    3.697764
     72          1           0       -3.780685    0.046637    3.560044
     73          1           0       -2.359539   -1.951588   -0.545437
     74          1           0       -2.215944   -0.234857   -0.776312
     75          1           0       -0.352851    0.123004    1.024942
     76          1           0       -0.495788   -1.703183    1.157261
     77          1           0       -4.269421    6.178859    0.580196
     78          1           0       -5.322566    6.795528    1.799754
     79          1           0       -4.258799    5.337599    2.290293
     80          1           0       -7.972070    7.100304    1.286252
     81          1           0       -8.640530    6.200888   -1.444484
     82          1           0       -8.947937    7.817219   -0.505136
     83          1           0      -12.235982    3.767175   -0.007322
     84          1           0      -11.497317    4.016464   -1.848032
     85          1           0      -13.051100    3.047944   -1.819878
     86          1           0      -12.796177   -0.761958   -0.809252
     87          1           0      -13.556276    0.799183   -1.128755
     88          1           0      -12.848168    0.733168   -3.674888
     89          1           0      -11.766046   -0.680079   -3.291748
     90          1           0      -13.632727   -0.784572   -3.235606
     91          1           0      -10.218955   -4.466893   -0.179341
     92          1           0       -9.818112   -4.376857   -1.962412
     93          1           0       -8.786869   -5.320159   -0.967635
     94          1           0       -3.965762   -3.620510   -0.555804
     95          1           0       -1.890845   -6.166602    2.261118
     96          1           0       -2.472549   -4.748340    3.228861
     97          1           0       -3.393836   -6.224428    3.143242
     98          1           0        2.600143   -2.119169   -1.587474
     99          1           0        2.658791   -0.493967   -2.075374
    100          1           0        4.135734   -1.682425    0.221003
    101          1           0        5.441948    1.501054   -2.630812
    102          1           0        5.637955   -0.249444   -2.921482
    103          1           0        3.962640    0.617730   -2.841931
    104          1           0        6.406254    1.080863    0.027055
    105          1           0        6.237545   -0.330702    0.720445
    106          1           0        7.205370   -1.909433   -1.183898
    107          1           0        7.778970   -0.233609   -2.046702
    108          1           0        8.855783    0.613065   -0.027304
    109          1           0        8.570251   -0.963999    0.732446
    110          1           0       10.255683   -0.357283   -1.858805
    111          1           0        9.094599   -2.901017   -1.551478
    112          1           0       10.849199   -2.929683   -1.625142
    113          1           0       10.062665   -2.952274    0.085482
    114          1           0       11.137415    0.478589    0.143148
    115          1           0       11.410749   -0.858344    0.940584
    116          1           0       12.729737   -1.637686   -0.914585
    117          1           0       12.617934   -0.005176   -1.473051
    118          1           0       13.604205    0.930453    0.410137
    119          1           0       13.896387   -0.758456    1.084531
    120          1           0       15.430702    0.299102   -1.468429
    121          1           0       15.169722   -2.230347   -1.174767
    122          1           0       16.728168   -1.496034   -1.090472
    123          1           0       16.019073   -2.184469    0.475591
    124          1           0       15.420593    1.421831    0.739135
    125          1           0       16.368745    0.078706    1.576524
    126          1           0       18.291525    0.050781   -0.408535
    127          1           0       17.604326    1.317036   -1.098853
    128          1           0       17.913357    2.850850    0.618876
    129          1           0       18.637594    1.598554    1.959659
    130          1           0       20.344736    0.853905    0.075503
    131          1           0       19.535320    3.554689   -1.214151
    132          1           0       21.012390    2.839030   -1.626932
    133          1           0       19.715418    1.908703   -2.089919
    134          1           0       20.808743    2.483572    2.283047
    135          1           0       21.816780    2.639042    0.852397
    136          1           0       20.576864    3.865630    1.082235
    137          1           0       -7.112479    1.846660    0.361760
    138          1           0       -7.531251   -0.178860   -0.172961
 ---------------------------------------------------------------------

 SCF Done:  E(RB3LYP) =  -2733.09976476     A.U. after   17 cycles

 Excitation energies and oscillator strengths:

 Excited State   1:      Singlet-A      2.0481 eV  605.36 nm  f=0.1736  <S**2>=0.000
     235 -> 238       -0.30296
     236 -> 237        0.63548
 This state for optimization and/or second-order correction.
 Total Energy, E(TD-HF/TD-KS) =  -2733.02449845
 Copying the excited state density for this state as the 1-particle RhoCI density.

 The electronic state is 1-A.
 Alpha  occ. eigenvalues --  -19.17505 -19.17458 -19.11800 -19.11580 -19.10939
 Alpha  occ. eigenvalues --  -14.37393 -14.36054 -14.33770 -14.30173 -10.31133
 Alpha  occ. eigenvalues --  -10.30549 -10.28099 -10.24439 -10.24406 -10.23671
 Alpha  occ. eigenvalues --  -10.23655 -10.23526 -10.23349 -10.22798 -10.22684
 Alpha  occ. eigenvalues --  -10.22510 -10.21986 -10.21761 -10.21614 -10.21433
 Alpha  occ. eigenvalues --  -10.21425 -10.21377 -10.21270 -10.21162 -10.21044
 Alpha  occ. eigenvalues --  -10.20740 -10.20721 -10.20703 -10.20595 -10.20530
 Alpha  occ. eigenvalues --  -10.20486 -10.20335 -10.20279 -10.20273 -10.20176
 Alpha  occ. eigenvalues --  -10.20080 -10.20023 -10.19657 -10.19505 -10.19460
 Alpha  occ. eigenvalues --  -10.19385 -10.19303 -10.19266 -10.19247 -10.19198
 Alpha  occ. eigenvalues --  -10.19036 -10.19001 -10.18923 -10.18699 -10.18512
 Alpha  occ. eigenvalues --  -10.18423 -10.18182 -10.18091 -10.18027 -10.17923
 Alpha  occ. eigenvalues --  -10.17918 -10.17301 -10.16691 -10.16102  -1.10651
 Alpha  occ. eigenvalues --   -1.10440  -1.00969  -1.00834  -1.00157  -0.98607
 Alpha  occ. eigenvalues --   -0.96209  -0.93783  -0.91896  -0.83317  -0.83189
 Alpha  occ. eigenvalues --   -0.82632  -0.82559  -0.82173  -0.80816  -0.80259
 Alpha  occ. eigenvalues --   -0.79612  -0.79356  -0.79028  -0.78957  -0.78611
 Alpha  occ. eigenvalues --   -0.77226  -0.76759  -0.75867  -0.75327  -0.74238
 Alpha  occ. eigenvalues --   -0.73425  -0.73397  -0.72399  -0.71685  -0.70978
 Alpha  occ. eigenvalues --   -0.70176  -0.69312  -0.68264  -0.68124  -0.68083
 Alpha  occ. eigenvalues --   -0.67292  -0.66767  -0.66373  -0.65273  -0.64762
 Alpha  occ. eigenvalues --   -0.63677  -0.62914  -0.62229  -0.61401  -0.61296
 Alpha  occ. eigenvalues --   -0.60868  -0.58941  -0.58514  -0.58073  -0.57634
 Alpha  occ. eigenvalues --   -0.57301  -0.56666  -0.56453  -0.55582  -0.55506
 Alpha  occ. eigenvalues --   -0.54625  -0.54495  -0.54230  -0.53780  -0.53080
 Alpha  occ. eigenvalues --   -0.52480  -0.52370  -0.51339  -0.51078  -0.50994
 Alpha  occ. eigenvalues --   -0.50649  -0.49877  -0.49481  -0.49070  -0.48479
 Alpha  occ. eigenvalues --   -0.48324  -0.47952  -0.47495  -0.47396  -0.47196
 Alpha  occ. eigenvalues --   -0.46526  -0.46336  -0.46049  -0.45772  -0.45713
 Alpha  occ. eigenvalues --   -0.45300  -0.45118  -0.44905  -0.44612  -0.44565
 Alpha  occ. eigenvalues --   -0.44311  -0.44103  -0.43806  -0.43608  -0.43387
 Alpha  occ. eigenvalues --   -0.43099  -0.43009  -0.42943  -0.42424  -0.42266
 Alpha  occ. eigenvalues --   -0.42186  -0.42034  -0.41942  -0.41387  -0.41223
 Alpha  occ. eigenvalues --   -0.41104  -0.40986  -0.40923  -0.40729  -0.40436
 Alpha  occ. eigenvalues --   -0.40078  -0.39878  -0.39457  -0.39380  -0.39259
 Alpha  occ. eigenvalues --   -0.38946  -0.38887  -0.38714  -0.38363  -0.38223
 Alpha  occ. eigenvalues --   -0.37994  -0.37819  -0.37769  -0.37659  -0.37379
 Alpha  occ. eigenvalues --   -0.37160  -0.37005  -0.36760  -0.36553  -0.36483
 Alpha  occ. eigenvalues --   -0.36383  -0.36269  -0.36097  -0.36043  -0.35886
 Alpha  occ. eigenvalues --   -0.35563  -0.35394  -0.35386  -0.34928  -0.34899
 Alpha  occ. eigenvalues --   -0.34789  -0.34611  -0.34192  -0.34014  -0.33985
 Alpha  occ. eigenvalues --   -0.33558  -0.33350  -0.33254  -0.33166  -0.32177
 Alpha  occ. eigenvalues --   -0.32031  -0.32012  -0.31848  -0.31323  -0.31076
 Alpha  occ. eigenvalues --   -0.30954  -0.30879  -0.30870  -0.30726  -0.30083
 Alpha  occ. eigenvalues --   -0.29582  -0.29477  -0.28883  -0.28170  -0.27953
 Alpha  occ. eigenvalues --   -0.27560  -0.27237  -0.26651  -0.25882  -0.25690
 Alpha  occ. eigenvalues --   -0.24857  -0.24323  -0.23726  -0.22065  -0.19658
 Alpha  occ. eigenvalues --   -0.18608
 Alpha virt. eigenvalues --   -0.09987  -0.07368  -0.04289  -0.01540  -0.01414
 Alpha virt. eigenvalues --   -0.00076   0.00239   0.00822   0.01883   0.03554
 Alpha virt. eigenvalues --    0.03925   0.04001   0.04244   0.04543   0.04852

 Mulliken charges:
               1
     1  C    0.061051
     2  C   -0.076220
     3  C   -0.112478
     4  C   -0.090827
     5  N   -0.208229
     6  C   -0.013426
     7  C   -0.083178
     8  C    0.032243
     9  C   -0.014539
    10  C    0.137536
    11  C    0.050531
    12  C   -0.001568
    13  C    0.166243
    14  O   -0.263998
    15  O   -0.288607
    16  N    0.068929
    17  C    0.042494
    18  C   -0.137584
    19  C    0.014892
    20  C    0.044593
    21  C    0.050004
    22  C   -0.085960
    23  C   -0.010105
    24  N   -0.295747
    25  C    0.099366
    26  C   -0.123778
    27  C   -0.082602
    28  C    0.157203
    29  C   -0.007224
    30  C    0.037114
    31  C   -0.011652
    32  N   -0.092501
    33  C    0.074646
    34  C   -0.191464
    35  C    0.066521
    36  C    0.001466
    37  C    0.095738
    38  C    0.052197
    39  O   -0.193109
    40  C   -0.044995
    41  C    0.192692
    42  O   -0.222061
    43  O   -0.285647
    44  C    0.240466
    45  C    0.383127
    46  C   -0.175293
    47  C   -0.109704
    48  C    0.006736
    49  C    0.110655
    50  C   -0.050690
    51  C    0.008051
    52  C   -0.117733
    53  C    0.043657
    54  C    0.144194
    55  C    0.090043
    56  C    0.093857
    57  C   -0.136549
    58  C    0.005869
    59  C    0.091965
    60  C   -0.030847
    61  C   -0.000757
    62  C   -0.138184
    63  C    0.010478
    64  C    0.035631
    65  H    0.001064
    66  H    0.028610
    67  H   -0.031276
    68  H    0.022829
    69  H   -0.031044
    70  H    0.005003
    71  H   -0.017049
    72  H    0.025643
    73  H    0.039365
    74  H   -0.010615
    75  H    0.066594
    76  H    0.020375
    77  H    0.052394
    78  H    0.016718
    79  H    0.046039
    80  H    0.018906
    81  H    0.017695
    82  H    0.018043
    83  H    0.061802
    84  H    0.037304
    85  H    0.033747
    86  H   -0.003695
    87  H    0.011177
    88  H    0.019962
    89  H    0.020398
    90  H    0.018910
    91  H    0.036732
    92  H    0.023915
    93  H    0.008295
    94  H    0.067728
    95  H    0.034104
    96  H    0.015548
    97  H    0.019697
    98  H    0.010865
    99  H   -0.020546
   100  H    0.000818
   101  H    0.019348
   102  H    0.048940
   103  H    0.027843
   104  H    0.005122
   105  H   -0.034192
   106  H    0.031320
   107  H    0.020864
   108  H   -0.009886
   109  H   -0.013408
   110  H    0.000446
   111  H    0.024757
   112  H    0.021462
   113  H    0.023096
   114  H   -0.044673
   115  H   -0.083822
   116  H   -0.036123
   117  H   -0.029975
   118  H   -0.010132
   119  H   -0.012522
   120  H    0.010375
   121  H   -0.000262
   122  H    0.005412
   123  H    0.005772
   124  H    0.003617
   125  H    0.001864
   126  H   -0.002513
   127  H   -0.012775
   128  H    0.007633
   129  H    0.015588
   130  H    0.008852
   131  H    0.004398
   132  H    0.000736
   133  H    0.018080
   134  H    0.018773
   135  H   -0.005362
   136  H    0.007469
   137  H    0.111392
   138  H    0.153496
 Sum of Mulliken charges =   0.00000

 Dipole moment (field-independent basis, Debye):
    X=              4.8029    Y=              5.1284    Z=              1.2630  Tot=              7.1389
 Quadrupole moment (field-independent basis, Debye-Ang):
   XX=           -368.7953   YY=           -379.7800   ZZ=           -394.0249
   XY=            -32.2376   XZ=             -2.2391   YZ=             -6.3751

 Normal termination of Gaussian 09 at Fri Aug  2 17:20:37 2019.
