 Gaussian 09, Revision D.01,
 Gaussian 09:  ES64L-G09RevD.01 24-Apr-2013

 --------------------------
 # td=(NStates=1) B3LYP/SVP
 --------------------------

 --
 TD
 --
 Symbolic Z-matrix:
 Charge =  0 Multiplicity = 1

                         Standard orientation:
 ---------------------------------------------------------------------
 Center     Atomic      Atomic             Coordinates (Angstroms)
 Number     Number       Type             X           Y           Z
 ---------------------------------------------------------------------
      1          6           0       -5.106029   -1.922417    0.456192
      2          6           0       -4.753064    2.785652    1.273566
      3          6           0       -9.372013    3.247974   -0.244133
      4          6           0       -9.817043   -1.489588   -0.922969
      5          7           0       -5.164709    0.502973    0.687811
      6          6           0       -4.568263   -0.648462    0.797006
      7          6           0       -3.064017   -0.448965    1.229370
      8          6           0       -3.083652    0.937340    1.775791
      9          6           0       -4.498843    1.415951    1.272252
     10          6           0       -2.942365    1.094270    3.364430
     11          6           0       -2.053403   -0.714610    0.077498
     12          6           0       -0.573632   -0.784156    0.568990
     13          6           0        0.283906   -1.005650   -0.593488
     14          8           0        0.065442   -1.178777   -1.802021
     15          8           0        1.585885   -0.790994   -0.106640
     16          7           0       -7.064315    2.733807    0.409042
     17          6           0       -5.949962    3.335996    0.901418
     18          6           0       -6.323370    4.772998    1.071267
     19          6           0       -7.540219    4.892718    0.525641
     20          6           0       -8.048857    3.647058    0.175431
     21          6           0       -5.313193    5.849739    1.435813
     22          6           0       -8.292079    6.223068    0.461527
     23          6           0       -9.138717    6.630699   -0.539034
     24          7           0       -9.187844    0.831292   -0.546049
     25          6           0       -9.927657    1.980356   -0.530189
     26          6           0      -11.222026    1.778622   -1.001139
     27          6           0      -11.431849    0.461575   -1.210213
     28          6           0       -9.986275   -0.087838   -0.915838
     29          6           0      -12.391898    2.848195   -1.089638
     30          6           0      -12.575062   -0.329661   -1.592462
     31          6           0      -12.563181   -0.694751   -3.111224
     32          7           0       -7.459859   -1.300977   -0.332805
     33          6           0       -8.580742   -2.039365   -0.650036
     34          6           0       -8.133021   -3.435188   -0.585712
     35          6           0       -6.812958   -3.474528   -0.189374
     36          6           0       -6.426851   -2.108019   -0.022034
     37          6           0       -8.971835   -4.594131   -0.983369
     38          6           0       -5.717484   -4.337262    0.024799
     39          8           0       -5.599567   -5.531939   -0.018292
     40          6           0       -4.543692   -3.221996    0.461834
     41          6           0       -3.940495   -3.745448    1.709356
     42          8           0       -4.177835   -3.234912    2.821624
     43          8           0       -3.075639   -4.794352    1.560228
     44          6           0       -2.495516   -5.340616    2.681399
     45          6           0        2.623401   -1.027112   -1.114124
     46          6           0        3.959197   -0.752491   -0.392334
     47          6           0        4.895756    0.023178   -0.974498
     48          6           0        4.831070    0.721335   -2.213515
     49          6           0        6.159583    0.316817   -0.102459
     50          6           0        7.460287   -0.212717   -0.790753
     51          6           0        8.768904   -0.121639    0.011434
     52          6           0       10.065026   -0.564884   -0.669764
     53          6           0        9.972760   -2.243409   -1.022430
     54          6           0       11.378630   -0.304922    0.108994
     55          6           0       12.686116   -0.532007   -0.613151
     56          6           0       13.912417   -0.152990    0.326815
     57          6           0       15.221225   -0.236200   -0.305672
     58          6           0       15.635611   -1.666069   -0.526198
     59          6           0       16.258770    0.483279    0.433574
     60          6           0       17.668218    0.725863   -0.333598
     61          6           0       18.704299    1.608362    0.416207
     62          6           0       20.250570    1.624025   -0.040570
     63          6           0       20.466969    2.214187   -1.380796
     64          6           0       21.089907    2.250596    1.067697
     65          1           0       -4.033999    3.557131    1.754415
     66          1           0       -9.970335    4.103300   -0.441469
     67          1           0      -10.627540   -2.024274   -1.208016
     68          1           0       -2.864788   -1.282036    2.095409
     69          1           0       -2.239093    1.384176    1.264320
     70          1           0       -1.977937    0.722601    3.806931
     71          1           0       -3.417250    2.035202    3.633122
     72          1           0       -3.816375    0.398616    3.638345
     73          1           0       -2.225050   -1.550858   -0.502052
     74          1           0       -2.113695    0.127620   -0.796281
     75          1           0       -0.360778    0.289606    1.148648
     76          1           0       -0.356392   -1.575500    1.339017
     77          1           0       -4.371445    5.895432    0.787979
     78          1           0       -5.708235    6.853215    1.403632
     79          1           0       -4.916525    5.649967    2.286810
     80          1           0       -7.980467    7.005486    1.206824
     81          1           0       -9.308492    6.117630   -1.538960
     82          1           0       -9.713468    7.583126   -0.404983
     83          1           0      -12.700086    3.378248   -0.286506
     84          1           0      -12.008649    3.687374   -1.813862
     85          1           0      -13.271791    2.357739   -1.650348
     86          1           0      -12.823614   -1.357238   -1.047089
     87          1           0      -13.545355    0.289619   -1.408089
     88          1           0      -12.338077    0.052871   -3.821851
     89          1           0      -11.658722   -1.284822   -3.442181
     90          1           0      -13.589110   -1.179773   -3.411332
     91          1           0       -9.876320   -4.628455   -0.356124
     92          1           0       -9.356933   -4.454892   -2.048389
     93          1           0       -8.503027   -5.398912   -0.661040
     94          1           0       -3.859350   -3.213642   -0.204521
     95          1           0       -1.583279   -5.913298    2.235888
     96          1           0       -2.119816   -4.512180    3.285572
     97          1           0       -3.352435   -6.202265    3.257368
     98          1           0        2.523693   -2.155468   -1.465967
     99          1           0        2.282005   -0.558976   -1.942811
    100          1           0        4.022863   -1.077372    0.709553
    101          1           0        5.177898    1.590417   -2.062766
    102          1           0        5.601588    0.337528   -2.883180
    103          1           0        3.759065    0.673602   -2.859698
    104          1           0        6.442648    1.376313   -0.025402
    105          1           0        6.195137   -0.085342    0.870700
    106          1           0        7.405193   -1.402236   -0.980369
    107          1           0        7.674024    0.179726   -1.954808
    108          1           0        8.867268    0.985089    0.513570
    109          1           0        8.576028   -0.844670    0.868012
    110          1           0       10.088964   -0.142122   -1.621883
    111          1           0        8.953039   -2.113148   -1.580086
    112          1           0       10.795044   -2.598679   -1.710159
    113          1           0        9.930420   -2.937644   -0.072495
    114          1           0       11.439095    0.698773    0.403464
    115          1           0       11.212611   -0.962311    1.003427
    116          1           0       12.857261   -1.575274   -0.717904
    117          1           0       12.863000    0.017063   -1.538512
    118          1           0       13.671988    0.946253    0.694930
    119          1           0       13.961272   -0.895278    1.226469
    120          1           0       15.186187    0.358432   -1.177143
    121          1           0       14.633771   -2.185507   -1.250639
    122          1           0       16.489034   -1.960675   -1.284982
    123          1           0       15.710685   -2.427630    0.390918
    124          1           0       16.028089    1.450310    0.669975
    125          1           0       16.280354    0.105903    1.586627
    126          1           0       18.154857   -0.271458   -0.517910
    127          1           0       17.392613    1.017392   -1.345450
    128          1           0       18.462288    2.637621    0.605071
    129          1           0       18.680868    1.323496    1.523434
    130          1           0       20.419866    0.657508   -0.257899
    131          1           0       20.068332    3.394124   -1.384953
    132          1           0       21.467694    2.140429   -1.548914
    133          1           0       19.779549    1.638334   -2.127455
    134          1           0       20.629529    1.831701    2.160552
    135          1           0       22.085974    2.357080    0.656562
    136          1           0       20.636815    3.261377    1.270414
    137          1           0       -7.155188    1.741064    0.213541
    138          1           0       -7.712340   -0.355006   -0.127711
 ---------------------------------------------------------------------

 SCF Done:  E(RB3LYP) =  -2733.02806895     A.U. after   17 cycles

 Excitation energies and oscillator strengths:

 Excited State   1:      Singlet-A      2.0523 eV  604.12 nm  f=0.1929  <S**2>=0.000
     235 -> 237       -0.12135
     235 -> 238       -0.26805
     236 -> 237        0.63335
     236 -> 238       -0.11259
 This state for optimization and/or second-order correction.
 Total Energy, E(TD-HF/TD-KS) =  -2732.95264850
 Copying the excited state density for this state as the 1-particle RhoCI density.

 The electronic state is 1-A.
 Alpha  occ. eigenvalues --  -19.17778 -19.16426 -19.13650 -19.13558 -19.11777
 Alpha  occ. eigenvalues --  -14.37042 -14.36823 -14.32284 -14.30434 -10.31928
 Alpha  occ. eigenvalues --  -10.31460 -10.28744 -10.26197 -10.23910 -10.23766
 Alpha  occ. eigenvalues --  -10.23557 -10.23516 -10.23346 -10.23265 -10.22689
 Alpha  occ. eigenvalues --  -10.22146 -10.21690 -10.21675 -10.21490 -10.21421
 Alpha  occ. eigenvalues --  -10.21223 -10.21139 -10.20904 -10.20679 -10.20315
 Alpha  occ. eigenvalues --  -10.20258 -10.20205 -10.20152 -10.20095 -10.20080
 Alpha  occ. eigenvalues --  -10.20026 -10.19994 -10.19803 -10.19655 -10.19647
 Alpha  occ. eigenvalues --  -10.19646 -10.19589 -10.19570 -10.19540 -10.19403
 Alpha  occ. eigenvalues --  -10.19389 -10.19383 -10.19315 -10.19173 -10.19169
 Alpha  occ. eigenvalues --  -10.19148 -10.19045 -10.19032 -10.18854 -10.18730
 Alpha  occ. eigenvalues --  -10.18645 -10.18630 -10.18549 -10.18287 -10.18085
 Alpha  occ. eigenvalues --  -10.17985 -10.17772 -10.17718 -10.17642  -1.09251
 Alpha  occ. eigenvalues --   -1.07145  -1.04271  -0.99509  -0.99235  -0.99199
 Alpha  occ. eigenvalues --   -0.99121  -0.97608  -0.95993  -0.86643  -0.83153
 Alpha  occ. eigenvalues --   -0.82719  -0.82052  -0.81542  -0.81124  -0.80788
 Alpha  occ. eigenvalues --   -0.80598  -0.80172  -0.79968  -0.79705  -0.77710
 Alpha  occ. eigenvalues --   -0.76733  -0.76355  -0.75818  -0.74369  -0.73967
 Alpha  occ. eigenvalues --   -0.73918  -0.73286  -0.72914  -0.72167  -0.71606
 Alpha  occ. eigenvalues --   -0.70483  -0.69240  -0.68817  -0.68106  -0.67486
 Alpha  occ. eigenvalues --   -0.67204  -0.66835  -0.66136  -0.65463  -0.65164
 Alpha  occ. eigenvalues --   -0.64894  -0.63446  -0.62544  -0.62452  -0.61644
 Alpha  occ. eigenvalues --   -0.61305  -0.58892  -0.58779  -0.58714  -0.57242
 Alpha  occ. eigenvalues --   -0.56813  -0.56588  -0.55923  -0.55529  -0.55384
 Alpha  occ. eigenvalues --   -0.55260  -0.55047  -0.54689  -0.54224  -0.53726
 Alpha  occ. eigenvalues --   -0.53156  -0.52892  -0.52363  -0.51644  -0.51181
 Alpha  occ. eigenvalues --   -0.50804  -0.49117  -0.48728  -0.48620  -0.48247
 Alpha  occ. eigenvalues --   -0.48110  -0.47417  -0.47388  -0.46911  -0.46813
 Alpha  occ. eigenvalues --   -0.46657  -0.46486  -0.46339  -0.46203  -0.45859
 Alpha  occ. eigenvalues --   -0.45796  -0.45457  -0.45181  -0.44925  -0.44776
 Alpha  occ. eigenvalues --   -0.44597  -0.44490  -0.44279  -0.44085  -0.43662
 Alpha  occ. eigenvalues --   -0.43529  -0.43228  -0.43038  -0.42917  -0.42874
 Alpha  occ. eigenvalues --   -0.42590  -0.42343  -0.42249  -0.42148  -0.41819
 Alpha  occ. eigenvalues --   -0.41578  -0.41393  -0.40881  -0.40730  -0.40524
 Alpha  occ. eigenvalues --   -0.40218  -0.39989  -0.39916  -0.39780  -0.39590
 Alpha  occ. eigenvalues --   -0.39297  -0.39219  -0.38979  -0.38744  -0.38637
 Alpha  occ. eigenvalues --   -0.38474  -0.38418  -0.38110  -0.38002  -0.37963
 Alpha  occ. eigenvalues --   -0.37795  -0.37508  -0.37420  -0.37321  -0.36996
 Alpha  occ. eigenvalues --   -0.36789  -0.36354  -0.36254  -0.36148  -0.36052
 Alpha  occ. eigenvalues --   -0.35795  -0.35669  -0.35577  -0.34847  -0.34755
 Alpha  occ. eigenvalues --   -0.34479  -0.33992  -0.33759  -0.33581  -0.33409
 Alpha  occ. eigenvalues --   -0.32945  -0.32899  -0.32822  -0.32491  -0.32475
 Alpha  occ. eigenvalues --   -0.32249  -0.31738  -0.31632  -0.31589  -0.31371
 Alpha  occ. eigenvalues --   -0.31037  -0.30710  -0.30533  -0.29849  -0.29562
 Alpha  occ. eigenvalues --   -0.29315  -0.28835  -0.28683  -0.28361  -0.27804
 Alpha  occ. eigenvalues --   -0.27546  -0.27280  -0.27118  -0.26993  -0.26438
 Alpha  occ. eigenvalues --   -0.25555  -0.24546  -0.24501  -0.23881  -0.20280
 Alpha  occ. eigenvalues --   -0.18735
 Alpha virt. eigenvalues --   -0.10359  -0.07638  -0.04798  -0.02329  -0.02040
 Alpha virt. eigenvalues --   -0.00701   0.00390   0.00593   0.02180   0.03580
 Alpha virt. eigenvalues --    0.03703   0.03986   0.04178   0.04619   0.04939

 Mulliken charges:
               1
     1  C    0.086519
     2  C   -0.087880
     3  C   -0.047243
     4  C   -0.038424
     5  N   -0.046270
     6  C   -0.093869
     7  C   -0.108400
     8  C   -0.018935
     9  C   -0.040929
    10  C    0.066097
    11  C    0.046035
    12  C   -0.035125
    13  C    0.225644
    14  O   -0.251258
    15  O   -0.366550
    16  N   -0.028079
    17  C    0.074833
    18  C   -0.153639
    19  C    0.040330
    20  C    0.032087
    21  C    0.174960
    22  C   -0.048876
    23  C   -0.065203
    24  N   -0.173595
    25  C    0.086969
    26  C   -0.119189
    27  C   -0.059567
    28  C   -0.012912
    29  C    0.090933
    30  C   -0.006901
    31  C   -0.010931
    32  N    0.000295
    33  C    0.091409
    34  C   -0.198871
    35  C    0.061915
    36  C    0.001117
    37  C    0.202701
    38  C    0.036292
    39  O   -0.134704
    40  C    0.053870
    41  C    0.188726
    42  O   -0.263032
    43  O   -0.277472
    44  C    0.109025
    45  C    0.267086
    46  C   -0.086857
    47  C   -0.120887
    48  C    0.185547
    49  C    0.135488
    50  C   -0.151253
    51  C    0.005456
    52  C   -0.040033
    53  C   -0.092267
    54  C    0.094535
    55  C    0.077422
    56  C   -0.079691
    57  C    0.071577
    58  C   -0.092450
    59  C    0.015562
    60  C    0.053079
    61  C   -0.008264
    62  C   -0.042405
    63  C    0.010805
    64  C    0.030672
    65  H    0.007194
    66  H   -0.058339
    67  H   -0.073701
    68  H    0.038293
    69  H   -0.012206
    70  H    0.042027
    71  H    0.000686
    72  H    0.021830
    73  H   -0.009954
    74  H    0.028787
    75  H    0.074784
    76  H    0.049681
    77  H    0.027794
    78  H    0.006441
    79  H   -0.034221
    80  H    0.022569
    81  H    0.050314
    82  H    0.034244
    83  H    0.005578
    84  H    0.013988
    85  H    0.023089
    86  H    0.035166
    87  H    0.014832
    88  H   -0.006580
    89  H    0.005480
    90  H    0.029497
    91  H    0.005696
    92  H    0.047358
    93  H   -0.021708
    94  H   -0.039316
    95  H    0.042777
    96  H    0.034243
    97  H    0.059180
    98  H    0.020800
    99  H   -0.022728
   100  H    0.022438
   101  H   -0.055002
   102  H    0.011100
   103  H    0.046477
   104  H    0.002763
   105  H   -0.018169
   106  H    0.027411
   107  H    0.014821
   108  H    0.008888
   109  H    0.002799
   110  H   -0.031356
   111  H    0.030833
   112  H    0.035117
   113  H    0.034610
   114  H   -0.032484
   115  H   -0.004353
   116  H   -0.009711
   117  H   -0.007596
   118  H    0.003474
   119  H    0.003914
   120  H   -0.038469
   121  H    0.003588
   122  H    0.038069
   123  H    0.042053
   124  H   -0.042206
   125  H   -0.014316
   126  H   -0.002348
   127  H   -0.007538
   128  H   -0.026437
   129  H   -0.012452
   130  H   -0.040610
   131  H    0.010229
   132  H   -0.006340
   133  H    0.024782
   134  H    0.026945
   135  H    0.015424
   136  H   -0.001597
   137  H    0.138324
   138  H    0.128325
 Sum of Mulliken charges =   0.00000

 Dipole moment (field-independent basis, Debye):
    X=              0.8129    Y=              4.5069    Z=             -0.0713  Tot=              4.5802
 Quadrupole moment (field-independent basis, Debye-Ang):
   XX=           -346.8086   YY=           -385.6285   ZZ=           -399.2913
   XY=            -17.2880   XZ=              6.3673   YZ=              1.6533

 Normal termination of Gaussian 09 at Sun Aug  4 21:03:04 2019.
