 Gaussian 09, Revision D.01,
 Gaussian 09:  ES64L-G09RevD.01 24-Apr-2013

 --------------------------
 # td=(NStates=1) B3LYP/SVP
 --------------------------

 --
 TD
 --
 Symbolic Z-matrix:
 Charge =  0 Multiplicity = 1

                         Standard orientation:
 ---------------------------------------------------------------------
 Center     Atomic      Atomic             Coordinates (Angstroms)
 Number     Number       Type             X           Y           Z
 ---------------------------------------------------------------------
      1          6           0       -5.151699   -1.955908    0.354520
      2          6           0       -4.757208    2.700393    1.168661
      3          6           0       -9.426430    3.358758   -0.165985
      4          6           0       -9.826975   -1.423901   -0.788814
      5          7           0       -5.151755    0.344908    0.701394
      6          6           0       -4.470632   -0.854686    0.803771
      7          6           0       -2.982666   -0.616223    1.130248
      8          6           0       -3.060064    0.792086    1.570695
      9          6           0       -4.348931    1.350549    1.073246
     10          6           0       -2.995668    0.880315    3.176373
     11          6           0       -1.974558   -0.787223   -0.097288
     12          6           0       -0.633815   -0.682423    0.312480
     13          6           0        0.396820   -0.870404   -0.799400
     14          8           0        0.112468   -1.062363   -2.002532
     15          8           0        1.645856   -0.716213   -0.364656
     16          7           0       -7.087297    2.724860    0.432217
     17          6           0       -6.000565    3.367496    0.892542
     18          6           0       -6.241098    4.794609    0.981198
     19          6           0       -7.444316    5.035783    0.532935
     20          6           0       -8.096503    3.639830    0.202337
     21          6           0       -5.158096    5.796864    1.493240
     22          6           0       -8.178448    6.292180    0.279883
     23          6           0       -9.167142    6.578873   -0.576891
     24          7           0       -9.320848    0.906492   -0.349431
     25          6           0       -9.942629    1.995254   -0.457853
     26          6           0      -11.281609    1.829393   -0.787084
     27          6           0      -11.519575    0.504427   -0.885055
     28          6           0      -10.151307   -0.090919   -0.714714
     29          6           0      -12.451312    2.755160   -0.919688
     30          6           0      -12.765838   -0.236419   -1.291877
     31          6           0      -12.793174   -0.554907   -2.896577
     32          7           0       -7.512591   -1.300906   -0.205413
     33          6           0       -8.597359   -2.079149   -0.531103
     34          6           0       -8.231021   -3.516740   -0.664839
     35          6           0       -6.860455   -3.482231   -0.165744
     36          6           0       -6.456106   -2.099471   -0.057984
     37          6           0       -9.010711   -4.665889   -1.004855
     38          6           0       -5.692998   -4.327661    0.063637
     39          8           0       -5.717807   -5.563903   -0.004556
     40          6           0       -4.557852   -3.333403    0.332945
     41          6           0       -3.831312   -3.769132    1.732765
     42          8           0       -3.962314   -3.427980    2.813399
     43          8           0       -2.993084   -4.753084    1.339711
     44          6           0       -2.620109   -5.294003    2.731997
     45          6           0        2.758543   -0.919787   -1.321573
     46          6           0        4.036418   -0.648815   -0.598292
     47          6           0        4.962483    0.209448   -1.041253
     48          6           0        4.903198    1.098290   -2.230115
     49          6           0        6.257335    0.348069   -0.242384
     50          6           0        7.470619   -0.379345   -0.922845
     51          6           0        8.704544   -0.185671   -0.075548
     52          6           0       10.079465   -0.719541   -0.650440
     53          6           0       10.026211   -2.236424   -1.063721
     54          6           0       11.333777   -0.376701    0.109292
     55          6           0       12.612866   -0.503894   -0.643277
     56          6           0       13.845714    0.019260    0.206355
     57          6           0       15.289275   -0.147144   -0.362546
     58          6           0       15.682109   -1.643285   -0.544185
     59          6           0       16.299494    0.583225    0.543569
     60          6           0       17.724361    0.620432   -0.088749
     61          6           0       18.674501    1.470765    0.704880
     62          6           0       20.105768    1.543105    0.266239
     63          6           0       20.270426    1.912645   -1.195401
     64          6           0       20.950182    2.409465    1.161663
     65          1           0       -4.026526    3.504800    1.537530
     66          1           0      -10.077490    4.123778   -0.157657
     67          1           0      -10.705761   -2.080986   -1.417964
     68          1           0       -2.840819   -1.260117    2.116139
     69          1           0       -2.212634    1.421424    1.366547
     70          1           0       -2.264265    0.356462    3.811560
     71          1           0       -2.886157    1.803221    3.733654
     72          1           0       -3.913097    0.373814    3.612454
     73          1           0       -2.387821   -1.868963   -0.456243
     74          1           0       -2.170041   -0.011116   -0.917611
     75          1           0       -0.427290    0.320425    0.640099
     76          1           0       -0.421093   -1.484474    1.132253
     77          1           0       -4.783317    6.408066    0.318857
     78          1           0       -5.781872    6.823033    2.014170
     79          1           0       -4.268920    5.267208    2.293521
     80          1           0       -7.796138    7.236782    0.913104
     81          1           0       -9.450109    5.674554   -1.231744
     82          1           0       -9.670857    7.584762   -0.692170
     83          1           0      -12.422398    3.594150   -0.054006
     84          1           0      -12.525041    3.366744   -1.919586
     85          1           0      -13.381826    2.141210   -0.833233
     86          1           0      -12.535322   -1.112153   -0.951783
     87          1           0      -13.484202    0.242971   -0.862447
     88          1           0      -13.143947    0.330338   -3.465853
     89          1           0      -11.754098   -0.778660   -3.209197
     90          1           0      -13.623119   -1.337621   -3.060461
     91          1           0      -10.014405   -4.518447   -0.610418
     92          1           0       -8.995897   -4.780531   -2.220005
     93          1           0       -8.418203   -5.558665   -0.552004
     94          1           0       -3.765848   -3.377034   -0.362444
     95          1           0       -2.180130   -6.444198    2.540074
     96          1           0       -1.688084   -4.726341    3.206693
     97          1           0       -3.623109   -5.094731    3.530120
     98          1           0        2.737562   -1.825086   -1.635832
     99          1           0        2.380588   -0.366096   -2.283896
    100          1           0        4.344560   -1.257651    0.344827
    101          1           0        5.252616    2.156110   -1.649718
    102          1           0        5.735462    0.818360   -2.876370
    103          1           0        4.137736    1.146703   -3.029909
    104          1           0        6.674418    1.277743   -0.250821
    105          1           0        6.062639    0.027360    0.735719
    106          1           0        7.304742   -1.470910   -1.120853
    107          1           0        7.564113    0.097350   -1.983218
    108          1           0        8.993021    0.815688    0.151869
    109          1           0        8.543823   -0.347725    1.116771
    110          1           0       10.092536   -0.072470   -1.663700
    111          1           0        9.253856   -2.481883   -1.852125
    112          1           0       11.060082   -2.607450   -1.363225
    113          1           0        9.783670   -2.710214   -0.227310
    114          1           0       11.346833    0.724732    0.403100
    115          1           0       11.403403   -0.933150    1.082585
    116          1           0       12.897527   -1.650611   -0.738578
    117          1           0       12.657429   -0.063396   -1.658974
    118          1           0       13.848518    1.065464    0.104160
    119          1           0       13.962402   -0.427394    1.240459
    120          1           0       15.428005    0.367808   -1.366227
    121          1           0       15.092086   -2.225369   -1.192913
    122          1           0       16.895385   -1.643692   -0.739562
    123          1           0       15.468676   -2.032721    0.674955
    124          1           0       15.917458    1.751864    0.732075
    125          1           0       16.378492    0.090851    1.587912
    126          1           0       18.162463   -0.310046   -0.101378
    127          1           0       17.624935    0.990786   -1.126612
    128          1           0       18.138484    2.482723    0.819394
    129          1           0       18.708773    1.223761    1.806615
    130          1           0       20.223702    0.360834    0.154832
    131          1           0       20.017160    3.113240   -1.415439
    132          1           0       21.338730    1.678206   -1.716673
    133          1           0       19.807148    1.468248   -1.868542
    134          1           0       20.988209    1.825218    2.112990
    135          1           0       22.043471    2.378272    0.776724
    136          1           0       20.721286    3.577739    1.183687
    137          1           0       -7.187460    1.765834    0.219058
    138          1           0       -7.573757   -0.370121    0.283545
 ---------------------------------------------------------------------

 SCF Done:  E(RB3LYP) =  -2732.92873295     A.U. after   17 cycles

 Excitation energies and oscillator strengths:

 Excited State   1:      Singlet-A      2.1466 eV  577.59 nm  f=0.1335  <S**2>=0.000
     235 -> 237       -0.19906
     235 -> 238       -0.32555
     236 -> 237        0.57686
     236 -> 238       -0.13291
 This state for optimization and/or second-order correction.
 Total Energy, E(TD-HF/TD-KS) =  -2732.84984740
 Copying the excited state density for this state as the 1-particle RhoCI density.

 The electronic state is 1-A.
 Alpha  occ. eigenvalues --  -19.18482 -19.17501 -19.14318 -19.11603 -19.11342
 Alpha  occ. eigenvalues --  -14.37583 -14.37223 -14.31931 -14.28947 -10.31796
 Alpha  occ. eigenvalues --  -10.31291 -10.27099 -10.26987 -10.26467 -10.24865
 Alpha  occ. eigenvalues --  -10.24699 -10.24333 -10.23618 -10.23044 -10.22564
 Alpha  occ. eigenvalues --  -10.22467 -10.21960 -10.21928 -10.21666 -10.21467
 Alpha  occ. eigenvalues --  -10.21348 -10.21140 -10.20903 -10.20899 -10.20879
 Alpha  occ. eigenvalues --  -10.20771 -10.20641 -10.20585 -10.20551 -10.20547
 Alpha  occ. eigenvalues --  -10.20534 -10.20334 -10.20327 -10.20227 -10.20196
 Alpha  occ. eigenvalues --  -10.20166 -10.20141 -10.20071 -10.19882 -10.19587
 Alpha  occ. eigenvalues --  -10.19546 -10.19476 -10.19460 -10.19402 -10.19343
 Alpha  occ. eigenvalues --  -10.19343 -10.19309 -10.19004 -10.18908 -10.18620
 Alpha  occ. eigenvalues --  -10.18378 -10.18315 -10.18096 -10.18000 -10.17835
 Alpha  occ. eigenvalues --  -10.17473 -10.17361 -10.16968 -10.16590  -1.12621
 Alpha  occ. eigenvalues --   -1.08350  -1.02495  -1.00635  -0.99242  -0.98673
 Alpha  occ. eigenvalues --   -0.98232  -0.96213  -0.94579  -0.85327  -0.83233
 Alpha  occ. eigenvalues --   -0.82856  -0.82329  -0.82241  -0.81327  -0.80601
 Alpha  occ. eigenvalues --   -0.80029  -0.79801  -0.79624  -0.78515  -0.78086
 Alpha  occ. eigenvalues --   -0.77154  -0.76345  -0.75282  -0.74869  -0.74307
 Alpha  occ. eigenvalues --   -0.73772  -0.72695  -0.71888  -0.71636  -0.70243
 Alpha  occ. eigenvalues --   -0.68812  -0.68340  -0.68217  -0.67847  -0.67256
 Alpha  occ. eigenvalues --   -0.67035  -0.66242  -0.66067  -0.65788  -0.65756
 Alpha  occ. eigenvalues --   -0.64249  -0.63302  -0.62981  -0.62409  -0.61601
 Alpha  occ. eigenvalues --   -0.61016  -0.59586  -0.58453  -0.58176  -0.57214
 Alpha  occ. eigenvalues --   -0.57168  -0.56523  -0.55955  -0.55378  -0.54967
 Alpha  occ. eigenvalues --   -0.54932  -0.54321  -0.53543  -0.53497  -0.53046
 Alpha  occ. eigenvalues --   -0.52844  -0.51829  -0.51783  -0.51346  -0.50944
 Alpha  occ. eigenvalues --   -0.50221  -0.49579  -0.49453  -0.49111  -0.48718
 Alpha  occ. eigenvalues --   -0.48529  -0.48265  -0.48025  -0.47666  -0.47232
 Alpha  occ. eigenvalues --   -0.46622  -0.46395  -0.46253  -0.46034  -0.45937
 Alpha  occ. eigenvalues --   -0.45574  -0.45289  -0.45177  -0.44902  -0.44634
 Alpha  occ. eigenvalues --   -0.44471  -0.44277  -0.44094  -0.43730  -0.43649
 Alpha  occ. eigenvalues --   -0.43503  -0.42967  -0.42754  -0.42696  -0.42552
 Alpha  occ. eigenvalues --   -0.42336  -0.42096  -0.41640  -0.41546  -0.41447
 Alpha  occ. eigenvalues --   -0.41163  -0.40861  -0.40378  -0.40213  -0.39871
 Alpha  occ. eigenvalues --   -0.39806  -0.39331  -0.39163  -0.39061  -0.39005
 Alpha  occ. eigenvalues --   -0.38880  -0.38663  -0.38459  -0.38343  -0.38125
 Alpha  occ. eigenvalues --   -0.37834  -0.37774  -0.37651  -0.37456  -0.37032
 Alpha  occ. eigenvalues --   -0.36909  -0.36717  -0.36633  -0.36552  -0.36400
 Alpha  occ. eigenvalues --   -0.36134  -0.35984  -0.35922  -0.35632  -0.35566
 Alpha  occ. eigenvalues --   -0.35473  -0.35292  -0.35112  -0.35088  -0.34887
 Alpha  occ. eigenvalues --   -0.34813  -0.34501  -0.34294  -0.34079  -0.34008
 Alpha  occ. eigenvalues --   -0.33919  -0.33687  -0.33677  -0.33338  -0.33320
 Alpha  occ. eigenvalues --   -0.32491  -0.32437  -0.31735  -0.31588  -0.31487
 Alpha  occ. eigenvalues --   -0.31204  -0.31002  -0.30809  -0.30302  -0.29891
 Alpha  occ. eigenvalues --   -0.29714  -0.29355  -0.29060  -0.28892  -0.27712
 Alpha  occ. eigenvalues --   -0.27490  -0.26822  -0.26427  -0.25880  -0.25432
 Alpha  occ. eigenvalues --   -0.25266  -0.25129  -0.24154  -0.22456  -0.19753
 Alpha  occ. eigenvalues --   -0.18814
 Alpha virt. eigenvalues --   -0.09649  -0.07928  -0.04687  -0.01937   0.00151
 Alpha virt. eigenvalues --    0.00304   0.00693   0.00979   0.01564   0.01940
 Alpha virt. eigenvalues --    0.03741   0.03796   0.04023   0.04192   0.04271

 Mulliken charges:
               1
     1  C    0.066922
     2  C   -0.055712
     3  C   -0.036890
     4  C   -0.128556
     5  N   -0.198642
     6  C   -0.131745
     7  C   -0.009457
     8  C   -0.000218
     9  C    0.034469
    10  C    0.002332
    11  C    0.029441
    12  C    0.080078
    13  C    0.169967
    14  O   -0.282770
    15  O   -0.319265
    16  N    0.001280
    17  C    0.033673
    18  C   -0.060610
    19  C    0.062729
    20  C    0.056810
    21  C   -0.113122
    22  C   -0.084218
    23  C   -0.056452
    24  N   -0.126251
    25  C    0.013067
    26  C   -0.113171
    27  C   -0.163258
    28  C   -0.001738
    29  C    0.029040
    30  C    0.264948
    31  C   -0.035004
    32  N   -0.002009
    33  C    0.039844
    34  C   -0.106463
    35  C   -0.048265
    36  C    0.038210
    37  C    0.037881
    38  C    0.088854
    39  O   -0.198583
    40  C   -0.041113
    41  C    0.188315
    42  O   -0.168134
    43  O   -0.301941
    44  C    0.013397
    45  C    0.328040
    46  C   -0.085178
    47  C   -0.136043
    48  C    0.052546
    49  C    0.127966
    50  C   -0.000243
    51  C    0.017672
    52  C   -0.088942
    53  C    0.065530
    54  C    0.043155
    55  C    0.001842
    56  C    0.045724
    57  C   -0.091065
    58  C   -0.034192
    59  C   -0.059423
    60  C    0.073910
    61  C    0.001301
    62  C   -0.086371
    63  C    0.047003
    64  C    0.033401
    65  H   -0.026927
    66  H   -0.079271
    67  H    0.036119
    68  H    0.046490
    69  H   -0.016333
    70  H    0.002010
    71  H   -0.001029
    72  H    0.013424
    73  H    0.033482
    74  H    0.032056
    75  H    0.021687
    76  H    0.044623
    77  H    0.070924
    78  H    0.063469
    79  H    0.096190
    80  H    0.015507
    81  H    0.044130
    82  H    0.047045
    83  H    0.028479
    84  H    0.030331
    85  H    0.015447
    86  H   -0.062592
    87  H   -0.053725
    88  H    0.014604
    89  H    0.034737
    90  H    0.030033
    91  H    0.033238
    92  H    0.058976
    93  H    0.069124
    94  H    0.040157
    95  H    0.060189
    96  H    0.055296
    97  H    0.117934
    98  H   -0.041628
    99  H    0.041616
   100  H    0.015724
   101  H    0.042233
   102  H    0.012182
   103  H    0.024691
   104  H   -0.036633
   105  H   -0.012034
   106  H    0.010448
   107  H    0.011265
   108  H   -0.032127
   109  H   -0.012395
   110  H   -0.005109
   111  H    0.022484
   112  H    0.012890
   113  H   -0.030051
   114  H   -0.006477
   115  H    0.000188
   116  H    0.008492
   117  H    0.003067
   118  H   -0.017566
   119  H    0.009991
   120  H   -0.009205
   121  H    0.024905
   122  H    0.035945
   123  H    0.005287
   124  H    0.017318
   125  H    0.006228
   126  H   -0.020553
   127  H    0.006645
   128  H   -0.024778
   129  H   -0.014904
   130  H    0.002766
   131  H    0.004338
   132  H    0.004291
   133  H   -0.069757
   134  H    0.017809
   135  H    0.012692
   136  H    0.045479
   137  H    0.116131
   138  H    0.177987
 Sum of Mulliken charges =   0.00000

 Dipole moment (field-independent basis, Debye):
    X=              3.1851    Y=              5.0302    Z=              1.2549  Tot=              6.0846
 Quadrupole moment (field-independent basis, Debye-Ang):
   XX=           -356.5865   YY=           -392.7874   ZZ=           -394.2641
   XY=            -27.4419   XZ=              1.6803   YZ=             -1.7078

 Normal termination of Gaussian 09 at Fri Aug  2 14:27:42 2019.
