 Gaussian 09, Revision D.01,
 Gaussian 09:  ES64L-G09RevD.01 24-Apr-2013

 --------------------------
 # td=(NStates=1) B3LYP/SVP
 --------------------------

 --
 TD
 --
 Symbolic Z-matrix:
 Charge =  0 Multiplicity = 1

                         Standard orientation:
 ---------------------------------------------------------------------
 Center     Atomic      Atomic             Coordinates (Angstroms)
 Number     Number       Type             X           Y           Z
 ---------------------------------------------------------------------
      1          6           0       -5.130327   -1.963080    0.345968
      2          6           0       -4.685749    2.643697    1.467877
      3          6           0       -9.248993    3.397774   -0.124616
      4          6           0       -9.731908   -1.330425   -0.972599
      5          7           0       -5.109290    0.369970    0.871405
      6          6           0       -4.581233   -0.783050    0.764117
      7          6           0       -3.045961   -0.730473    1.336795
      8          6           0       -3.067466    0.680923    1.904215
      9          6           0       -4.362867    1.310754    1.409656
     10          6           0       -3.014148    0.876284    3.436221
     11          6           0       -2.133514   -0.886445    0.097601
     12          6           0       -0.646976   -0.957569    0.617420
     13          6           0        0.296453   -1.184917   -0.444858
     14          8           0        0.069775   -1.702354   -1.478579
     15          8           0        1.586888   -0.874276   -0.152332
     16          7           0       -7.016963    2.830790    0.490882
     17          6           0       -5.881787    3.397938    1.019781
     18          6           0       -6.058070    4.860239    1.222121
     19          6           0       -7.417356    5.045567    0.623194
     20          6           0       -7.941987    3.767720    0.290202
     21          6           0       -5.120888    5.777179    1.780054
     22          6           0       -8.054867    6.266509    0.450869
     23          6           0       -8.811715    6.597800   -0.637261
     24          7           0       -9.239201    0.988883   -0.501701
     25          6           0       -9.781724    2.172970   -0.540136
     26          6           0      -11.225479    2.018986   -1.006467
     27          6           0      -11.447984    0.680677   -1.230753
     28          6           0      -10.142585    0.092415   -0.974207
     29          6           0      -12.131262    3.156798   -1.087224
     30          6           0      -12.591827   -0.001635   -1.842170
     31          6           0      -12.499047   -0.008070   -3.361156
     32          7           0       -7.552674   -1.230850   -0.321420
     33          6           0       -8.542056   -1.887497   -0.783511
     34          6           0       -8.250807   -3.243902   -0.795939
     35          6           0       -6.997705   -3.387124   -0.371963
     36          6           0       -6.481932   -2.014422   -0.088038
     37          6           0       -9.160815   -4.429100   -1.181015
     38          6           0       -5.880816   -4.257991   -0.088325
     39          8           0       -5.789538   -5.518867   -0.014594
     40          6           0       -4.604423   -3.373195    0.367043
     41          6           0       -4.093407   -4.026849    1.621542
     42          8           0       -4.414823   -3.591926    2.788621
     43          8           0       -3.287062   -5.042867    1.507568
     44          6           0       -2.800744   -5.589038    2.793857
     45          6           0        2.646449   -1.060193   -1.132608
     46          6           0        3.920541   -0.806610   -0.439858
     47          6           0        5.010318   -0.129087   -1.008129
     48          6           0        5.058292    0.604000   -2.250130
     49          6           0        6.300859    0.082634   -0.222616
     50          6           0        7.511328   -0.484558   -0.866838
     51          6           0        8.794607   -0.207151   -0.162690
     52          6           0       10.075389   -0.848843   -0.830373
     53          6           0       10.067616   -2.369467   -0.801422
     54          6           0       11.291925   -0.353231    0.041555
     55          6           0       12.742848   -0.562630   -0.590550
     56          6           0       13.806500    0.140037    0.072338
     57          6           0       15.258266   -0.131175   -0.448116
     58          6           0       15.780472   -1.606768   -0.477885
     59          6           0       16.155739    0.808381    0.451255
     60          6           0       17.627127    0.757221   -0.231205
     61          6           0       18.611305    1.669506    0.574365
     62          6           0       19.974017    1.768983    0.001388
     63          6           0       20.097655    2.334939   -1.426465
     64          6           0       21.067654    2.429107    0.955133
     65          1           0       -3.852096    3.100525    1.877862
     66          1           0      -10.050886    4.029483   -0.494641
     67          1           0      -10.626184   -1.855805   -1.344435
     68          1           0       -2.843046   -1.695212    1.999987
     69          1           0       -2.294104    1.451835    1.418663
     70          1           0       -2.253693    0.503123    3.758796
     71          1           0       -2.966396    1.742249    3.729720
     72          1           0       -3.855217    0.536136    3.999838
     73          1           0       -2.393055   -1.832152   -0.489285
     74          1           0       -2.191879   -0.191114   -0.565724
     75          1           0       -0.326992    0.061083    1.210886
     76          1           0       -0.516753   -1.743578    1.083431
     77          1           0       -4.181389    5.687378    1.240554
     78          1           0       -5.399197    6.810988    1.674125
     79          1           0       -4.901625    5.669713    2.773539
     80          1           0       -7.697513    7.118571    1.268357
     81          1           0       -8.747941    6.015061   -1.548534
     82          1           0       -9.098366    7.564015   -0.794083
     83          1           0      -12.161113    3.849313   -0.252198
     84          1           0      -11.776199    3.830589   -1.899673
     85          1           0      -13.166585    2.909772   -1.015232
     86          1           0      -12.716986   -0.896882   -1.448310
     87          1           0      -13.381849    0.563485   -1.575527
     88          1           0      -12.389121    1.011518   -3.753081
     89          1           0      -11.349848   -0.486961   -3.429397
     90          1           0      -13.317088   -0.603919   -3.736409
     91          1           0      -10.144038   -4.357964   -0.712182
     92          1           0       -9.094693   -4.431514   -2.260974
     93          1           0       -8.659775   -5.420932   -1.102823
     94          1           0       -3.875611   -3.720327   -0.478461
     95          1           0       -2.232643   -6.577636    2.489541
     96          1           0       -2.250952   -4.803758    3.405316
     97          1           0       -3.762146   -5.997759    3.205068
     98          1           0        2.533264   -2.161317   -1.233508
     99          1           0        2.719318   -0.566301   -2.110282
    100          1           0        4.094408   -1.371165    0.533580
    101          1           0        5.191897    1.821992   -2.158333
    102          1           0        5.779519    0.070571   -3.009935
    103          1           0        4.003477    0.685592   -2.789918
    104          1           0        6.340023    1.070364   -0.110394
    105          1           0        6.392025   -0.332609    0.784688
    106          1           0        7.393483   -1.561661   -0.966146
    107          1           0        7.747781   -0.244120   -1.957798
    108          1           0        8.973146    0.723401    0.006090
    109          1           0        8.797412   -0.577489    1.021558
    110          1           0       10.535549   -0.492648   -1.829025
    111          1           0        9.106496   -2.693661   -1.505687
    112          1           0       10.914053   -2.879099   -1.077612
    113          1           0        9.643923   -2.850450    0.237330
    114          1           0       11.091999    0.739767    0.101110
    115          1           0       11.381104   -0.566369    1.196276
    116          1           0       12.889826   -1.825065   -0.399831
    117          1           0       12.570595   -0.306042   -1.735576
    118          1           0       13.767678    1.201501    0.000926
    119          1           0       13.643379   -0.097366    1.333929
    120          1           0       15.264273    0.322184   -1.388507
    121          1           0       15.087968   -2.337831   -1.008991
    122          1           0       16.847588   -1.756848   -0.933527
    123          1           0       15.575263   -2.088410    0.700323
    124          1           0       15.798508    1.813478    0.299211
    125          1           0       16.168362    0.666450    1.481895
    126          1           0       17.940303   -0.306919   -0.212163
    127          1           0       17.528848    1.225832   -1.251515
    128          1           0       18.182702    2.803821    0.756386
    129          1           0       18.454566    1.210872    1.478039
    130          1           0       20.313936    0.722022   -0.028764
    131          1           0       20.080882    3.460243   -1.078371
    132          1           0       21.159884    2.063655   -1.856687
    133          1           0       19.392693    1.859645   -2.173412
    134          1           0       20.814588    2.259520    1.991400
    135          1           0       22.326724    2.172272    1.194809
    136          1           0       20.839450    3.619767    0.859006
    137          1           0       -7.246164    1.720084    0.503042
    138          1           0       -7.622388   -0.273491   -0.230630
 ---------------------------------------------------------------------

 SCF Done:  E(RB3LYP) =  -2732.88655642     A.U. after   17 cycles

 Excitation energies and oscillator strengths:

 Excited State   1:      Singlet-A      2.0778 eV  596.72 nm  f=0.1889  <S**2>=0.000
     235 -> 238        0.29213
     236 -> 237        0.63572
 This state for optimization and/or second-order correction.
 Total Energy, E(TD-HF/TD-KS) =  -2732.81020044
 Copying the excited state density for this state as the 1-particle RhoCI density.

 The electronic state is 1-A.
 Alpha  occ. eigenvalues --  -19.18382 -19.15700 -19.12185 -19.10968 -19.10256
 Alpha  occ. eigenvalues --  -14.37922 -14.37237 -14.30802 -14.29659 -10.31263
 Alpha  occ. eigenvalues --  -10.29826 -10.28542 -10.26107 -10.24886 -10.24266
 Alpha  occ. eigenvalues --  -10.24143 -10.23603 -10.22513 -10.22498 -10.22446
 Alpha  occ. eigenvalues --  -10.21906 -10.21708 -10.21443 -10.21346 -10.21304
 Alpha  occ. eigenvalues --  -10.21213 -10.20762 -10.20736 -10.20690 -10.20519
 Alpha  occ. eigenvalues --  -10.20493 -10.20450 -10.20439 -10.20411 -10.20317
 Alpha  occ. eigenvalues --  -10.20203 -10.19957 -10.19892 -10.19823 -10.19471
 Alpha  occ. eigenvalues --  -10.19405 -10.19371 -10.19345 -10.19305 -10.19294
 Alpha  occ. eigenvalues --  -10.19287 -10.19184 -10.19142 -10.19007 -10.18931
 Alpha  occ. eigenvalues --  -10.18804 -10.18799 -10.18739 -10.18633 -10.18626
 Alpha  occ. eigenvalues --  -10.18625 -10.18519 -10.18255 -10.18253 -10.18189
 Alpha  occ. eigenvalues --  -10.17805 -10.17653 -10.17096 -10.14658  -1.09505
 Alpha  occ. eigenvalues --   -1.08967  -1.02914  -0.99930  -0.99779  -0.98533
 Alpha  occ. eigenvalues --   -0.96122  -0.95846  -0.94537  -0.85286  -0.83109
 Alpha  occ. eigenvalues --   -0.82351  -0.81887  -0.81660  -0.81423  -0.81272
 Alpha  occ. eigenvalues --   -0.80533  -0.80403  -0.79769  -0.79599  -0.78536
 Alpha  occ. eigenvalues --   -0.77183  -0.76804  -0.76307  -0.75297  -0.74845
 Alpha  occ. eigenvalues --   -0.73643  -0.73427  -0.72627  -0.71644  -0.71329
 Alpha  occ. eigenvalues --   -0.70999  -0.70305  -0.69836  -0.68449  -0.67823
 Alpha  occ. eigenvalues --   -0.67447  -0.66476  -0.66166  -0.65752  -0.65587
 Alpha  occ. eigenvalues --   -0.64346  -0.64038  -0.63264  -0.62592  -0.62293
 Alpha  occ. eigenvalues --   -0.61232  -0.59221  -0.59117  -0.58969  -0.57812
 Alpha  occ. eigenvalues --   -0.57222  -0.57126  -0.56699  -0.55726  -0.55071
 Alpha  occ. eigenvalues --   -0.54905  -0.54531  -0.53868  -0.53638  -0.52908
 Alpha  occ. eigenvalues --   -0.52731  -0.52191  -0.51781  -0.50977  -0.50427
 Alpha  occ. eigenvalues --   -0.50324  -0.49912  -0.49292  -0.48761  -0.48193
 Alpha  occ. eigenvalues --   -0.47984  -0.47902  -0.47595  -0.47303  -0.46931
 Alpha  occ. eigenvalues --   -0.46835  -0.46625  -0.46475  -0.46357  -0.46204
 Alpha  occ. eigenvalues --   -0.46160  -0.45904  -0.45808  -0.45622  -0.45478
 Alpha  occ. eigenvalues --   -0.44738  -0.44470  -0.44262  -0.44138  -0.43932
 Alpha  occ. eigenvalues --   -0.43809  -0.43606  -0.43195  -0.43006  -0.42819
 Alpha  occ. eigenvalues --   -0.42600  -0.42462  -0.42258  -0.42031  -0.41947
 Alpha  occ. eigenvalues --   -0.41617  -0.41408  -0.41067  -0.40942  -0.40789
 Alpha  occ. eigenvalues --   -0.40545  -0.40122  -0.39933  -0.39512  -0.39444
 Alpha  occ. eigenvalues --   -0.39334  -0.38928  -0.38809  -0.38632  -0.38499
 Alpha  occ. eigenvalues --   -0.38257  -0.38111  -0.37728  -0.37297  -0.37065
 Alpha  occ. eigenvalues --   -0.36938  -0.36594  -0.36400  -0.36321  -0.36298
 Alpha  occ. eigenvalues --   -0.36170  -0.36028  -0.35796  -0.35745  -0.35616
 Alpha  occ. eigenvalues --   -0.35493  -0.35300  -0.35099  -0.34917  -0.34845
 Alpha  occ. eigenvalues --   -0.34704  -0.34645  -0.34285  -0.34001  -0.33925
 Alpha  occ. eigenvalues --   -0.33423  -0.33016  -0.32924  -0.32916  -0.32281
 Alpha  occ. eigenvalues --   -0.32024  -0.32008  -0.31560  -0.31393  -0.31121
 Alpha  occ. eigenvalues --   -0.30800  -0.30602  -0.30148  -0.29504  -0.29363
 Alpha  occ. eigenvalues --   -0.29328  -0.29257  -0.28184  -0.27851  -0.27632
 Alpha  occ. eigenvalues --   -0.26906  -0.26745  -0.26568  -0.25666  -0.25194
 Alpha  occ. eigenvalues --   -0.24732  -0.23866  -0.23028  -0.22818  -0.19644
 Alpha  occ. eigenvalues --   -0.19156
 Alpha virt. eigenvalues --   -0.10441  -0.07603  -0.04819  -0.02572  -0.01147
 Alpha virt. eigenvalues --   -0.00476   0.00240   0.01940   0.03525   0.03634
 Alpha virt. eigenvalues --    0.03947   0.04187   0.04485   0.04700   0.04730

 Mulliken charges:
               1
     1  C    0.094197
     2  C    0.010796
     3  C   -0.032245
     4  C   -0.094456
     5  N   -0.069331
     6  C   -0.135808
     7  C   -0.087592
     8  C   -0.058211
     9  C   -0.112265
    10  C    0.346615
    11  C    0.085390
    12  C    0.173605
    13  C    0.106051
    14  O   -0.214226
    15  O   -0.348637
    16  N   -0.082066
    17  C    0.106983
    18  C   -0.144533
    19  C    0.050941
    20  C    0.104590
    21  C    0.180034
    22  C   -0.125783
    23  C   -0.002546
    24  N   -0.201015
    25  C   -0.052270
    26  C   -0.133698
    27  C   -0.148546
    28  C   -0.049112
    29  C    0.125175
    30  C    0.230166
    31  C    0.001641
    32  N    0.134572
    33  C    0.093224
    34  C   -0.211106
    35  C    0.099097
    36  C   -0.000207
    37  C    0.145882
    38  C    0.036070
    39  O   -0.221923
    40  C   -0.009351
    41  C    0.192127
    42  O   -0.325654
    43  O   -0.264778
    44  C    0.150761
    45  C    0.323921
    46  C   -0.106601
    47  C   -0.128025
    48  C   -0.038756
    49  C    0.184558
    50  C    0.026193
    51  C    0.069987
    52  C   -0.064048
    53  C    0.006772
    54  C   -0.046711
    55  C   -0.010131
    56  C    0.007787
    57  C   -0.007981
    58  C   -0.052205
    59  C    0.043731
    60  C   -0.034205
    61  C    0.046572
    62  C   -0.052128
    63  C   -0.013271
    64  C   -0.050933
    65  H   -0.076776
    66  H   -0.039738
    67  H   -0.023601
    68  H    0.041088
    69  H    0.012963
    70  H   -0.089991
    71  H   -0.099497
    72  H    0.000402
    73  H    0.025447
    74  H   -0.057067
    75  H    0.055296
    76  H   -0.062541
    77  H    0.018998
    78  H   -0.004810
    79  H    0.001789
    80  H    0.033655
    81  H    0.031023
    82  H   -0.001978
    83  H    0.008308
    84  H    0.027465
    85  H   -0.002444
    86  H   -0.045064
    87  H   -0.056086
    88  H    0.017326
    89  H    0.020763
    90  H    0.023759
    91  H    0.044067
    92  H    0.013824
    93  H    0.025062
    94  H    0.071346
    95  H    0.050002
    96  H    0.069369
    97  H    0.052580
    98  H    0.007491
    99  H    0.016871
   100  H    0.004161
   101  H    0.047574
   102  H    0.062148
   103  H    0.017055
   104  H   -0.039813
   105  H   -0.017396
   106  H   -0.012145
   107  H   -0.003859
   108  H   -0.074234
   109  H   -0.001498
   110  H    0.009777
   111  H    0.010812
   112  H    0.001586
   113  H    0.018149
   114  H   -0.020476
   115  H    0.001132
   116  H    0.025459
   117  H    0.009073
   118  H   -0.018769
   119  H    0.005580
   120  H   -0.028949
   121  H    0.021494
   122  H    0.048543
   123  H    0.020576
   124  H   -0.019417
   125  H   -0.018424
   126  H    0.018130
   127  H    0.008378
   128  H   -0.009045
   129  H   -0.030074
   130  H   -0.015717
   131  H    0.025289
   132  H    0.025042
   133  H    0.030920
   134  H   -0.006152
   135  H    0.043579
   136  H    0.010493
   137  H    0.214870
   138  H    0.079759
 Sum of Mulliken charges =   0.00000

 Dipole moment (field-independent basis, Debye):
    X=              0.7162    Y=              4.2794    Z=              0.0280  Tot=              4.3390
 Quadrupole moment (field-independent basis, Debye-Ang):
   XX=           -363.6400   YY=           -385.2095   ZZ=           -393.0850
   XY=            -27.8350   XZ=             14.0375   YZ=              0.8108

 Normal termination of Gaussian 09 at Sat Aug  3 13:00:43 2019.
