 Gaussian 09, Revision D.01,
 Gaussian 09:  ES64L-G09RevD.01 24-Apr-2013

 --------------------------
 # td=(NStates=1) B3LYP/SVP
 --------------------------

 --
 TD
 --
 Symbolic Z-matrix:
 Charge =  0 Multiplicity = 1

                         Standard orientation:
 ---------------------------------------------------------------------
 Center     Atomic      Atomic             Coordinates (Angstroms)
 Number     Number       Type             X           Y           Z
 ---------------------------------------------------------------------
      1          6           0       -4.964046   -1.870771    0.458452
      2          6           0       -4.967538    2.795183    1.512607
      3          6           0       -9.457821    3.141813   -0.227034
      4          6           0       -9.808612   -1.593635   -1.101564
      5          7           0       -5.143012    0.468948    0.898849
      6          6           0       -4.481441   -0.669086    0.839986
      7          6           0       -3.024540   -0.467748    1.387347
      8          6           0       -3.181115    0.924552    2.018563
      9          6           0       -4.440732    1.473966    1.330121
     10          6           0       -3.218459    0.877149    3.599467
     11          6           0       -1.972287   -0.570672    0.183738
     12          6           0       -0.651925   -0.634879    0.736867
     13          6           0        0.386317   -0.707660   -0.486681
     14          8           0        0.015238   -1.047220   -1.550717
     15          8           0        1.655560   -0.533191   -0.085149
     16          7           0       -7.168864    2.647966    0.516928
     17          6           0       -6.127436    3.335732    1.099474
     18          6           0       -6.484204    4.731158    1.189392
     19          6           0       -7.759105    4.797921    0.539879
     20          6           0       -8.242819    3.548113    0.200425
     21          6           0       -5.651354    5.724344    1.747114
     22          6           0       -8.368205    6.250403    0.306374
     23          6           0       -9.165058    6.545040   -0.661574
     24          7           0       -9.232650    0.756102   -0.575256
     25          6           0       -9.960244    1.894821   -0.652492
     26          6           0      -11.316179    1.678069   -1.051527
     27          6           0      -11.345567    0.275493   -1.407448
     28          6           0      -10.064823   -0.187723   -1.027431
     29          6           0      -12.393761    2.750712   -1.224870
     30          6           0      -12.509917   -0.522565   -2.000342
     31          6           0      -12.410186   -0.822283   -3.426369
     32          7           0       -7.391278   -1.272871   -0.228947
     33          6           0       -8.489583   -2.118129   -0.671631
     34          6           0       -8.045941   -3.449432   -0.675582
     35          6           0       -6.664386   -3.425692   -0.239239
     36          6           0       -6.286868   -2.012467   -0.000653
     37          6           0       -8.714333   -4.733816   -1.126038
     38          6           0       -5.591471   -4.258314    0.004863
     39          8           0       -5.561341   -5.458938   -0.007945
     40          6           0       -4.312516   -3.292806    0.490919
     41          6           0       -3.803575   -3.755806    1.857097
     42          8           0       -4.158016   -3.385794    2.995578
     43          8           0       -2.847347   -4.683074    1.604948
     44          6           0       -2.418277   -5.499803    2.835631
     45          6           0        2.601279   -0.740811   -1.267338
     46          6           0        3.951641   -0.585727   -0.672431
     47          6           0        4.887966    0.335698   -0.965636
     48          6           0        4.749612    1.451377   -2.215012
     49          6           0        6.306359    0.313986   -0.140680
     50          6           0        7.428169   -0.275758   -0.922097
     51          6           0        8.738155   -0.052589   -0.156410
     52          6           0       10.088205   -0.505606   -0.960044
     53          6           0       10.095425   -2.096289   -1.169419
     54          6           0       11.335352   -0.112230   -0.055049
     55          6           0       12.651284   -0.461250   -0.687048
     56          6           0       13.850811   -0.034704    0.204116
     57          6           0       15.148451   -0.259504   -0.317524
     58          6           0       15.521486   -1.674908   -0.531080
     59          6           0       16.306670    0.494347    0.408108
     60          6           0       17.721314    0.544854   -0.167421
     61          6           0       18.710641    1.403508    0.715706
     62          6           0       20.091954    1.427209    0.022881
     63          6           0       20.278055    1.855605   -1.424004
     64          6           0       21.012607    2.348694    0.911056
     65          1           0       -4.317702    3.447216    2.092366
     66          1           0      -10.071699    4.006413   -0.465688
     67          1           0      -10.526300   -2.497355   -1.401891
     68          1           0       -2.682635   -1.278627    2.152170
     69          1           0       -2.345886    1.485320    1.885323
     70          1           0       -2.271969    0.358719    3.982935
     71          1           0       -3.333310    1.771964    4.056765
     72          1           0       -4.059996    0.194524    3.770288
     73          1           0       -2.295456   -1.461573   -0.592860
     74          1           0       -2.099340    0.199985   -0.607936
     75          1           0       -0.414576    0.159103    1.345060
     76          1           0       -0.589224   -1.502805    1.321040
     77          1           0       -4.792803    5.990865    1.013245
     78          1           0       -5.948287    6.663052    1.769677
     79          1           0       -5.161812    5.541135    2.898206
     80          1           0       -8.059647    6.963112    1.197144
     81          1           0       -9.363976    5.877200   -1.419641
     82          1           0       -9.657012    7.493272   -0.582470
     83          1           0      -12.453209    3.413793   -0.369779
     84          1           0      -12.133207    3.602780   -1.970635
     85          1           0      -13.216512    2.332846   -1.553220
     86          1           0      -12.471871   -1.483200   -1.587138
     87          1           0      -13.426641   -0.276619   -1.651284
     88          1           0      -12.371823    0.151808   -4.025817
     89          1           0      -11.432598   -1.392401   -3.678832
     90          1           0      -13.466330   -1.237999   -3.999309
     91          1           0       -9.661268   -4.918745   -0.532036
     92          1           0       -9.064165   -4.712144   -2.244398
     93          1           0       -8.098933   -5.631538   -0.879185
     94          1           0       -3.371635   -3.393490   -0.034343
     95          1           0       -1.828489   -6.198259    2.340037
     96          1           0       -1.935436   -4.957884    3.555468
     97          1           0       -3.206140   -5.983526    3.168042
     98          1           0        2.450442   -1.803472   -1.608002
     99          1           0        2.390972   -0.034606   -2.154052
    100          1           0        4.319537   -1.070270    0.145574
    101          1           0        4.829790    2.496062   -1.603677
    102          1           0        5.466713    1.230351   -3.068517
    103          1           0        3.697703    1.718740   -2.459400
    104          1           0        6.680956    1.345085    0.334414
    105          1           0        6.032825   -0.271834    0.742559
    106          1           0        7.170313   -1.462684   -1.046555
    107          1           0        7.628148    0.187557   -1.967037
    108          1           0        9.002754    1.001487    0.066611
    109          1           0        8.726164   -0.580512    0.740316
    110          1           0       10.226857   -0.062147   -2.100400
    111          1           0        9.373664   -2.303978   -1.981694
    112          1           0       11.111200   -2.378245   -1.428367
    113          1           0        9.940374   -2.934080   -0.218615
    114          1           0       11.345798    0.792997    0.085339
    115          1           0       11.524394   -0.627353    0.908793
    116          1           0       12.692459   -1.555738   -0.776824
    117          1           0       12.881271   -0.059629   -1.665063
    118          1           0       13.565076    1.136996    0.510235
    119          1           0       13.974427   -0.448928    1.333117
    120          1           0       15.257563    0.326786   -1.141095
    121          1           0       14.756977   -2.011533   -1.276568
    122          1           0       16.637764   -1.821019   -0.923182
    123          1           0       15.416293   -2.121135    0.561862
    124          1           0       16.084255    1.592417    0.635917
    125          1           0       16.137283    0.006509    1.406085
    126          1           0       18.127275   -0.448453   -0.303595
    127          1           0       17.948932    0.922065   -1.312458
    128          1           0       18.096674    2.391579    0.647845
    129          1           0       18.805478    0.886597    1.814127
    130          1           0       20.380376    0.279872    0.091759
    131          1           0       20.038889    2.959704   -1.597519
    132          1           0       21.282211    1.613752   -1.825218
    133          1           0       19.527410    1.219516   -2.028830
    134          1           0       20.845895    1.798044    2.054848
    135          1           0       22.276061    2.185404    0.798909
    136          1           0       20.788209    3.314718    0.813160
    137          1           0       -7.300679    1.602525    0.298974
    138          1           0       -7.695529   -0.237879   -0.200917
 ---------------------------------------------------------------------

 SCF Done:  E(RB3LYP) =  -2732.99260850     A.U. after   17 cycles

 Excitation energies and oscillator strengths:

 Excited State   1:      Singlet-A      2.1538 eV  575.65 nm  f=0.1141  <S**2>=0.000
     235 -> 237       -0.23307
     235 -> 238        0.31270
     236 -> 237        0.56045
     236 -> 238        0.16625
 This state for optimization and/or second-order correction.
 Total Energy, E(TD-HF/TD-KS) =  -2732.91345795
 Copying the excited state density for this state as the 1-particle RhoCI density.

 The electronic state is 1-A.
 Alpha  occ. eigenvalues --  -19.17999 -19.17419 -19.12451 -19.11452 -19.11232
 Alpha  occ. eigenvalues --  -14.37057 -14.36126 -14.31223 -14.30323 -10.30885
 Alpha  occ. eigenvalues --  -10.30829 -10.26763 -10.26118 -10.23852 -10.23633
 Alpha  occ. eigenvalues --  -10.23478 -10.23204 -10.22936 -10.22793 -10.22731
 Alpha  occ. eigenvalues --  -10.22013 -10.21711 -10.21701 -10.21601 -10.21511
 Alpha  occ. eigenvalues --  -10.21464 -10.21437 -10.21414 -10.21095 -10.20917
 Alpha  occ. eigenvalues --  -10.20743 -10.20708 -10.20675 -10.20438 -10.20391
 Alpha  occ. eigenvalues --  -10.20365 -10.20342 -10.20122 -10.19949 -10.19886
 Alpha  occ. eigenvalues --  -10.19863 -10.19620 -10.19492 -10.19387 -10.19254
 Alpha  occ. eigenvalues --  -10.19193 -10.19181 -10.19176 -10.19153 -10.18984
 Alpha  occ. eigenvalues --  -10.18907 -10.18791 -10.18683 -10.18620 -10.18489
 Alpha  occ. eigenvalues --  -10.18458 -10.18396 -10.18368 -10.18345 -10.18147
 Alpha  occ. eigenvalues --  -10.18107 -10.17934 -10.16724 -10.16717  -1.09396
 Alpha  occ. eigenvalues --   -1.06568  -1.02495  -1.01305  -0.97585  -0.96861
 Alpha  occ. eigenvalues --   -0.96276  -0.95606  -0.94599  -0.83451  -0.83404
 Alpha  occ. eigenvalues --   -0.81642  -0.81444  -0.81361  -0.80760  -0.80324
 Alpha  occ. eigenvalues --   -0.80003  -0.79617  -0.79565  -0.78544  -0.77599
 Alpha  occ. eigenvalues --   -0.77264  -0.76526  -0.75474  -0.75231  -0.74216
 Alpha  occ. eigenvalues --   -0.73686  -0.73343  -0.72542  -0.71544  -0.70618
 Alpha  occ. eigenvalues --   -0.69809  -0.69061  -0.68573  -0.67807  -0.67203
 Alpha  occ. eigenvalues --   -0.66983  -0.66711  -0.65991  -0.65904  -0.65158
 Alpha  occ. eigenvalues --   -0.64519  -0.62641  -0.61740  -0.61299  -0.61121
 Alpha  occ. eigenvalues --   -0.60184  -0.58104  -0.58010  -0.57804  -0.57344
 Alpha  occ. eigenvalues --   -0.57059  -0.56786  -0.55596  -0.55507  -0.54904
 Alpha  occ. eigenvalues --   -0.54686  -0.53890  -0.53844  -0.53430  -0.52823
 Alpha  occ. eigenvalues --   -0.52653  -0.52006  -0.51114  -0.50713  -0.50158
 Alpha  occ. eigenvalues --   -0.49438  -0.48917  -0.48881  -0.48560  -0.48232
 Alpha  occ. eigenvalues --   -0.47634  -0.47587  -0.47222  -0.47041  -0.46649
 Alpha  occ. eigenvalues --   -0.46529  -0.46455  -0.46282  -0.45964  -0.45891
 Alpha  occ. eigenvalues --   -0.45733  -0.45417  -0.45362  -0.44553  -0.44479
 Alpha  occ. eigenvalues --   -0.44209  -0.44020  -0.43822  -0.43721  -0.43540
 Alpha  occ. eigenvalues --   -0.43366  -0.43192  -0.42981  -0.42507  -0.42416
 Alpha  occ. eigenvalues --   -0.42195  -0.41906  -0.41795  -0.41525  -0.41361
 Alpha  occ. eigenvalues --   -0.41251  -0.40904  -0.40717  -0.40579  -0.40310
 Alpha  occ. eigenvalues --   -0.40158  -0.39928  -0.39685  -0.39386  -0.39175
 Alpha  occ. eigenvalues --   -0.39117  -0.39066  -0.38925  -0.38653  -0.38591
 Alpha  occ. eigenvalues --   -0.38392  -0.38361  -0.38266  -0.38012  -0.37731
 Alpha  occ. eigenvalues --   -0.37649  -0.37380  -0.37019  -0.36828  -0.36792
 Alpha  occ. eigenvalues --   -0.36725  -0.36405  -0.36224  -0.36130  -0.35842
 Alpha  occ. eigenvalues --   -0.35523  -0.35126  -0.34992  -0.34566  -0.34477
 Alpha  occ. eigenvalues --   -0.34384  -0.34159  -0.34016  -0.33867  -0.33618
 Alpha  occ. eigenvalues --   -0.33240  -0.32929  -0.32863  -0.31959  -0.31901
 Alpha  occ. eigenvalues --   -0.31670  -0.31579  -0.31321  -0.31271  -0.31102
 Alpha  occ. eigenvalues --   -0.30967  -0.30564  -0.30538  -0.30216  -0.29950
 Alpha  occ. eigenvalues --   -0.29649  -0.29338  -0.28293  -0.28246  -0.28098
 Alpha  occ. eigenvalues --   -0.27153  -0.26943  -0.26264  -0.25852  -0.25394
 Alpha  occ. eigenvalues --   -0.25146  -0.24226  -0.24172  -0.22443  -0.19919
 Alpha  occ. eigenvalues --   -0.19534
 Alpha virt. eigenvalues --   -0.10377  -0.08123  -0.04253  -0.00894  -0.00227
 Alpha virt. eigenvalues --   -0.00009   0.00460   0.01477   0.02899   0.03461
 Alpha virt. eigenvalues --    0.03947   0.04175   0.04179   0.04393   0.05173

 Mulliken charges:
               1
     1  C    0.038446
     2  C   -0.091642
     3  C   -0.078326
     4  C   -0.108397
     5  N   -0.090695
     6  C   -0.085018
     7  C   -0.120734
     8  C    0.041080
     9  C   -0.017745
    10  C    0.078336
    11  C   -0.037906
    12  C    0.164992
    13  C    0.151286
    14  O   -0.208005
    15  O   -0.320370
    16  N   -0.154362
    17  C    0.172915
    18  C   -0.092061
    19  C    0.000796
    20  C    0.093498
    21  C    0.093766
    22  C   -0.059110
    23  C    0.043844
    24  N   -0.243702
    25  C    0.082326
    26  C   -0.162318
    27  C   -0.141643
    28  C    0.119730
    29  C    0.174830
    30  C    0.223634
    31  C   -0.078228
    32  N   -0.108424
    33  C    0.021743
    34  C   -0.094049
    35  C    0.012110
    36  C    0.111350
    37  C    0.048021
    38  C    0.028055
    39  O   -0.169576
    40  C   -0.026181
    41  C    0.205050
    42  O   -0.269258
    43  O   -0.352598
    44  C    0.306810
    45  C    0.274146
    46  C    0.002729
    47  C   -0.180921
    48  C   -0.020413
    49  C    0.025787
    50  C   -0.001002
    51  C    0.067759
    52  C   -0.135073
    53  C   -0.027868
    54  C    0.178144
    55  C    0.031869
    56  C   -0.102686
    57  C    0.038822
    58  C    0.007500
    59  C    0.002817
    60  C   -0.023885
    61  C   -0.017384
    62  C   -0.130143
    63  C    0.017328
    64  C   -0.001276
    65  H   -0.034370
    66  H   -0.047238
    67  H    0.043529
    68  H    0.031268
    69  H   -0.056151
    70  H    0.019047
    71  H   -0.010315
    72  H    0.028076
    73  H    0.037230
    74  H   -0.003144
    75  H   -0.014564
    76  H    0.002430
    77  H    0.030871
    78  H   -0.057581
    79  H    0.056799
    80  H    0.037128
    81  H    0.009960
    82  H    0.017294
    83  H    0.009467
    84  H    0.011418
    85  H   -0.029668
    86  H   -0.038812
    87  H   -0.037943
    88  H    0.008112
    89  H    0.034398
    90  H    0.026363
    91  H    0.024054
    92  H    0.046961
    93  H    0.048321
    94  H    0.031018
    95  H    0.011968
    96  H    0.022141
    97  H   -0.002350
    98  H    0.038209
    99  H    0.050665
   100  H   -0.052755
   101  H    0.027397
   102  H    0.067814
   103  H    0.018416
   104  H    0.019005
   105  H    0.001587
   106  H    0.027070
   107  H    0.016870
   108  H    0.001895
   109  H   -0.018586
   110  H    0.022973
   111  H    0.020820
   112  H    0.001377
   113  H    0.021615
   114  H   -0.099384
   115  H    0.001931
   116  H    0.008578
   117  H   -0.013306
   118  H    0.000580
   119  H   -0.009239
   120  H   -0.052329
   121  H    0.024106
   122  H    0.036890
   123  H    0.011891
   124  H   -0.009914
   125  H   -0.022553
   126  H   -0.023436
   127  H    0.012610
   128  H    0.015084
   129  H    0.036713
   130  H    0.009869
   131  H    0.020343
   132  H    0.022306
   133  H    0.012108
   134  H    0.020780
   135  H    0.022831
   136  H   -0.003452
   137  H    0.170933
   138  H    0.177452
 Sum of Mulliken charges =   0.00000

 Dipole moment (field-independent basis, Debye):
    X=              2.3215    Y=              4.7999    Z=             -0.0716  Tot=              5.3323
 Quadrupole moment (field-independent basis, Debye-Ang):
   XX=           -353.0015   YY=           -374.8333   ZZ=           -395.8192
   XY=            -27.8198   XZ=              0.6149   YZ=             -0.8618

 Normal termination of Gaussian 09 at Sun Aug  4 04:06:54 2019.
