 Gaussian 09, Revision D.01,
 Gaussian 09:  ES64L-G09RevD.01 24-Apr-2013

 --------------------------
 # td=(NStates=1) B3LYP/SVP
 --------------------------

 --
 TD
 --
 Symbolic Z-matrix:
 Charge =  0 Multiplicity = 1

                         Standard orientation:
 ---------------------------------------------------------------------
 Center     Atomic      Atomic             Coordinates (Angstroms)
 Number     Number       Type             X           Y           Z
 ---------------------------------------------------------------------
      1          6           0       -5.154350   -1.968028    0.551051
      2          6           0       -4.783877    2.756480    1.345578
      3          6           0       -9.316141    3.233500   -0.095775
      4          6           0       -9.869624   -1.551741   -0.865310
      5          7           0       -5.171629    0.438896    0.744938
      6          6           0       -4.509246   -0.779154    0.799340
      7          6           0       -3.146172   -0.588050    1.293497
      8          6           0       -3.109776    0.866435    1.845012
      9          6           0       -4.432564    1.398044    1.276941
     10          6           0       -2.891316    1.062940    3.390663
     11          6           0       -2.058419   -0.714954    0.034341
     12          6           0       -0.597293   -0.734771    0.476479
     13          6           0        0.391941   -1.025278   -0.671247
     14          8           0        0.089489   -1.590978   -1.788160
     15          8           0        1.623022   -0.542476   -0.380285
     16          7           0       -7.002137    2.717030    0.434368
     17          6           0       -5.973376    3.375622    0.965733
     18          6           0       -6.263277    4.769438    0.990352
     19          6           0       -7.555597    4.931306    0.536902
     20          6           0       -8.078127    3.642219    0.124562
     21          6           0       -5.272406    5.750131    1.444199
     22          6           0       -8.206483    6.261270    0.407414
     23          6           0       -9.090376    6.552338   -0.608933
     24          7           0       -9.311902    0.811686   -0.458028
     25          6           0       -9.986522    2.107983   -0.492817
     26          6           0      -11.317909    1.758999   -0.916479
     27          6           0      -11.388401    0.435656   -1.093147
     28          6           0      -10.133111   -0.109404   -0.823751
     29          6           0      -12.341439    2.824241   -1.090543
     30          6           0      -12.762727   -0.190104   -1.696430
     31          6           0      -12.661923   -0.519002   -3.188889
     32          7           0       -7.501555   -1.261830   -0.178219
     33          6           0       -8.605409   -2.012550   -0.590765
     34          6           0       -8.186082   -3.425820   -0.620864
     35          6           0       -6.839326   -3.497978   -0.148324
     36          6           0       -6.424952   -2.060262    0.092409
     37          6           0       -8.959423   -4.636508   -0.871282
     38          6           0       -5.701966   -4.309676    0.087655
     39          8           0       -5.583581   -5.512880    0.085737
     40          6           0       -4.534378   -3.280327    0.489190
     41          6           0       -3.814342   -3.755484    1.771168
     42          8           0       -4.101399   -3.364487    2.908086
     43          8           0       -3.024747   -4.735303    1.518230
     44          6           0       -2.467461   -5.422894    2.623926
     45          6           0        2.686241   -0.764718   -1.329521
     46          6           0        3.933797   -0.531024   -0.644302
     47          6           0        4.973581    0.223100   -1.082057
     48          6           0        5.079615    0.848744   -2.418653
     49          6           0        6.358303    0.203211   -0.332254
     50          6           0        7.478462   -0.410560   -0.997571
     51          6           0        8.892438   -0.125429   -0.258085
     52          6           0       10.144794   -0.664850   -0.965292
     53          6           0       10.094911   -2.178404   -1.271669
     54          6           0       11.324112   -0.245865   -0.238440
     55          6           0       12.665378   -0.589501   -0.822953
     56          6           0       13.839131   -0.043864    0.067859
     57          6           0       15.268380   -0.159845   -0.369897
     58          6           0       15.525965   -1.638174   -0.471728
     59          6           0       16.175177    0.489638    0.628786
     60          6           0       17.673736    0.505349    0.126072
     61          6           0       18.602301    1.527396    0.817588
     62          6           0       20.073208    1.602930    0.262824
     63          6           0       20.204378    2.249197   -1.141635
     64          6           0       21.085044    2.339933    1.211484
     65          1           0       -4.002697    3.377295    1.755650
     66          1           0      -10.103448    3.989311   -0.099920
     67          1           0      -10.650348   -2.283091   -0.921543
     68          1           0       -3.042235   -1.271736    2.189206
     69          1           0       -2.187360    1.423390    1.383482
     70          1           0       -2.063198    0.460224    3.744856
     71          1           0       -2.861579    2.061068    3.668107
     72          1           0       -3.742633    0.487479    4.094020
     73          1           0       -2.438087   -1.749154   -0.428577
     74          1           0       -2.244100    0.119902   -0.646087
     75          1           0       -0.430818    0.350464    0.766786
     76          1           0       -0.367512   -1.337511    1.584543
     77          1           0       -4.566475    5.724607    0.660775
     78          1           0       -5.734659    6.795861    1.550933
     79          1           0       -5.019624    5.549318    2.516905
     80          1           0       -8.236075    7.048663    1.082620
     81          1           0       -9.428601    5.878252   -1.476393
     82          1           0       -9.592288    7.648912   -0.404238
     83          1           0      -12.387172    3.516097   -0.225005
     84          1           0      -12.083441    3.693437   -1.876348
     85          1           0      -13.420616    2.469577   -1.175129
     86          1           0      -12.801879   -1.264031   -1.335506
     87          1           0      -13.583569    0.403826   -1.297057
     88          1           0      -12.239122    0.386155   -3.820839
     89          1           0      -11.843572   -1.023561   -3.296855
     90          1           0      -13.600137   -0.849780   -3.396907
     91          1           0       -9.787762   -4.987844   -0.009568
     92          1           0       -9.554387   -4.515086   -1.831268
     93          1           0       -8.493393   -5.526110   -0.759488
     94          1           0       -3.816114   -3.381250   -0.500037
     95          1           0       -1.735076   -6.133595    2.514185
     96          1           0       -1.995413   -4.620412    3.192782
     97          1           0       -3.315419   -5.777145    3.272199
     98          1           0        2.492818   -1.852419   -1.607850
     99          1           0        2.311098   -0.064447   -2.110680
    100          1           0        3.944730   -1.074425    0.490938
    101          1           0        5.684014    1.913258   -2.535974
    102          1           0        5.566444   -0.043052   -3.184000
    103          1           0        4.032506    1.213390   -2.738069
    104          1           0        6.453156    1.284094   -0.067501
    105          1           0        6.138440   -0.297661    0.558266
    106          1           0        7.258910   -1.404060   -0.914849
    107          1           0        7.593913   -0.037019   -1.967531
    108          1           0        8.990998    0.966233   -0.163452
    109          1           0        8.715916   -0.303446    0.746913
    110          1           0       10.046011   -0.170829   -2.014648
    111          1           0        9.209805   -2.665780   -1.876091
    112          1           0       10.831461   -2.522023   -2.006911
    113          1           0       10.127643   -3.005580   -0.443286
    114          1           0       11.208397    0.805869    0.074556
    115          1           0       11.363342   -0.495810    0.996072
    116          1           0       12.794399   -1.749234   -0.473612
    117          1           0       12.816030   -0.253355   -1.929330
    118          1           0       13.599465    1.010461    0.255434
    119          1           0       13.666557   -0.566617    1.113069
    120          1           0       15.283073    0.387005   -1.263636
    121          1           0       14.740309   -2.087206   -1.173217
    122          1           0       16.496066   -1.732530   -1.036749
    123          1           0       15.626589   -2.173824    0.438048
    124          1           0       15.916971    1.523582    0.973074
    125          1           0       16.329952    0.037898    1.602561
    126          1           0       18.053325   -0.350099    0.233405
    127          1           0       17.665773    0.737157   -0.984907
    128          1           0       17.969417    2.483988    0.932422
    129          1           0       18.661386    1.180734    2.025381
    130          1           0       20.651132    0.557228    0.256842
    131          1           0       19.911085    3.312865   -1.080783
    132          1           0       21.212520    2.122528   -1.582913
    133          1           0       19.662918    1.820205   -1.977689
    134          1           0       21.114712    1.658932    2.226114
    135          1           0       21.854973    2.575728    0.520342
    136          1           0       20.623268    3.458409    1.402109
    137          1           0       -7.015973    1.724332    0.216445
    138          1           0       -7.569068   -0.250796   -0.209319
 ---------------------------------------------------------------------

 SCF Done:  E(RB3LYP) =  -2733.04701615     A.U. after   17 cycles

 Excitation energies and oscillator strengths:

 Excited State   1:      Singlet-A      2.0404 eV  607.63 nm  f=0.1649  <S**2>=0.000
     235 -> 237       -0.13375
     235 -> 238       -0.24283
     236 -> 237        0.62842
     236 -> 238       -0.15071
 This state for optimization and/or second-order correction.
 Total Energy, E(TD-HF/TD-KS) =  -2732.97203110
 Copying the excited state density for this state as the 1-particle RhoCI density.

 The electronic state is 1-A.
 Alpha  occ. eigenvalues --  -19.18933 -19.17927 -19.12477 -19.12138 -19.11689
 Alpha  occ. eigenvalues --  -14.37291 -14.36293 -14.31825 -14.28570 -10.32565
 Alpha  occ. eigenvalues --  -10.31667 -10.27763 -10.25202 -10.24337 -10.24035
 Alpha  occ. eigenvalues --  -10.23918 -10.23237 -10.23057 -10.22954 -10.22820
 Alpha  occ. eigenvalues --  -10.22712 -10.22606 -10.22373 -10.21904 -10.21478
 Alpha  occ. eigenvalues --  -10.21307 -10.20970 -10.20922 -10.20729 -10.20611
 Alpha  occ. eigenvalues --  -10.20495 -10.20477 -10.20458 -10.20402 -10.20380
 Alpha  occ. eigenvalues --  -10.20372 -10.20298 -10.20246 -10.20197 -10.19933
 Alpha  occ. eigenvalues --  -10.19869 -10.19665 -10.19645 -10.19617 -10.19513
 Alpha  occ. eigenvalues --  -10.19480 -10.19362 -10.19315 -10.19309 -10.19171
 Alpha  occ. eigenvalues --  -10.19025 -10.18461 -10.18217 -10.18087 -10.18067
 Alpha  occ. eigenvalues --  -10.18064 -10.18022 -10.17863 -10.17741 -10.17511
 Alpha  occ. eigenvalues --  -10.17308 -10.16843 -10.16684 -10.16631  -1.11995
 Alpha  occ. eigenvalues --   -1.08483  -1.02894  -0.99655  -0.97688  -0.97592
 Alpha  occ. eigenvalues --   -0.97450  -0.94469  -0.93205  -0.85867  -0.83281
 Alpha  occ. eigenvalues --   -0.82649  -0.82017  -0.81478  -0.81443  -0.80709
 Alpha  occ. eigenvalues --   -0.79997  -0.79181  -0.78930  -0.78214  -0.78089
 Alpha  occ. eigenvalues --   -0.76885  -0.76264  -0.76027  -0.75227  -0.74972
 Alpha  occ. eigenvalues --   -0.74485  -0.73499  -0.73087  -0.71990  -0.71128
 Alpha  occ. eigenvalues --   -0.70106  -0.69502  -0.68745  -0.67697  -0.67245
 Alpha  occ. eigenvalues --   -0.66947  -0.66722  -0.66312  -0.66139  -0.65572
 Alpha  occ. eigenvalues --   -0.64703  -0.62655  -0.62555  -0.61317  -0.60855
 Alpha  occ. eigenvalues --   -0.60765  -0.59386  -0.58595  -0.58414  -0.57904
 Alpha  occ. eigenvalues --   -0.57427  -0.56377  -0.55904  -0.55675  -0.55461
 Alpha  occ. eigenvalues --   -0.55329  -0.55188  -0.54221  -0.54009  -0.53044
 Alpha  occ. eigenvalues --   -0.52861  -0.52396  -0.51620  -0.51055  -0.50561
 Alpha  occ. eigenvalues --   -0.50169  -0.50132  -0.49585  -0.49032  -0.48605
 Alpha  occ. eigenvalues --   -0.48196  -0.47796  -0.47763  -0.46918  -0.46855
 Alpha  occ. eigenvalues --   -0.46728  -0.46455  -0.46442  -0.46294  -0.45999
 Alpha  occ. eigenvalues --   -0.45708  -0.45505  -0.45337  -0.45175  -0.45067
 Alpha  occ. eigenvalues --   -0.44898  -0.44627  -0.44167  -0.43885  -0.43780
 Alpha  occ. eigenvalues --   -0.43672  -0.43380  -0.43098  -0.42718  -0.42647
 Alpha  occ. eigenvalues --   -0.42483  -0.42261  -0.42054  -0.41737  -0.41492
 Alpha  occ. eigenvalues --   -0.41316  -0.41213  -0.40800  -0.40747  -0.40602
 Alpha  occ. eigenvalues --   -0.40216  -0.39861  -0.39753  -0.39329  -0.39184
 Alpha  occ. eigenvalues --   -0.39032  -0.38793  -0.38709  -0.38446  -0.38269
 Alpha  occ. eigenvalues --   -0.37836  -0.37659  -0.37585  -0.37314  -0.37133
 Alpha  occ. eigenvalues --   -0.37068  -0.36928  -0.36832  -0.36655  -0.36372
 Alpha  occ. eigenvalues --   -0.36139  -0.35800  -0.35536  -0.35433  -0.35392
 Alpha  occ. eigenvalues --   -0.35274  -0.35165  -0.34917  -0.34709  -0.34518
 Alpha  occ. eigenvalues --   -0.34376  -0.34306  -0.34089  -0.33875  -0.33513
 Alpha  occ. eigenvalues --   -0.33231  -0.33199  -0.32704  -0.32688  -0.32321
 Alpha  occ. eigenvalues --   -0.32246  -0.31835  -0.31206  -0.31163  -0.30728
 Alpha  occ. eigenvalues --   -0.30559  -0.30525  -0.30440  -0.30140  -0.30127
 Alpha  occ. eigenvalues --   -0.30003  -0.29274  -0.28706  -0.28510  -0.27750
 Alpha  occ. eigenvalues --   -0.27436  -0.26880  -0.26186  -0.25916  -0.25035
 Alpha  occ. eigenvalues --   -0.24941  -0.24839  -0.24182  -0.22024  -0.20198
 Alpha  occ. eigenvalues --   -0.18693
 Alpha virt. eigenvalues --   -0.10296  -0.07836  -0.04843  -0.02258  -0.01842
 Alpha virt. eigenvalues --   -0.01165  -0.00438   0.01015   0.02215   0.03491
 Alpha virt. eigenvalues --    0.03875   0.03948   0.04234   0.04461   0.04634

 Mulliken charges:
               1
     1  C    0.074037
     2  C   -0.072011
     3  C   -0.003471
     4  C   -0.079636
     5  N   -0.181543
     6  C   -0.082188
     7  C   -0.047538
     8  C   -0.078241
     9  C   -0.003656
    10  C    0.053274
    11  C    0.012766
    12  C   -0.011893
    13  C    0.223492
    14  O   -0.300904
    15  O   -0.321318
    16  N   -0.075798
    17  C    0.107065
    18  C   -0.163751
    19  C    0.071121
    20  C    0.109411
    21  C    0.136903
    22  C   -0.036131
    23  C   -0.106947
    24  N   -0.263791
    25  C   -0.021639
    26  C   -0.010257
    27  C   -0.148373
    28  C    0.031814
    29  C    0.030577
    30  C    0.042284
    31  C    0.132733
    32  N   -0.033291
    33  C    0.116427
    34  C   -0.112055
    35  C    0.017778
    36  C    0.083256
    37  C    0.072837
    38  C    0.037840
    39  O   -0.161455
    40  C   -0.136893
    41  C    0.194215
    42  O   -0.268407
    43  O   -0.228748
    44  C    0.223902
    45  C    0.252292
    46  C   -0.096530
    47  C   -0.158764
    48  C   -0.051294
    49  C    0.087985
    50  C    0.140368
    51  C    0.002555
    52  C    0.054702
    53  C   -0.036449
    54  C   -0.035922
    55  C    0.043821
    56  C   -0.076695
    57  C    0.057288
    58  C    0.035834
    59  C    0.024411
    60  C    0.090746
    61  C   -0.023516
    62  C   -0.125169
    63  C    0.020986
    64  C    0.005328
    65  H   -0.044264
    66  H   -0.033328
    67  H   -0.012301
    68  H    0.036722
    69  H    0.013624
    70  H    0.011459
    71  H    0.007431
    72  H    0.028133
    73  H    0.047270
    74  H    0.022941
    75  H    0.033880
    76  H    0.071959
    77  H    0.031140
    78  H    0.011241
    79  H    0.037817
    80  H   -0.007998
    81  H    0.056099
    82  H    0.038771
    83  H    0.010184
    84  H    0.025333
    85  H    0.015558
    86  H   -0.013188
    87  H    0.008395
    88  H   -0.001799
    89  H   -0.051478
    90  H    0.008434
    91  H    0.040110
    92  H    0.039087
    93  H   -0.002859
    94  H    0.094693
    95  H    0.018669
    96  H    0.008130
    97  H    0.038533
    98  H    0.039836
    99  H    0.029195
   100  H    0.037315
   101  H    0.044020
   102  H    0.075589
   103  H    0.029269
   104  H   -0.005306
   105  H   -0.039249
   106  H   -0.019571
   107  H   -0.021753
   108  H   -0.023468
   109  H   -0.037934
   110  H    0.003280
   111  H    0.002107
   112  H    0.004537
   113  H    0.015205
   114  H   -0.026104
   115  H   -0.006513
   116  H    0.039421
   117  H    0.019657
   118  H   -0.023576
   119  H   -0.006986
   120  H   -0.032586
   121  H    0.019488
   122  H    0.001843
   123  H    0.004010
   124  H   -0.016891
   125  H   -0.021929
   126  H   -0.061413
   127  H   -0.007274
   128  H    0.008379
   129  H   -0.007899
   130  H    0.012106
   131  H    0.011793
   132  H    0.006852
   133  H    0.001547
   134  H    0.052085
   135  H    0.001867
   136  H    0.006353
   137  H    0.135296
   138  H    0.135230
 Sum of Mulliken charges =   0.00000

 Dipole moment (field-independent basis, Debye):
    X=              3.8187    Y=              3.4633    Z=              0.5316  Tot=              5.1826
 Quadrupole moment (field-independent basis, Debye-Ang):
   XX=           -366.0362   YY=           -380.1596   ZZ=           -397.8399
   XY=            -19.8120   XZ=             -4.7705   YZ=             -2.2808

 Normal termination of Gaussian 09 at Sat Aug  3 18:40:53 2019.
