 Gaussian 09, Revision D.01,
 Gaussian 09:  ES64L-G09RevD.01 24-Apr-2013

 --------------------------
 # td=(NStates=1) B3LYP/SVP
 --------------------------

 --
 TD
 --
 Symbolic Z-matrix:
 Charge =  0 Multiplicity = 1

                         Standard orientation:
 ---------------------------------------------------------------------
 Center     Atomic      Atomic             Coordinates (Angstroms)
 Number     Number       Type             X           Y           Z
 ---------------------------------------------------------------------
      1          6           0       -5.133708   -1.964795    0.594730
      2          6           0       -4.582697    2.727149    1.492232
      3          6           0       -9.157476    3.442143   -0.213925
      4          6           0       -9.751853   -1.311868   -0.946508
      5          7           0       -5.224974    0.414931    0.896315
      6          6           0       -4.495808   -0.724591    0.861017
      7          6           0       -3.004906   -0.575471    1.269251
      8          6           0       -2.950731    0.882608    1.835294
      9          6           0       -4.386588    1.328047    1.404562
     10          6           0       -2.810257    0.784882    3.416409
     11          6           0       -2.147295   -0.816876    0.098139
     12          6           0       -0.659378   -0.941500    0.466415
     13          6           0        0.296390   -1.110698   -0.688323
     14          8           0       -0.076472   -1.610304   -1.772037
     15          8           0        1.563518   -0.972236   -0.294738
     16          7           0       -6.903999    2.749837    0.464852
     17          6           0       -5.808652    3.381820    1.053881
     18          6           0       -6.092670    4.751854    1.192255
     19          6           0       -7.334272    5.005539    0.575888
     20          6           0       -7.900082    3.676284    0.295682
     21          6           0       -5.108457    5.911793    1.490827
     22          6           0       -7.916385    6.286175    0.400581
     23          6           0       -8.862530    6.542738   -0.575210
     24          7           0       -9.125702    0.960845   -0.488507
     25          6           0       -9.684656    2.140344   -0.512614
     26          6           0      -11.169236    1.995490   -0.949748
     27          6           0      -11.265710    0.681945   -1.141717
     28          6           0      -10.061949   -0.010446   -0.897267
     29          6           0      -12.090474    3.152743   -1.238588
     30          6           0      -12.522991   -0.081809   -1.592735
     31          6           0      -12.798020   -0.041753   -3.164289
     32          7           0       -7.434747   -1.242326   -0.098612
     33          6           0       -8.523560   -1.933714   -0.629129
     34          6           0       -8.201079   -3.302128   -0.619191
     35          6           0       -6.809039   -3.396210   -0.204223
     36          6           0       -6.393293   -2.083381    0.118467
     37          6           0       -9.139660   -4.407363   -0.960338
     38          6           0       -5.715918   -4.339807    0.026103
     39          8           0       -5.689069   -5.544334   -0.108584
     40          6           0       -4.567570   -3.364399    0.486386
     41          6           0       -4.023578   -3.882947    1.821000
     42          8           0       -4.152001   -3.238942    2.855644
     43          8           0       -3.450105   -5.046868    1.590675
     44          6           0       -2.868379   -5.683035    2.766221
     45          6           0        2.658718   -1.263753   -1.244811
     46          6           0        3.954250   -0.699104   -0.681311
     47          6           0        4.942811   -0.124605   -1.381851
     48          6           0        4.942661    0.215758   -2.856667
     49          6           0        6.155749    0.311621   -0.639597
     50          6           0        7.373291   -0.486116   -1.201157
     51          6           0        8.707541   -0.091073   -0.223407
     52          6           0        9.987923   -0.852030   -0.739774
     53          6           0       10.043057   -2.363574   -0.729661
     54          6           0       11.194177   -0.246258   -0.006605
     55          6           0       12.484713   -0.644517   -0.619122
     56          6           0       13.706304   -0.069684    0.294507
     57          6           0       15.080918   -0.195746   -0.363216
     58          6           0       15.568824   -1.615505   -0.542608
     59          6           0       16.150348    0.750122    0.272896
     60          6           0       17.621265    0.864419   -0.199386
     61          6           0       18.453250    1.832945    0.692838
     62          6           0       19.965946    1.702918    0.386051
     63          6           0       20.344397    2.021642   -1.047459
     64          6           0       20.799312    2.652662    1.355372
     65          1           0       -3.803592    3.519794    1.682361
     66          1           0       -9.822007    4.202574   -0.514915
     67          1           0      -10.543814   -2.035765   -1.188037
     68          1           0       -2.695273   -1.336604    2.109807
     69          1           0       -2.354000    1.762096    1.443954
     70          1           0       -1.861518    0.446419    3.717567
     71          1           0       -2.890664    1.819404    3.717124
     72          1           0       -3.537770    0.084208    4.060508
     73          1           0       -2.374705   -1.651094   -0.637925
     74          1           0       -2.084145    0.049837   -0.496909
     75          1           0       -0.360520    0.012761    0.813619
     76          1           0       -0.387063   -1.417329    1.320355
     77          1           0       -4.322170    5.862997    0.732077
     78          1           0       -5.632431    6.807274    1.452724
     79          1           0       -4.704483    5.812926    2.492901
     80          1           0       -7.727900    7.176927    1.206931
     81          1           0       -9.433127    5.969553   -1.533374
     82          1           0       -9.086773    7.712581   -0.584792
     83          1           0      -12.461295    3.507150   -0.247507
     84          1           0      -11.620033    3.787147   -2.020578
     85          1           0      -12.962348    2.820568   -1.627529
     86          1           0      -12.393011   -1.160996   -1.138505
     87          1           0      -13.457835    0.274692   -0.922694
     88          1           0      -12.773985    0.865789   -3.342576
     89          1           0      -11.782631   -0.286748   -3.553875
     90          1           0      -13.581238   -0.671696   -3.552010
     91          1           0      -10.010980   -4.507263   -0.527425
     92          1           0       -9.289940   -4.282863   -2.035464
     93          1           0       -8.683402   -5.371255   -1.030169
     94          1           0       -3.589319   -3.498985   -0.208142
     95          1           0       -2.197914   -6.479410    2.468768
     96          1           0       -2.393620   -4.931142    3.344913
     97          1           0       -3.754966   -6.308171    3.240441
     98          1           0        2.741740   -2.390663   -1.562633
     99          1           0        2.305817   -0.531854   -2.095926
    100          1           0        4.110231   -1.047974    0.340481
    101          1           0        5.196684    1.094434   -3.086544
    102          1           0        5.787877   -0.481091   -3.286383
    103          1           0        3.940483    0.200534   -3.256236
    104          1           0        6.463919    1.363958   -0.732397
    105          1           0        5.984857    0.021908    0.411588
    106          1           0        7.571306   -1.560117   -1.080146
    107          1           0        7.450714    0.055653   -2.229922
    108          1           0        9.011646    0.910973   -0.285914
    109          1           0        8.653526   -0.336687    0.853096
    110          1           0       10.169091   -0.721696   -1.840662
    111          1           0        9.218097   -2.818576   -1.436457
    112          1           0       11.119259   -2.854344   -1.050250
    113          1           0        9.564090   -2.741339    0.351560
    114          1           0       11.276273    0.943108   -0.196723
    115          1           0       11.281217   -0.523891    0.930105
    116          1           0       12.799618   -1.729565   -0.885583
    117          1           0       12.543237   -0.307350   -1.624847
    118          1           0       13.535245    1.011630    0.252451
    119          1           0       13.489530   -0.558631    1.331292
    120          1           0       14.832567    0.197360   -1.432425
    121          1           0       15.019401   -2.422805   -1.269051
    122          1           0       16.563831   -1.653825   -0.912023
    123          1           0       15.559370   -2.038359    0.435795
    124          1           0       15.584924    1.657904    0.296881
    125          1           0       16.416450    0.500648    1.381799
    126          1           0       18.165454   -0.210374   -0.256028
    127          1           0       17.864112    1.247702   -1.199010
    128          1           0       18.172892    2.967393    0.655013
    129          1           0       18.189346    1.460139    1.824363
    130          1           0       20.350121    0.746128    0.650981
    131          1           0       20.028764    3.073318   -1.322587
    132          1           0       21.476884    1.891786   -1.322973
    133          1           0       19.956834    1.505216   -2.038667
    134          1           0       20.302181    2.418138    2.326199
    135          1           0       21.883825    2.433403    1.328587
    136          1           0       20.678708    3.816842    1.049275
    137          1           0       -6.946854    1.732586    0.481602
    138          1           0       -7.437727   -0.271872    0.135254
 ---------------------------------------------------------------------

 SCF Done:  E(RB3LYP) =  -2733.07609295     A.U. after   17 cycles

 Excitation energies and oscillator strengths:

 Excited State   1:      Singlet-A      2.0280 eV  611.35 nm  f=0.2435  <S**2>=0.000
     235 -> 237       -0.17694
     235 -> 238        0.23977
     236 -> 237        0.63330
     236 -> 238        0.10026
 This state for optimization and/or second-order correction.
 Total Energy, E(TD-HF/TD-KS) =  -2733.00156438
 Copying the excited state density for this state as the 1-particle RhoCI density.

 The electronic state is 1-A.
 Alpha  occ. eigenvalues --  -19.18327 -19.17975 -19.11860 -19.11407 -19.11162
 Alpha  occ. eigenvalues --  -14.36708 -14.35662 -14.33081 -14.29159 -10.31218
 Alpha  occ. eigenvalues --  -10.31076 -10.26868 -10.26496 -10.25097 -10.23693
 Alpha  occ. eigenvalues --  -10.23686 -10.23180 -10.23128 -10.22484 -10.22353
 Alpha  occ. eigenvalues --  -10.22305 -10.21750 -10.21063 -10.21025 -10.20987
 Alpha  occ. eigenvalues --  -10.20846 -10.20843 -10.20665 -10.20491 -10.20345
 Alpha  occ. eigenvalues --  -10.20277 -10.20272 -10.20226 -10.20185 -10.20091
 Alpha  occ. eigenvalues --  -10.19917 -10.19703 -10.19703 -10.19509 -10.19495
 Alpha  occ. eigenvalues --  -10.19477 -10.19409 -10.19347 -10.19196 -10.19168
 Alpha  occ. eigenvalues --  -10.19148 -10.19101 -10.19012 -10.19009 -10.18988
 Alpha  occ. eigenvalues --  -10.18960 -10.18889 -10.18810 -10.18590 -10.18393
 Alpha  occ. eigenvalues --  -10.18365 -10.17979 -10.17896 -10.17894 -10.17858
 Alpha  occ. eigenvalues --  -10.17687 -10.17354 -10.17345 -10.16881  -1.09634
 Alpha  occ. eigenvalues --   -1.08310  -1.01563  -1.00195  -0.98351  -0.97776
 Alpha  occ. eigenvalues --   -0.97414  -0.94959  -0.93133  -0.84642  -0.83074
 Alpha  occ. eigenvalues --   -0.82032  -0.81977  -0.81624  -0.80723  -0.80705
 Alpha  occ. eigenvalues --   -0.79646  -0.79343  -0.78808  -0.78531  -0.77443
 Alpha  occ. eigenvalues --   -0.76404  -0.75532  -0.75228  -0.74505  -0.74090
 Alpha  occ. eigenvalues --   -0.73813  -0.73135  -0.72330  -0.71952  -0.70992
 Alpha  occ. eigenvalues --   -0.70644  -0.69936  -0.68888  -0.68306  -0.67853
 Alpha  occ. eigenvalues --   -0.67060  -0.66411  -0.66151  -0.65891  -0.65378
 Alpha  occ. eigenvalues --   -0.63534  -0.62892  -0.61825  -0.61535  -0.61289
 Alpha  occ. eigenvalues --   -0.60730  -0.58905  -0.58064  -0.57556  -0.57475
 Alpha  occ. eigenvalues --   -0.56677  -0.55723  -0.55487  -0.55381  -0.55122
 Alpha  occ. eigenvalues --   -0.55051  -0.54877  -0.53833  -0.53497  -0.53160
 Alpha  occ. eigenvalues --   -0.52556  -0.51782  -0.50985  -0.50516  -0.49929
 Alpha  occ. eigenvalues --   -0.49443  -0.48939  -0.48651  -0.48344  -0.48255
 Alpha  occ. eigenvalues --   -0.48056  -0.47598  -0.47194  -0.46987  -0.46916
 Alpha  occ. eigenvalues --   -0.46385  -0.46252  -0.45949  -0.45662  -0.45452
 Alpha  occ. eigenvalues --   -0.45313  -0.45047  -0.44727  -0.44696  -0.44523
 Alpha  occ. eigenvalues --   -0.44312  -0.44144  -0.43996  -0.43570  -0.43458
 Alpha  occ. eigenvalues --   -0.43336  -0.43188  -0.42976  -0.42827  -0.42596
 Alpha  occ. eigenvalues --   -0.42323  -0.42060  -0.42014  -0.41675  -0.41549
 Alpha  occ. eigenvalues --   -0.41157  -0.41104  -0.40997  -0.40881  -0.40391
 Alpha  occ. eigenvalues --   -0.40295  -0.40124  -0.39921  -0.39788  -0.39365
 Alpha  occ. eigenvalues --   -0.39231  -0.38979  -0.38882  -0.38783  -0.38442
 Alpha  occ. eigenvalues --   -0.38338  -0.38128  -0.37792  -0.37663  -0.37406
 Alpha  occ. eigenvalues --   -0.37097  -0.37002  -0.36967  -0.36771  -0.36531
 Alpha  occ. eigenvalues --   -0.36187  -0.35989  -0.35807  -0.35635  -0.35568
 Alpha  occ. eigenvalues --   -0.35523  -0.35259  -0.34752  -0.34595  -0.34536
 Alpha  occ. eigenvalues --   -0.34357  -0.34155  -0.33838  -0.33603  -0.33434
 Alpha  occ. eigenvalues --   -0.33349  -0.32945  -0.32599  -0.32378  -0.32359
 Alpha  occ. eigenvalues --   -0.32124  -0.31906  -0.31864  -0.31550  -0.31261
 Alpha  occ. eigenvalues --   -0.30823  -0.30796  -0.30604  -0.30336  -0.30101
 Alpha  occ. eigenvalues --   -0.30024  -0.29254  -0.28366  -0.28148  -0.27990
 Alpha  occ. eigenvalues --   -0.27152  -0.26674  -0.26281  -0.25008  -0.24791
 Alpha  occ. eigenvalues --   -0.24665  -0.23982  -0.23752  -0.22917  -0.19893
 Alpha  occ. eigenvalues --   -0.18297
 Alpha virt. eigenvalues --   -0.10166  -0.07065  -0.04009  -0.02074  -0.00432
 Alpha virt. eigenvalues --    0.00142   0.00193   0.01337   0.02731   0.03413
 Alpha virt. eigenvalues --    0.03607   0.03739   0.04176   0.04475   0.04894

 Mulliken charges:
               1
     1  C    0.064713
     2  C   -0.084577
     3  C   -0.073617
     4  C   -0.101156
     5  N   -0.169935
     6  C   -0.052351
     7  C   -0.016835
     8  C   -0.095547
     9  C    0.058768
    10  C    0.053952
    11  C    0.086901
    12  C    0.093962
    13  C    0.190529
    14  O   -0.278511
    15  O   -0.322916
    16  N   -0.060270
    17  C    0.047589
    18  C   -0.176675
    19  C    0.053740
    20  C    0.166119
    21  C    0.147580
    22  C   -0.110449
    23  C   -0.116539
    24  N   -0.206855
    25  C   -0.020403
    26  C   -0.210366
    27  C   -0.070239
    28  C    0.120141
    29  C    0.197832
    30  C   -0.060064
    31  C    0.182924
    32  N   -0.019391
    33  C    0.080771
    34  C   -0.172297
    35  C   -0.017192
    36  C    0.067323
    37  C    0.215539
    38  C    0.085804
    39  O   -0.163099
    40  C   -0.160084
    41  C    0.193099
    42  O   -0.245796
    43  O   -0.275368
    44  C    0.178293
    45  C    0.216767
    46  C   -0.117595
    47  C   -0.137151
    48  C    0.176177
    49  C    0.111699
    50  C   -0.057366
    51  C    0.069218
    52  C   -0.087417
    53  C   -0.083517
    54  C    0.127023
    55  C   -0.063861
    56  C    0.010240
    57  C   -0.061853
    58  C    0.034425
    59  C    0.057776
    60  C    0.002938
    61  C   -0.055722
    62  C   -0.042565
    63  C   -0.049243
    64  C   -0.011003
    65  H   -0.002546
    66  H   -0.057015
    67  H   -0.024265
    68  H    0.042099
    69  H    0.022090
    70  H   -0.000158
    71  H   -0.004910
    72  H    0.056604
    73  H    0.039769
    74  H   -0.024592
    75  H   -0.022789
    76  H   -0.018270
    77  H    0.037120
    78  H   -0.017219
    79  H    0.016412
    80  H    0.066815
    81  H    0.086729
    82  H    0.033392
    83  H    0.025866
    84  H    0.038500
    85  H   -0.038351
    86  H    0.004699
    87  H    0.011357
    88  H   -0.081901
    89  H   -0.005477
    90  H    0.030749
    91  H   -0.011357
    92  H    0.004318
    93  H    0.003248
    94  H    0.085945
    95  H    0.029997
    96  H    0.038568
    97  H    0.053401
    98  H    0.069771
    99  H    0.043117
   100  H   -0.004895
   101  H   -0.051478
   102  H    0.049688
   103  H   -0.005576
   104  H    0.011529
   105  H   -0.007200
   106  H    0.024033
   107  H    0.027051
   108  H   -0.026011
   109  H    0.002734
   110  H   -0.014513
   111  H    0.027455
   112  H    0.056612
   113  H    0.007731
   114  H    0.016771
   115  H   -0.049140
   116  H   -0.002072
   117  H   -0.034623
   118  H   -0.011194
   119  H    0.017693
   120  H   -0.004067
   121  H    0.020993
   122  H   -0.005389
   123  H   -0.009228
   124  H   -0.014761
   125  H   -0.000729
   126  H    0.017431
   127  H   -0.005305
   128  H    0.021549
   129  H    0.009926
   130  H   -0.008384
   131  H    0.006802
   132  H    0.016702
   133  H    0.019073
   134  H    0.017993
   135  H    0.018984
   136  H    0.022196
   137  H    0.149869
   138  H    0.116007
 Sum of Mulliken charges =   0.00000

 Dipole moment (field-independent basis, Debye):
    X=              4.0227    Y=              4.8772    Z=              0.5013  Tot=              6.3420
 Quadrupole moment (field-independent basis, Debye-Ang):
   XX=           -350.2307   YY=           -377.9771   ZZ=           -394.2494
   XY=            -28.7505   XZ=              2.9389   YZ=             -8.1700

 Normal termination of Gaussian 09 at Sun Jul 28 20:10:19 2019.
