 Gaussian 09, Revision D.01,
 Gaussian 09:  ES64L-G09RevD.01 24-Apr-2013

 --------------------------
 # td=(NStates=1) B3LYP/SVP
 --------------------------

 --
 TD
 --
 Symbolic Z-matrix:
 Charge =  0 Multiplicity = 1

                         Standard orientation:
 ---------------------------------------------------------------------
 Center     Atomic      Atomic             Coordinates (Angstroms)
 Number     Number       Type             X           Y           Z
 ---------------------------------------------------------------------
      1          6           0       -5.151993   -1.919781    0.448846
      2          6           0       -4.765463    2.758912    1.457078
      3          6           0       -9.243216    3.387953   -0.242122
      4          6           0       -9.910017   -1.330344   -0.871706
      5          7           0       -5.107440    0.470568    0.732861
      6          6           0       -4.525491   -0.757767    0.844552
      7          6           0       -3.105489   -0.646230    1.315807
      8          6           0       -3.010371    0.896450    1.826862
      9          6           0       -4.406800    1.388043    1.359079
     10          6           0       -2.848994    1.001768    3.398773
     11          6           0       -2.021836   -0.845134    0.110017
     12          6           0       -0.540102   -0.766065    0.599706
     13          6           0        0.406463   -1.021670   -0.587197
     14          8           0        0.090401   -1.312185   -1.712164
     15          8           0        1.684161   -0.838016   -0.155835
     16          7           0       -7.016471    2.725140    0.563211
     17          6           0       -5.894664    3.376725    1.103376
     18          6           0       -6.205715    4.764368    1.126098
     19          6           0       -7.469822    4.945618    0.615054
     20          6           0       -8.016618    3.568019    0.193822
     21          6           0       -5.268512    5.823341    1.512528
     22          6           0       -8.134620    6.223200    0.397027
     23          6           0       -9.075676    6.673146   -0.466664
     24          7           0       -9.238074    0.920127   -0.513778
     25          6           0       -9.781856    2.147632   -0.625547
     26          6           0      -11.193776    1.989987   -1.037592
     27          6           0      -11.394663    0.619347   -1.299294
     28          6           0      -10.193028   -0.051596   -0.866665
     29          6           0      -12.220307    3.107796   -1.168513
     30          6           0      -12.563498   -0.137251   -1.863476
     31          6           0      -12.257610   -0.474778   -3.288485
     32          7           0       -7.571515   -1.253821   -0.197349
     33          6           0       -8.638282   -2.050257   -0.615137
     34          6           0       -8.265351   -3.399530   -0.768686
     35          6           0       -6.961561   -3.449892   -0.254100
     36          6           0       -6.494183   -2.061465    0.130379
     37          6           0       -9.124269   -4.605876   -1.217740
     38          6           0       -5.826820   -4.315946    0.101323
     39          8           0       -5.681770   -5.519706   -0.094491
     40          6           0       -4.580113   -3.326974    0.446497
     41          6           0       -3.938688   -4.004280    1.809452
     42          8           0       -4.196866   -3.457880    2.859565
     43          8           0       -3.212810   -4.960515    1.665585
     44          6           0       -2.575809   -5.545808    2.735155
     45          6           0        2.622982   -1.084665   -1.234068
     46          6           0        3.983722   -0.722192   -0.662148
     47          6           0        4.994569    0.164160   -1.093761
     48          6           0        4.897430    0.860093   -2.328992
     49          6           0        6.260500    0.203984   -0.260234
     50          6           0        7.524794   -0.376700   -0.999505
     51          6           0        8.754724   -0.397354   -0.143254
     52          6           0       10.033231   -0.789573   -0.834765
     53          6           0        9.936767   -2.344034   -1.083200
     54          6           0       11.211904   -0.445274    0.120050
     55          6           0       12.681368   -0.595664   -0.642973
     56          6           0       13.800168   -0.037388    0.264753
     57          6           0       15.259096   -0.159402   -0.395827
     58          6           0       15.615038   -1.694964   -0.562578
     59          6           0       16.225932    0.692751    0.478800
     60          6           0       17.580355    0.847419   -0.119422
     61          6           0       18.592841    1.662955    0.663538
     62          6           0       20.070117    1.682337   -0.031092
     63          6           0       20.073022    2.362203   -1.285450
     64          6           0       21.016140    2.404299    1.053878
     65          1           0       -4.060609    3.304897    2.032255
     66          1           0       -9.943522    4.200939   -0.197950
     67          1           0      -10.738406   -1.929186   -1.280407
     68          1           0       -2.636696   -1.217154    2.139717
     69          1           0       -2.240828    1.346669    1.500407
     70          1           0       -1.946744    0.666426    3.704056
     71          1           0       -3.025463    1.935103    3.648229
     72          1           0       -3.569383    0.645595    4.054065
     73          1           0       -2.284961   -1.660649   -0.480151
     74          1           0       -2.147565   -0.050115   -0.485533
     75          1           0       -0.254537    0.132197    1.026001
     76          1           0       -0.289872   -1.404780    1.263325
     77          1           0       -4.426061    5.728278    0.823080
     78          1           0       -5.499206    6.927385    1.256595
     79          1           0       -4.970117    5.860027    2.535960
     80          1           0       -7.645632    6.940136    1.183618
     81          1           0       -9.527126    5.960154   -1.064076
     82          1           0       -9.559908    7.671167   -0.488612
     83          1           0      -12.436302    3.562680   -0.227948
     84          1           0      -12.066585    3.821167   -1.902836
     85          1           0      -13.077446    2.679826   -1.441212
     86          1           0      -12.816423   -1.092766   -1.248900
     87          1           0      -13.370606    0.572208   -1.609817
     88          1           0      -12.028434    0.459506   -3.888178
     89          1           0      -11.251571   -1.262653   -3.186092
     90          1           0      -13.166046   -0.931273   -3.781744
     91          1           0      -10.018433   -4.762990   -0.438888
     92          1           0       -9.355896   -4.686976   -2.234548
     93          1           0       -8.627542   -5.490788   -0.928707
     94          1           0       -3.858789   -3.468413   -0.264704
     95          1           0       -2.076182   -6.504355    2.467447
     96          1           0       -1.594660   -4.749661    3.096654
     97          1           0       -3.283466   -5.634031    3.725093
     98          1           0        2.755584   -2.093895   -1.438721
     99          1           0        2.270384   -0.508953   -1.940459
    100          1           0        4.150333   -1.438788    0.305041
    101          1           0        5.257304    1.932468   -2.209957
    102          1           0        5.502925    0.271053   -3.077602
    103          1           0        3.711548    0.903525   -2.736869
    104          1           0        6.464046    1.211767    0.289471
    105          1           0        6.213311   -0.489338    0.742366
    106          1           0        7.493353   -1.422415   -1.424875
    107          1           0        7.604779    0.439254   -1.768595
    108          1           0        8.821994    0.523447    0.431185
    109          1           0        8.727410   -1.199275    0.780668
    110          1           0       10.244689   -0.249962   -1.726446
    111          1           0        9.238075   -2.659477   -2.108481
    112          1           0       10.870640   -2.604902   -1.440314
    113          1           0        9.684937   -2.893178   -0.108285
    114          1           0       11.040463    0.527853    0.674527
    115          1           0       11.379592   -1.191157    1.053093
    116          1           0       12.922240   -1.650526   -0.739091
    117          1           0       12.743736   -0.196587   -1.651261
    118          1           0       13.609058    1.065643    0.465631
    119          1           0       13.801264   -0.724884    1.155244
    120          1           0       15.223504    0.368963   -1.323705
    121          1           0       15.065877   -2.352011   -1.366063
    122          1           0       16.537873   -1.704834   -1.042709
    123          1           0       15.774219   -2.219628    0.325277
    124          1           0       15.617854    1.633704    0.533464
    125          1           0       16.135629    0.137662    1.467996
    126          1           0       18.215502   -0.126848   -0.277186
    127          1           0       17.534750    1.246516   -1.005104
    128          1           0       18.296561    2.760970    1.078792
    129          1           0       18.866016    1.252359    1.710018
    130          1           0       20.410371    0.599246   -0.036630
    131          1           0       19.844212    3.502606   -1.229492
    132          1           0       21.059566    2.080932   -1.775129
    133          1           0       19.435911    1.811693   -2.118651
    134          1           0       20.916558    1.853682    2.055649
    135          1           0       22.160731    2.436712    0.461642
    136          1           0       20.617210    3.569190    1.112432
    137          1           0       -7.141948    1.778810    0.388236
    138          1           0       -7.829161   -0.245570    0.039271
 ---------------------------------------------------------------------

 SCF Done:  E(RB3LYP) =  -2733.03555289     A.U. after   17 cycles

 Excitation energies and oscillator strengths:

 Excited State   1:      Singlet-A      2.1625 eV  573.35 nm  f=0.2092  <S**2>=0.000
     235 -> 237       -0.13437
     235 -> 238        0.27682
     236 -> 237        0.62659
 This state for optimization and/or second-order correction.
 Total Energy, E(TD-HF/TD-KS) =  -2732.95608402
 Copying the excited state density for this state as the 1-particle RhoCI density.

 The electronic state is 1-A.
 Alpha  occ. eigenvalues --  -19.20307 -19.17392 -19.12724 -19.10966 -19.09892
 Alpha  occ. eigenvalues --  -14.36436 -14.36415 -14.31909 -14.29503 -10.31260
 Alpha  occ. eigenvalues --  -10.30811 -10.28134 -10.26848 -10.24037 -10.23420
 Alpha  occ. eigenvalues --  -10.23187 -10.23152 -10.23046 -10.23011 -10.22474
 Alpha  occ. eigenvalues --  -10.21371 -10.21293 -10.21244 -10.21030 -10.20882
 Alpha  occ. eigenvalues --  -10.20875 -10.20695 -10.20658 -10.20481 -10.20295
 Alpha  occ. eigenvalues --  -10.20230 -10.20131 -10.20070 -10.19996 -10.19930
 Alpha  occ. eigenvalues --  -10.19884 -10.19877 -10.19799 -10.19633 -10.19608
 Alpha  occ. eigenvalues --  -10.19547 -10.19466 -10.19279 -10.19249 -10.19193
 Alpha  occ. eigenvalues --  -10.19175 -10.19060 -10.18996 -10.18975 -10.18928
 Alpha  occ. eigenvalues --  -10.18861 -10.18787 -10.18631 -10.18594 -10.18544
 Alpha  occ. eigenvalues --  -10.18515 -10.18501 -10.18398 -10.18240 -10.18071
 Alpha  occ. eigenvalues --  -10.17744 -10.17648 -10.17248 -10.16120  -1.16168
 Alpha  occ. eigenvalues --   -1.09330  -1.00917  -1.00626  -0.99871  -0.98083
 Alpha  occ. eigenvalues --   -0.96300  -0.94511  -0.92470  -0.83572  -0.82698
 Alpha  occ. eigenvalues --   -0.82240  -0.81589  -0.81426  -0.80878  -0.80304
 Alpha  occ. eigenvalues --   -0.79823  -0.79270  -0.79236  -0.78769  -0.77815
 Alpha  occ. eigenvalues --   -0.77089  -0.76345  -0.75876  -0.75304  -0.74797
 Alpha  occ. eigenvalues --   -0.74541  -0.73611  -0.72565  -0.71359  -0.71231
 Alpha  occ. eigenvalues --   -0.70202  -0.69510  -0.68875  -0.68025  -0.67535
 Alpha  occ. eigenvalues --   -0.67013  -0.66353  -0.66209  -0.65426  -0.64937
 Alpha  occ. eigenvalues --   -0.64390  -0.63200  -0.62592  -0.61162  -0.60797
 Alpha  occ. eigenvalues --   -0.60554  -0.58798  -0.58401  -0.58041  -0.57630
 Alpha  occ. eigenvalues --   -0.56760  -0.56627  -0.56396  -0.56312  -0.55940
 Alpha  occ. eigenvalues --   -0.55103  -0.54164  -0.53683  -0.53646  -0.53355
 Alpha  occ. eigenvalues --   -0.53010  -0.52093  -0.51955  -0.51601  -0.50938
 Alpha  occ. eigenvalues --   -0.50693  -0.50035  -0.49279  -0.48915  -0.48227
 Alpha  occ. eigenvalues --   -0.47910  -0.47605  -0.47472  -0.47334  -0.47102
 Alpha  occ. eigenvalues --   -0.46627  -0.46526  -0.46297  -0.46136  -0.45492
 Alpha  occ. eigenvalues --   -0.44926  -0.44820  -0.44720  -0.44563  -0.44464
 Alpha  occ. eigenvalues --   -0.44232  -0.44161  -0.44133  -0.43692  -0.43531
 Alpha  occ. eigenvalues --   -0.43300  -0.43264  -0.43081  -0.43022  -0.42674
 Alpha  occ. eigenvalues --   -0.42409  -0.42101  -0.41973  -0.41858  -0.41710
 Alpha  occ. eigenvalues --   -0.41570  -0.41257  -0.41082  -0.40878  -0.40694
 Alpha  occ. eigenvalues --   -0.40255  -0.40146  -0.39969  -0.39728  -0.39485
 Alpha  occ. eigenvalues --   -0.38991  -0.38866  -0.38715  -0.38351  -0.38198
 Alpha  occ. eigenvalues --   -0.38055  -0.37944  -0.37704  -0.37655  -0.37427
 Alpha  occ. eigenvalues --   -0.37266  -0.37134  -0.36974  -0.36838  -0.36732
 Alpha  occ. eigenvalues --   -0.36324  -0.36130  -0.35873  -0.35568  -0.35469
 Alpha  occ. eigenvalues --   -0.35177  -0.35079  -0.34942  -0.34646  -0.34393
 Alpha  occ. eigenvalues --   -0.34185  -0.34114  -0.34020  -0.33846  -0.33828
 Alpha  occ. eigenvalues --   -0.33619  -0.33213  -0.32990  -0.32604  -0.32576
 Alpha  occ. eigenvalues --   -0.32123  -0.31827  -0.31725  -0.31376  -0.31322
 Alpha  occ. eigenvalues --   -0.30977  -0.30950  -0.30918  -0.30697  -0.30039
 Alpha  occ. eigenvalues --   -0.29982  -0.29029  -0.28296  -0.28188  -0.27375
 Alpha  occ. eigenvalues --   -0.27204  -0.26661  -0.25823  -0.25592  -0.25354
 Alpha  occ. eigenvalues --   -0.24185  -0.23460  -0.23389  -0.22243  -0.20206
 Alpha  occ. eigenvalues --   -0.18668
 Alpha virt. eigenvalues --   -0.09759  -0.07693  -0.04373  -0.01512  -0.00652
 Alpha virt. eigenvalues --    0.00998   0.01270   0.01876   0.02079   0.03525
 Alpha virt. eigenvalues --    0.04065   0.04237   0.04429   0.04488   0.05005

 Mulliken charges:
               1
     1  C    0.066501
     2  C   -0.073132
     3  C   -0.144682
     4  C   -0.060019
     5  N   -0.136918
     6  C   -0.011887
     7  C   -0.058889
     8  C    0.019590
     9  C   -0.030703
    10  C    0.177660
    11  C    0.123330
    12  C    0.167537
    13  C    0.144112
    14  O   -0.229165
    15  O   -0.337578
    16  N   -0.042626
    17  C    0.188054
    18  C   -0.087719
    19  C   -0.008641
    20  C    0.166068
    21  C    0.083537
    22  C   -0.074675
    23  C   -0.002452
    24  N   -0.281711
    25  C    0.071920
    26  C   -0.208377
    27  C   -0.075992
    28  C    0.083480
    29  C    0.242069
    30  C    0.040469
    31  C   -0.020904
    32  N   -0.084933
    33  C    0.039045
    34  C   -0.141247
    35  C   -0.016814
    36  C    0.056214
    37  C    0.127885
    38  C    0.076803
    39  O   -0.202667
    40  C   -0.015874
    41  C    0.107506
    42  O   -0.256172
    43  O   -0.112701
    44  C    0.064321
    45  C    0.411160
    46  C   -0.182841
    47  C   -0.090305
    48  C    0.008950
    49  C   -0.016475
    50  C    0.043319
    51  C   -0.005584
    52  C   -0.018699
    53  C    0.011968
    54  C   -0.040842
    55  C    0.029926
    56  C   -0.000779
    57  C   -0.103660
    58  C    0.062576
    59  C    0.055411
    60  C    0.161047
    61  C   -0.060151
    62  C   -0.133950
    63  C    0.033183
    64  C   -0.070562
    65  H   -0.040519
    66  H   -0.019651
    67  H   -0.023188
    68  H    0.011158
    69  H   -0.072489
    70  H   -0.012052
    71  H   -0.059738
    72  H   -0.015441
    73  H   -0.006812
    74  H   -0.034748
    75  H   -0.003954
    76  H   -0.045393
    77  H    0.023185
    78  H    0.021501
    79  H    0.025826
    80  H    0.015177
    81  H   -0.002299
    82  H    0.036127
    83  H    0.008820
    84  H   -0.003953
    85  H   -0.063328
    86  H    0.021879
    87  H   -0.000272
    88  H    0.027934
    89  H    0.044624
    90  H    0.022905
    91  H    0.032409
    92  H    0.026079
    93  H    0.003707
    94  H    0.012475
    95  H    0.057894
    96  H    0.040122
    97  H    0.079200
    98  H    0.009985
    99  H   -0.050290
   100  H    0.020837
   101  H    0.030983
   102  H    0.054527
   103  H    0.040731
   104  H    0.024281
   105  H    0.005886
   106  H    0.016107
   107  H    0.001272
   108  H   -0.026760
   109  H   -0.006022
   110  H   -0.017576
   111  H    0.028086
   112  H   -0.018151
   113  H    0.031889
   114  H    0.008707
   115  H    0.002503
   116  H    0.000663
   117  H   -0.010808
   118  H    0.003343
   119  H   -0.000016
   120  H   -0.027472
   121  H    0.021525
   122  H   -0.027987
   123  H   -0.004001
   124  H   -0.002739
   125  H   -0.002461
   126  H    0.003141
   127  H   -0.064253
   128  H   -0.003624
   129  H   -0.014227
   130  H    0.010867
   131  H    0.036395
   132  H    0.003659
   133  H    0.014253
   134  H    0.041659
   135  H    0.030659
   136  H    0.031146
   137  H    0.101998
   138  H    0.170785
 Sum of Mulliken charges =   0.00000

 Dipole moment (field-independent basis, Debye):
    X=              3.3905    Y=              4.2754    Z=              0.5663  Tot=              5.4859
 Quadrupole moment (field-independent basis, Debye-Ang):
   XX=           -342.7544   YY=           -377.2411   ZZ=           -394.7416
   XY=            -37.1181   XZ=             -3.5645   YZ=             -2.1411

 Normal termination of Gaussian 09 at Mon Jul 29 10:45:39 2019.
