 Gaussian 09, Revision D.01,
 Gaussian 09:  ES64L-G09RevD.01 24-Apr-2013

 --------------------------
 # td=(NStates=1) B3LYP/SVP
 --------------------------

 --
 TD
 --
 Symbolic Z-matrix:
 Charge =  0 Multiplicity = 1

                         Standard orientation:
 ---------------------------------------------------------------------
 Center     Atomic      Atomic             Coordinates (Angstroms)
 Number     Number       Type             X           Y           Z
 ---------------------------------------------------------------------
      1          6           0       -5.118453   -1.960265    0.442384
      2          6           0       -4.801592    2.758838    1.216804
      3          6           0       -9.390201    3.285689   -0.328632
      4          6           0       -9.889810   -1.473861   -0.795710
      5          7           0       -5.159938    0.404137    0.670366
      6          6           0       -4.475970   -0.799787    0.800628
      7          6           0       -3.111277   -0.577107    1.252489
      8          6           0       -3.042179    0.824633    1.779758
      9          6           0       -4.370394    1.406209    1.222423
     10          6           0       -3.034073    1.048716    3.369337
     11          6           0       -2.023497   -0.726273    0.143637
     12          6           0       -0.603689   -0.660550    0.604306
     13          6           0        0.397170   -1.003577   -0.620597
     14          8           0       -0.044915   -1.386095   -1.626690
     15          8           0        1.678015   -0.890596   -0.168611
     16          7           0       -7.102871    2.751880    0.347248
     17          6           0       -5.972068    3.378716    0.899436
     18          6           0       -6.262118    4.748156    1.132255
     19          6           0       -7.541406    4.992433    0.557843
     20          6           0       -8.080043    3.684728    0.179982
     21          6           0       -5.331872    5.771655    1.565343
     22          6           0       -8.246559    6.271295    0.455893
     23          6           0       -9.190774    6.714833   -0.383395
     24          7           0       -9.138478    0.875658   -0.453970
     25          6           0       -9.828260    2.038346   -0.597166
     26          6           0      -11.260766    1.809590   -0.970188
     27          6           0      -11.439489    0.490341   -1.052153
     28          6           0      -10.058143   -0.067980   -0.799259
     29          6           0      -12.241415    2.994523   -1.267879
     30          6           0      -12.628384   -0.277475   -1.583350
     31          6           0      -12.747872   -0.411505   -3.009400
     32          7           0       -7.540446   -1.352622   -0.091300
     33          6           0       -8.660471   -2.177697   -0.458862
     34          6           0       -8.239470   -3.495405   -0.463498
     35          6           0       -6.864792   -3.468425   -0.226456
     36          6           0       -6.445664   -2.071874    0.040009
     37          6           0       -9.042421   -4.593060   -0.996504
     38          6           0       -5.686076   -4.356926    0.061557
     39          8           0       -5.540039   -5.446740   -0.055282
     40          6           0       -4.469476   -3.303767    0.386807
     41          6           0       -3.883556   -3.852293    1.744593
     42          8           0       -4.021172   -3.363160    2.836463
     43          8           0       -2.973958   -4.807232    1.591526
     44          6           0       -2.497732   -5.514155    2.859217
     45          6           0        2.696292   -1.174150   -1.137488
     46          6           0        3.991761   -0.767730   -0.636246
     47          6           0        4.916759    0.070688   -1.072839
     48          6           0        4.865231    0.916177   -2.424742
     49          6           0        6.290490    0.294936   -0.421492
     50          6           0        7.529969   -0.336156   -1.127085
     51          6           0        8.856225   -0.209457   -0.306646
     52          6           0       10.037406   -0.693160   -0.945510
     53          6           0       10.108528   -2.110792   -1.361561
     54          6           0       11.334967   -0.169341   -0.090805
     55          6           0       12.673081   -0.416486   -0.686452
     56          6           0       13.815027    0.109961    0.198160
     57          6           0       15.190719   -0.029772   -0.390064
     58          6           0       15.507100   -1.527120   -0.751785
     59          6           0       16.329374    0.551564    0.566260
     60          6           0       17.706352    0.638904   -0.115456
     61          6           0       18.594811    1.401181    0.808406
     62          6           0       20.100462    1.571651    0.260735
     63          6           0       20.262850    2.292397   -0.998315
     64          6           0       20.931846    2.181639    1.404396
     65          1           0       -4.081130    3.593829    1.809608
     66          1           0      -10.068180    4.110890   -0.572625
     67          1           0      -10.654363   -2.133380   -1.292390
     68          1           0       -2.872980   -1.263649    2.099757
     69          1           0       -2.168682    1.219589    1.289040
     70          1           0       -2.217921    0.436671    3.665858
     71          1           0       -3.252430    2.163597    3.644957
     72          1           0       -3.948035    0.481113    3.636798
     73          1           0       -2.383264   -1.690351   -0.381325
     74          1           0       -2.242452   -0.080206   -0.681141
     75          1           0       -0.236044    0.386965    1.120321
     76          1           0       -0.336920   -1.358282    1.368445
     77          1           0       -4.519484    5.776456    0.833519
     78          1           0       -5.724711    6.662094    1.613553
     79          1           0       -4.958822    5.420281    2.704375
     80          1           0       -7.972454    7.046165    1.224148
     81          1           0       -9.479186    6.098659   -1.301402
     82          1           0       -9.654351    7.662919   -0.260871
     83          1           0      -12.558740    3.626276   -0.422164
     84          1           0      -11.915044    3.594618   -2.225544
     85          1           0      -13.169373    2.575170   -1.854160
     86          1           0      -12.625769   -1.436241   -1.162120
     87          1           0      -13.526890    0.160876   -1.103377
     88          1           0      -12.928677    0.436525   -3.611224
     89          1           0      -11.768844   -0.782765   -3.394542
     90          1           0      -13.506211   -1.194950   -3.405773
     91          1           0      -10.141117   -4.662954   -0.650435
     92          1           0       -8.825060   -4.612181   -2.095056
     93          1           0       -8.347519   -5.584242   -0.650764
     94          1           0       -3.692810   -3.506591   -0.408438
     95          1           0       -1.642875   -6.169276    2.339218
     96          1           0       -2.131050   -4.567001    3.563513
     97          1           0       -3.320576   -6.035389    3.264539
     98          1           0        2.813680   -2.174913   -1.458710
     99          1           0        2.348468   -0.504610   -2.088264
    100          1           0        4.295552   -1.438097    0.250489
    101          1           0        5.161047    1.954233   -2.334804
    102          1           0        5.654163    0.784812   -3.181631
    103          1           0        3.918960    0.924327   -2.822774
    104          1           0        6.588859    1.474067   -0.166571
    105          1           0        6.131760   -0.370447    0.475908
    106          1           0        7.139296   -1.447198   -1.413536
    107          1           0        7.704689    0.295818   -2.009300
    108          1           0        8.874245    0.725380   -0.061462
    109          1           0        8.822680   -1.033251    0.645985
    110          1           0       10.254153    0.021920   -1.934152
    111          1           0        9.146084   -2.362639   -2.068634
    112          1           0       11.025791   -2.370358   -1.910496
    113          1           0       10.061174   -2.849743   -0.465161
    114          1           0       11.289261    0.846038    0.251567
    115          1           0       11.310583   -0.701132    0.914601
    116          1           0       12.737559   -1.611610   -0.875713
    117          1           0       12.638066   -0.233963   -1.790841
    118          1           0       13.549501    1.249044    0.482093
    119          1           0       13.846390   -0.425956    1.123433
    120          1           0       15.318131    0.460209   -1.294739
    121          1           0       14.722807   -1.902297   -1.364627
    122          1           0       16.583078   -1.878893   -1.244327
    123          1           0       15.587270   -2.247364    0.420170
    124          1           0       16.121410    1.640773    0.486796
    125          1           0       16.114144    0.173016    1.466666
    126          1           0       18.098880   -0.282947   -0.388117
    127          1           0       17.475595    1.131259   -1.095693
    128          1           0       18.087807    2.635442    0.871894
    129          1           0       18.595091    0.908104    1.773140
    130          1           0       20.487820    0.429548    0.031336
    131          1           0       20.000012    3.438472   -1.141993
    132          1           0       21.267988    2.458940   -1.264096
    133          1           0       20.009323    1.713992   -2.025043
    134          1           0       21.019322    1.533300    2.312340
    135          1           0       22.037451    2.275646    1.084191
    136          1           0       20.646162    3.239190    1.652518
    137          1           0       -7.144389    1.820230   -0.182190
    138          1           0       -7.597959   -0.406285    0.111044
 ---------------------------------------------------------------------

 SCF Done:  E(RB3LYP) =  -2733.05218837     A.U. after   16 cycles

 Excitation energies and oscillator strengths:

 Excited State   1:      Singlet-A      2.0119 eV  616.26 nm  f=0.1937  <S**2>=0.000
     235 -> 238        0.26635
     236 -> 237        0.64369
 This state for optimization and/or second-order correction.
 Total Energy, E(TD-HF/TD-KS) =  -2732.97825338
 Copying the excited state density for this state as the 1-particle RhoCI density.

 The electronic state is 1-A.
 Alpha  occ. eigenvalues --  -19.18504 -19.16392 -19.13773 -19.12866 -19.10931
 Alpha  occ. eigenvalues --  -14.36430 -14.35996 -14.31977 -14.30335 -10.31992
 Alpha  occ. eigenvalues --  -10.30498 -10.27343 -10.26427 -10.25711 -10.23636
 Alpha  occ. eigenvalues --  -10.23057 -10.22929 -10.22885 -10.22807 -10.21805
 Alpha  occ. eigenvalues --  -10.21773 -10.21391 -10.21041 -10.20964 -10.20827
 Alpha  occ. eigenvalues --  -10.20820 -10.20736 -10.20726 -10.20647 -10.20617
 Alpha  occ. eigenvalues --  -10.20587 -10.20572 -10.20458 -10.20369 -10.20309
 Alpha  occ. eigenvalues --  -10.20233 -10.20205 -10.20155 -10.20053 -10.19869
 Alpha  occ. eigenvalues --  -10.19845 -10.19740 -10.19640 -10.19629 -10.19465
 Alpha  occ. eigenvalues --  -10.19329 -10.19225 -10.19197 -10.19179 -10.19096
 Alpha  occ. eigenvalues --  -10.19051 -10.18901 -10.18873 -10.18717 -10.18712
 Alpha  occ. eigenvalues --  -10.18663 -10.18522 -10.18513 -10.18415 -10.18373
 Alpha  occ. eigenvalues --  -10.18240 -10.18050 -10.17497 -10.16971  -1.10449
 Alpha  occ. eigenvalues --   -1.09585  -1.08263  -1.03730  -0.98400  -0.97924
 Alpha  occ. eigenvalues --   -0.97037  -0.93474  -0.92910  -0.83487  -0.82935
 Alpha  occ. eigenvalues --   -0.81972  -0.81947  -0.81396  -0.81249  -0.80778
 Alpha  occ. eigenvalues --   -0.80100  -0.79719  -0.79666  -0.77991  -0.77330
 Alpha  occ. eigenvalues --   -0.76398  -0.76184  -0.75006  -0.74630  -0.74149
 Alpha  occ. eigenvalues --   -0.73571  -0.72516  -0.72009  -0.71781  -0.70972
 Alpha  occ. eigenvalues --   -0.69902  -0.68840  -0.68498  -0.68063  -0.67353
 Alpha  occ. eigenvalues --   -0.67138  -0.66638  -0.65730  -0.65577  -0.65484
 Alpha  occ. eigenvalues --   -0.63358  -0.62456  -0.61860  -0.61309  -0.60834
 Alpha  occ. eigenvalues --   -0.60444  -0.58877  -0.58160  -0.57740  -0.57086
 Alpha  occ. eigenvalues --   -0.56507  -0.56123  -0.55929  -0.55320  -0.54613
 Alpha  occ. eigenvalues --   -0.54521  -0.54056  -0.53726  -0.53335  -0.52805
 Alpha  occ. eigenvalues --   -0.51937  -0.51717  -0.51459  -0.50656  -0.50028
 Alpha  occ. eigenvalues --   -0.49748  -0.49503  -0.49281  -0.48634  -0.48474
 Alpha  occ. eigenvalues --   -0.48163  -0.47777  -0.47399  -0.46940  -0.46725
 Alpha  occ. eigenvalues --   -0.46486  -0.46157  -0.45640  -0.45443  -0.45334
 Alpha  occ. eigenvalues --   -0.45268  -0.45153  -0.45053  -0.44852  -0.44276
 Alpha  occ. eigenvalues --   -0.44106  -0.43865  -0.43646  -0.43503  -0.43378
 Alpha  occ. eigenvalues --   -0.43333  -0.43290  -0.43262  -0.43206  -0.42905
 Alpha  occ. eigenvalues --   -0.42578  -0.42119  -0.41932  -0.41842  -0.41504
 Alpha  occ. eigenvalues --   -0.41253  -0.41118  -0.41041  -0.40838  -0.40723
 Alpha  occ. eigenvalues --   -0.40657  -0.40470  -0.40027  -0.39927  -0.39658
 Alpha  occ. eigenvalues --   -0.39521  -0.39020  -0.38763  -0.38573  -0.38489
 Alpha  occ. eigenvalues --   -0.38334  -0.38179  -0.37928  -0.37575  -0.37312
 Alpha  occ. eigenvalues --   -0.37160  -0.37087  -0.36762  -0.36644  -0.36311
 Alpha  occ. eigenvalues --   -0.36238  -0.36115  -0.35856  -0.35627  -0.35216
 Alpha  occ. eigenvalues --   -0.35116  -0.35084  -0.34880  -0.34709  -0.34561
 Alpha  occ. eigenvalues --   -0.34459  -0.34183  -0.33760  -0.33703  -0.33668
 Alpha  occ. eigenvalues --   -0.33323  -0.33076  -0.32602  -0.32587  -0.32335
 Alpha  occ. eigenvalues --   -0.31886  -0.31725  -0.31362  -0.31088  -0.30849
 Alpha  occ. eigenvalues --   -0.30790  -0.30694  -0.30446  -0.30332  -0.29469
 Alpha  occ. eigenvalues --   -0.29464  -0.28644  -0.28473  -0.27809  -0.27534
 Alpha  occ. eigenvalues --   -0.27255  -0.26812  -0.26733  -0.26219  -0.25924
 Alpha  occ. eigenvalues --   -0.25686  -0.24159  -0.23933  -0.23523  -0.19567
 Alpha  occ. eigenvalues --   -0.18337
 Alpha virt. eigenvalues --   -0.10156  -0.06785  -0.03345  -0.01080  -0.00580
 Alpha virt. eigenvalues --    0.00560   0.00844   0.01252   0.02505   0.03673
 Alpha virt. eigenvalues --    0.03710   0.03944   0.04030   0.04470   0.04673

 Mulliken charges:
               1
     1  C    0.055830
     2  C   -0.099454
     3  C   -0.104444
     4  C   -0.099432
     5  N   -0.215390
     6  C   -0.078954
     7  C   -0.015861
     8  C   -0.002489
     9  C   -0.032859
    10  C    0.086959
    11  C    0.075919
    12  C    0.000439
    13  C    0.175810
    14  O   -0.168651
    15  O   -0.314629
    16  N   -0.095669
    17  C    0.114063
    18  C   -0.149796
    19  C    0.067128
    20  C    0.045169
    21  C    0.148853
    22  C   -0.082844
    23  C   -0.035825
    24  N   -0.224350
    25  C    0.105059
    26  C   -0.111821
    27  C   -0.097221
    28  C    0.076134
    29  C    0.036368
    30  C    0.033733
    31  C    0.033656
    32  N    0.009031
    33  C    0.078839
    34  C   -0.125500
    35  C   -0.079613
    36  C    0.068824
    37  C   -0.000216
    38  C    0.047365
    39  O   -0.044325
    40  C   -0.134500
    41  C    0.188107
    42  O   -0.239085
    43  O   -0.324819
    44  C    0.128700
    45  C    0.258253
    46  C   -0.119686
    47  C   -0.093047
    48  C    0.102202
    49  C    0.006036
    50  C   -0.025321
    51  C    0.133635
    52  C   -0.106752
    53  C    0.005377
    54  C    0.024138
    55  C   -0.021285
    56  C    0.066753
    57  C   -0.021822
    58  C   -0.087054
    59  C    0.063573
    60  C    0.088460
    61  C   -0.012723
    62  C   -0.088788
    63  C    0.009396
    64  C    0.013649
    65  H    0.008296
    66  H   -0.036201
    67  H    0.003560
    68  H    0.001690
    69  H   -0.016215
    70  H    0.009744
    71  H    0.042964
    72  H    0.019118
    73  H    0.010497
    74  H   -0.010253
    75  H    0.049309
    76  H    0.016541
    77  H    0.040646
    78  H   -0.042882
    79  H    0.045196
    80  H    0.007560
    81  H    0.037543
    82  H    0.015541
    83  H    0.049334
    84  H    0.031958
    85  H    0.012862
    86  H    0.012578
    87  H    0.008901
    88  H   -0.007329
    89  H    0.000919
    90  H    0.016151
    91  H    0.055687
    92  H    0.050938
    93  H    0.051722
    94  H    0.074163
    95  H    0.070246
    96  H    0.078823
    97  H    0.047430
    98  H    0.024953
    99  H    0.032800
   100  H    0.008992
   101  H   -0.013626
   102  H    0.016462
   103  H   -0.017659
   104  H    0.033542
   105  H   -0.002610
   106  H    0.029312
   107  H   -0.006581
   108  H   -0.064482
   109  H    0.004898
   110  H   -0.010187
   111  H    0.031704
   112  H    0.021276
   113  H    0.016464
   114  H   -0.025083
   115  H   -0.018847
   116  H    0.006587
   117  H   -0.009012
   118  H    0.012178
   119  H   -0.010864
   120  H   -0.036569
   121  H    0.017559
   122  H    0.040099
   123  H   -0.001121
   124  H   -0.010785
   125  H   -0.038700
   126  H   -0.028359
   127  H   -0.003536
   128  H    0.009745
   129  H    0.001673
   130  H    0.009537
   131  H    0.011504
   132  H   -0.022001
   133  H    0.016808
   134  H    0.015266
   135  H    0.002907
   136  H    0.018453
   137  H    0.187306
   138  H    0.099727
 Sum of Mulliken charges =   0.00000

 Dipole moment (field-independent basis, Debye):
    X=              3.1849    Y=              3.1512    Z=             -0.8184  Tot=              4.5545
 Quadrupole moment (field-independent basis, Debye-Ang):
   XX=           -347.2538   YY=           -375.3564   ZZ=           -394.4146
   XY=            -17.5067   XZ=              7.9190   YZ=             -3.2543

 Normal termination of Gaussian 09 at Fri Jul 26 07:15:50 2019.
