 Gaussian 09, Revision D.01,
 Gaussian 09:  ES64L-G09RevD.01 24-Apr-2013

 --------------------------
 # td=(NStates=1) B3LYP/SVP
 --------------------------

 --
 TD
 --
 Symbolic Z-matrix:
 Charge =  0 Multiplicity = 1

                         Standard orientation:
 ---------------------------------------------------------------------
 Center     Atomic      Atomic             Coordinates (Angstroms)
 Number     Number       Type             X           Y           Z
 ---------------------------------------------------------------------
      1          6           0       -4.996560   -1.863526    0.597035
      2          6           0       -4.877852    2.865910    1.335078
      3          6           0       -9.572180    3.250243   -0.294037
      4          6           0       -9.774447   -1.599594   -0.894099
      5          7           0       -5.275129    0.533246    0.872959
      6          6           0       -4.526328   -0.610946    0.806132
      7          6           0       -3.053368   -0.447879    1.300890
      8          6           0       -3.187149    0.986448    1.888505
      9          6           0       -4.479445    1.494916    1.352235
     10          6           0       -3.057239    0.941751    3.408397
     11          6           0       -2.145786   -0.648202    0.121606
     12          6           0       -0.651574   -0.553327    0.526040
     13          6           0        0.342939   -0.814969   -0.526877
     14          8           0        0.156383   -1.301390   -1.690527
     15          8           0        1.676953   -0.385575   -0.265639
     16          7           0       -7.178721    2.741739    0.462308
     17          6           0       -6.054433    3.366759    0.906931
     18          6           0       -6.454605    4.703893    1.023299
     19          6           0       -7.745563    4.931184    0.502941
     20          6           0       -8.285539    3.593368    0.086531
     21          6           0       -5.503305    5.664672    1.579764
     22          6           0       -8.364648    6.228074    0.264942
     23          6           0       -9.182619    6.570157   -0.658964
     24          7           0       -9.240643    0.722052   -0.408825
     25          6           0      -10.041110    1.910004   -0.616264
     26          6           0      -11.351423    1.632003   -0.988109
     27          6           0      -11.387869    0.233646   -1.200287
     28          6           0      -10.143793   -0.207245   -0.823497
     29          6           0      -12.397934    2.732757   -1.157662
     30          6           0      -12.676032   -0.543577   -1.498260
     31          6           0      -12.644703   -0.847423   -3.014303
     32          7           0       -7.440266   -1.260911   -0.179533
     33          6           0       -8.471618   -2.129331   -0.541090
     34          6           0       -8.060627   -3.503856   -0.526771
     35          6           0       -6.679410   -3.402265   -0.202661
     36          6           0       -6.342557   -2.080314    0.118847
     37          6           0       -8.789779   -4.660067   -1.002379
     38          6           0       -5.594048   -4.253913    0.056728
     39          8           0       -5.390695   -5.429050   -0.117827
     40          6           0       -4.436222   -3.278336    0.570935
     41          6           0       -3.882621   -3.742046    1.861069
     42          8           0       -4.182995   -3.330902    2.951075
     43          8           0       -2.910593   -4.684192    1.584054
     44          6           0       -2.418202   -5.383148    2.744685
     45          6           0        2.637944   -0.750076   -1.315460
     46          6           0        4.037379   -0.488138   -0.634223
     47          6           0        5.012256    0.302380   -1.211336
     48          6           0        4.810496    0.970361   -2.542723
     49          6           0        6.301795    0.298112   -0.430183
     50          6           0        7.540317   -0.372105   -1.097162
     51          6           0        8.755913   -0.090049   -0.314189
     52          6           0       10.048314   -0.577018   -1.025766
     53          6           0        9.930468   -2.058264   -1.481677
     54          6           0       11.369174   -0.393733   -0.106811
     55          6           0       12.741337   -0.578472   -0.577663
     56          6           0       13.851278   -0.215822    0.336624
     57          6           0       15.290078   -0.182695   -0.323160
     58          6           0       15.754729   -1.633407   -0.487780
     59          6           0       16.272594    0.597741    0.424802
     60          6           0       17.778210    0.604409   -0.107604
     61          6           0       18.653414    1.462505    0.756408
     62          6           0       20.125453    1.445597    0.265846
     63          6           0       20.340404    2.189610   -1.043611
     64          6           0       20.986362    2.148839    1.337901
     65          1           0       -4.124054    3.521015    1.742045
     66          1           0      -10.147166    4.073111   -0.501008
     67          1           0      -10.478764   -2.533318   -1.242714
     68          1           0       -2.903286   -1.064779    2.032177
     69          1           0       -2.430132    1.838381    1.266431
     70          1           0       -2.060136    0.689852    3.650684
     71          1           0       -3.151303    1.834866    3.629473
     72          1           0       -3.868235    0.304666    3.816873
     73          1           0       -2.288473   -1.727073   -0.227935
     74          1           0       -2.334613    0.009669   -0.640323
     75          1           0       -0.778549    0.592454    1.023287
     76          1           0       -0.169504   -1.188624    1.400712
     77          1           0       -4.432106    5.707810    0.750418
     78          1           0       -5.810136    6.736747    1.233359
     79          1           0       -5.228152    5.600253    2.650692
     80          1           0       -7.986496    6.946778    0.921273
     81          1           0       -9.545167    5.816551   -1.360739
     82          1           0       -9.232265    7.715386   -1.001975
     83          1           0      -12.624314    3.279896   -0.197235
     84          1           0      -12.193956    3.565644   -1.727776
     85          1           0      -13.325505    2.270162   -1.389008
     86          1           0      -12.492124   -1.514575   -0.870612
     87          1           0      -13.473749    0.047863   -1.350977
     88          1           0      -12.408907    0.115869   -3.532039
     89          1           0      -12.026139   -1.664651   -3.454041
     90          1           0      -13.607594   -1.312860   -3.368196
     91          1           0       -9.945277   -4.851030   -0.410272
     92          1           0       -8.855413   -4.462421   -2.167478
     93          1           0       -8.357431   -5.600420   -1.024594
     94          1           0       -3.768209   -3.327225   -0.292828
     95          1           0       -1.836377   -6.063463    2.185087
     96          1           0       -2.137164   -4.627379    3.403791
     97          1           0       -3.263181   -5.769988    3.342944
     98          1           0        2.752518   -1.859086   -1.570933
     99          1           0        2.521333   -0.109974   -2.073442
    100          1           0        4.119880   -1.063334    0.319224
    101          1           0        5.114992    1.977737   -2.373280
    102          1           0        5.487975    0.485374   -3.189581
    103          1           0        3.787548    0.929073   -2.853871
    104          1           0        6.623406    1.335194   -0.380893
    105          1           0        6.135576   -0.171556    0.672746
    106          1           0        7.365194   -1.427187   -1.259787
    107          1           0        7.682309    0.196566   -1.930533
    108          1           0        9.096726    0.995253    0.028866
    109          1           0        8.555260   -0.650191    0.555297
    110          1           0       10.115251   -0.268690   -2.023739
    111          1           0        9.428487   -2.363189   -2.292066
    112          1           0       11.036959   -2.323955   -1.733400
    113          1           0        9.673106   -2.951253   -0.557308
    114          1           0       11.172623    0.674801    0.255024
    115          1           0       11.256194   -0.982391    0.891695
    116          1           0       12.908606   -1.616090   -0.608924
    117          1           0       12.842767    0.055775   -1.514971
    118          1           0       13.808363    0.834237    0.562243
    119          1           0       13.927116   -0.854672    1.192213
    120          1           0       15.297946    0.168877   -1.452453
    121          1           0       14.841956   -2.250105   -1.109898
    122          1           0       16.653482   -1.605380   -1.315649
    123          1           0       15.977665   -2.339434    0.564714
    124          1           0       16.029808    1.735678    0.664041
    125          1           0       16.541517    0.218849    1.474557
    126          1           0       18.194114   -0.280960   -0.000826
    127          1           0       18.001726    0.958256   -1.090386
    128          1           0       18.312320    2.557926    0.588938
    129          1           0       18.598403    1.182297    1.792674
    130          1           0       20.622378    0.518794    0.151625
    131          1           0       19.823011    3.215088   -0.936824
    132          1           0       21.296514    2.355352   -1.473025
    133          1           0       19.811355    1.917817   -1.929305
    134          1           0       20.900423    1.578622    2.448863
    135          1           0       22.109772    2.107717    1.005222
    136          1           0       20.678509    3.257497    1.538584
    137          1           0       -7.411562    1.763195    0.644198
    138          1           0       -7.358343   -0.259296   -0.063966
 ---------------------------------------------------------------------

 SCF Done:  E(RB3LYP) =  -2732.97785344     A.U. after   17 cycles

 Excitation energies and oscillator strengths:

 Excited State   1:      Singlet-A      2.0613 eV  601.48 nm  f=0.1108  <S**2>=0.000
     235 -> 237       -0.19696
     235 -> 238        0.28889
     236 -> 237        0.58121
     236 -> 238        0.17945
 This state for optimization and/or second-order correction.
 Total Energy, E(TD-HF/TD-KS) =  -2732.90210086
 Copying the excited state density for this state as the 1-particle RhoCI density.

 The electronic state is 1-A.
 Alpha  occ. eigenvalues --  -19.16797 -19.16349 -19.13144 -19.12100 -19.12016
 Alpha  occ. eigenvalues --  -14.37115 -14.36212 -14.32687 -14.29624 -10.31862
 Alpha  occ. eigenvalues --  -10.31347 -10.27383 -10.24242 -10.24122 -10.23543
 Alpha  occ. eigenvalues --  -10.23479 -10.23455 -10.23318 -10.23144 -10.22979
 Alpha  occ. eigenvalues --  -10.22875 -10.22548 -10.22302 -10.22227 -10.22076
 Alpha  occ. eigenvalues --  -10.21910 -10.21532 -10.21358 -10.21143 -10.20960
 Alpha  occ. eigenvalues --  -10.20672 -10.20265 -10.20250 -10.20150 -10.20006
 Alpha  occ. eigenvalues --  -10.19962 -10.19863 -10.19800 -10.19633 -10.19603
 Alpha  occ. eigenvalues --  -10.19328 -10.19309 -10.19291 -10.19173 -10.19167
 Alpha  occ. eigenvalues --  -10.19056 -10.18996 -10.18902 -10.18736 -10.18645
 Alpha  occ. eigenvalues --  -10.18642 -10.18614 -10.18356 -10.18310 -10.18187
 Alpha  occ. eigenvalues --  -10.18115 -10.18105 -10.18042 -10.17908 -10.17674
 Alpha  occ. eigenvalues --  -10.17594 -10.17458 -10.17322 -10.16355  -1.08538
 Alpha  occ. eigenvalues --   -1.05350  -1.03116  -1.00974  -0.97540  -0.96997
 Alpha  occ. eigenvalues --   -0.96485  -0.95142  -0.92636  -0.85286  -0.82742
 Alpha  occ. eigenvalues --   -0.82494  -0.82169  -0.82098  -0.81782  -0.81056
 Alpha  occ. eigenvalues --   -0.81025  -0.79841  -0.79194  -0.79156  -0.78167
 Alpha  occ. eigenvalues --   -0.77540  -0.76996  -0.75955  -0.75255  -0.74777
 Alpha  occ. eigenvalues --   -0.73881  -0.73255  -0.73046  -0.72601  -0.70824
 Alpha  occ. eigenvalues --   -0.70218  -0.69604  -0.68936  -0.68285  -0.68049
 Alpha  occ. eigenvalues --   -0.67165  -0.66777  -0.66395  -0.65258  -0.64981
 Alpha  occ. eigenvalues --   -0.64547  -0.63357  -0.62752  -0.61662  -0.61445
 Alpha  occ. eigenvalues --   -0.60447  -0.59322  -0.58857  -0.57851  -0.57749
 Alpha  occ. eigenvalues --   -0.56705  -0.56575  -0.56128  -0.56115  -0.55549
 Alpha  occ. eigenvalues --   -0.54797  -0.54540  -0.53856  -0.53704  -0.53539
 Alpha  occ. eigenvalues --   -0.52470  -0.52440  -0.51774  -0.51240  -0.50227
 Alpha  occ. eigenvalues --   -0.49451  -0.49127  -0.49004  -0.48769  -0.48664
 Alpha  occ. eigenvalues --   -0.48447  -0.48280  -0.47954  -0.47369  -0.46941
 Alpha  occ. eigenvalues --   -0.46763  -0.46522  -0.46088  -0.45978  -0.45838
 Alpha  occ. eigenvalues --   -0.45747  -0.45327  -0.45122  -0.44952  -0.44782
 Alpha  occ. eigenvalues --   -0.44607  -0.44413  -0.44206  -0.44106  -0.43881
 Alpha  occ. eigenvalues --   -0.43766  -0.43596  -0.43567  -0.43264  -0.42949
 Alpha  occ. eigenvalues --   -0.42569  -0.42518  -0.41910  -0.41588  -0.41456
 Alpha  occ. eigenvalues --   -0.41328  -0.41270  -0.41025  -0.40929  -0.40755
 Alpha  occ. eigenvalues --   -0.40529  -0.40409  -0.40078  -0.39815  -0.39679
 Alpha  occ. eigenvalues --   -0.39460  -0.39302  -0.38830  -0.38357  -0.38287
 Alpha  occ. eigenvalues --   -0.37953  -0.37770  -0.37684  -0.37530  -0.37471
 Alpha  occ. eigenvalues --   -0.37281  -0.37200  -0.37155  -0.36798  -0.36690
 Alpha  occ. eigenvalues --   -0.36465  -0.36307  -0.36042  -0.35850  -0.35737
 Alpha  occ. eigenvalues --   -0.35618  -0.35021  -0.34940  -0.34659  -0.34528
 Alpha  occ. eigenvalues --   -0.34352  -0.34140  -0.33925  -0.33585  -0.33577
 Alpha  occ. eigenvalues --   -0.33228  -0.32945  -0.32722  -0.32646  -0.32438
 Alpha  occ. eigenvalues --   -0.32305  -0.32188  -0.31756  -0.31145  -0.31068
 Alpha  occ. eigenvalues --   -0.30990  -0.30661  -0.30487  -0.29850  -0.29731
 Alpha  occ. eigenvalues --   -0.29551  -0.29249  -0.28791  -0.28638  -0.28233
 Alpha  occ. eigenvalues --   -0.28011  -0.27570  -0.26937  -0.26385  -0.26183
 Alpha  occ. eigenvalues --   -0.25001  -0.23813  -0.23117  -0.21885  -0.20266
 Alpha  occ. eigenvalues --   -0.19533
 Alpha virt. eigenvalues --   -0.10676  -0.08756  -0.04690  -0.02381  -0.01550
 Alpha virt. eigenvalues --   -0.00375   0.00001   0.01375   0.02249   0.03192
 Alpha virt. eigenvalues --    0.03390   0.03542   0.04218   0.04683   0.04905

 Mulliken charges:
               1
     1  C    0.063208
     2  C   -0.100901
     3  C   -0.021844
     4  C   -0.110891
     5  N   -0.161296
     6  C   -0.121230
     7  C    0.090515
     8  C   -0.205700
     9  C   -0.022639
    10  C    0.273764
    11  C    0.128702
    12  C   -0.079834
    13  C    0.250789
    14  O   -0.287600
    15  O   -0.373497
    16  N   -0.121682
    17  C    0.214098
    18  C   -0.121246
    19  C    0.031256
    20  C    0.089044
    21  C   -0.015084
    22  C   -0.003497
    23  C   -0.052140
    24  N   -0.284606
    25  C    0.089640
    26  C   -0.143494
    27  C   -0.155582
    28  C    0.115882
    29  C    0.171480
    30  C    0.173182
    31  C   -0.040252
    32  N   -0.054410
    33  C    0.049507
    34  C   -0.068938
    35  C    0.015860
    36  C    0.032497
    37  C    0.017721
    38  C    0.018944
    39  O   -0.156303
    40  C   -0.054631
    41  C    0.222881
    42  O   -0.215995
    43  O   -0.339169
    44  C    0.249200
    45  C    0.346313
    46  C   -0.156930
    47  C   -0.167867
    48  C    0.178808
    49  C    0.044971
    50  C    0.082990
    51  C    0.028573
    52  C   -0.024999
    53  C   -0.039143
    54  C   -0.007425
    55  C    0.118009
    56  C    0.071144
    57  C   -0.055966
    58  C   -0.124688
    59  C    0.011811
    60  C    0.118750
    61  C   -0.008667
    62  C   -0.043106
    63  C    0.029154
    64  C   -0.057473
    65  H   -0.031730
    66  H   -0.075441
    67  H    0.031630
    68  H   -0.075326
    69  H    0.025758
    70  H    0.002018
    71  H   -0.084750
    72  H    0.043373
    73  H    0.029293
    74  H   -0.009146
    75  H    0.067713
    76  H    0.063647
    77  H    0.035966
    78  H    0.026641
    79  H    0.057740
    80  H   -0.026194
    81  H    0.024037
    82  H    0.050281
    83  H    0.004655
    84  H   -0.003104
    85  H   -0.012507
    86  H    0.027003
    87  H   -0.034499
    88  H    0.027319
    89  H    0.013765
    90  H   -0.000624
    91  H    0.057881
    92  H    0.057338
    93  H    0.013972
    94  H    0.067356
    95  H    0.045024
    96  H   -0.001174
    97  H    0.014501
    98  H    0.046573
    99  H   -0.045315
   100  H   -0.001369
   101  H    0.002186
   102  H    0.017819
   103  H    0.002545
   104  H   -0.020185
   105  H    0.020089
   106  H    0.013030
   107  H   -0.042891
   108  H    0.013683
   109  H   -0.026083
   110  H   -0.024204
   111  H   -0.007235
   112  H    0.003889
   113  H    0.001439
   114  H   -0.015970
   115  H   -0.004428
   116  H   -0.010384
   117  H   -0.001317
   118  H   -0.023829
   119  H   -0.011053
   120  H    0.008312
   121  H    0.026855
   122  H    0.039244
   123  H    0.040878
   124  H    0.006085
   125  H   -0.006757
   126  H   -0.046807
   127  H   -0.027281
   128  H   -0.000199
   129  H   -0.012285
   130  H   -0.012824
   131  H   -0.009325
   132  H   -0.003260
   133  H   -0.011197
   134  H    0.020636
   135  H    0.020855
   136  H    0.021043
   137  H    0.152529
   138  H    0.144123
 Sum of Mulliken charges =   0.00000

 Dipole moment (field-independent basis, Debye):
    X=              0.6556    Y=              3.9255    Z=              0.4408  Tot=              4.0042
 Quadrupole moment (field-independent basis, Debye-Ang):
   XX=           -349.6495   YY=           -381.4893   ZZ=           -392.6149
   XY=            -17.7637   XZ=             -1.5124   YZ=             -3.5359

 Normal termination of Gaussian 09 at Thu Jul 25 21:08:26 2019.
