 Gaussian 09, Revision D.01,
 Gaussian 09:  ES64L-G09RevD.01 24-Apr-2013

 --------------------------
 # td=(NStates=1) B3LYP/SVP
 --------------------------

 --
 TD
 --
 Symbolic Z-matrix:
 Charge =  0 Multiplicity = 1

                         Standard orientation:
 ---------------------------------------------------------------------
 Center     Atomic      Atomic             Coordinates (Angstroms)
 Number     Number       Type             X           Y           Z
 ---------------------------------------------------------------------
      1          6           0       -5.154020   -1.885738    0.519885
      2          6           0       -4.640123    2.805987    1.483829
      3          6           0       -9.407470    3.337018   -0.188555
      4          6           0       -9.926461   -1.422172   -0.890936
      5          7           0       -5.119851    0.555888    0.910085
      6          6           0       -4.457344   -0.690464    0.909696
      7          6           0       -3.061122   -0.595484    1.307640
      8          6           0       -2.967314    0.931060    1.894448
      9          6           0       -4.277361    1.463235    1.374718
     10          6           0       -2.806720    0.910478    3.412057
     11          6           0       -2.119324   -0.800422    0.238439
     12          6           0       -0.649200   -0.905084    0.637944
     13          6           0        0.302022   -1.185441   -0.467751
     14          8           0       -0.023434   -1.511297   -1.606714
     15          8           0        1.611208   -1.007822   -0.066285
     16          7           0       -6.977516    2.752069    0.574825
     17          6           0       -5.889834    3.332950    1.087533
     18          6           0       -6.208084    4.773125    1.009514
     19          6           0       -7.387957    5.036181    0.540793
     20          6           0       -8.119435    3.706678    0.272844
     21          6           0       -5.171028    5.863365    1.316328
     22          6           0       -8.049666    6.312268    0.396472
     23          6           0       -8.857295    6.604868   -0.640882
     24          7           0       -9.220787    0.924951   -0.399572
     25          6           0       -9.819108    2.116139   -0.639399
     26          6           0      -11.204680    1.909565   -1.121765
     27          6           0      -11.312783    0.579254   -1.300032
     28          6           0      -10.164485   -0.049013   -0.925478
     29          6           0      -12.305598    2.899394   -1.121321
     30          6           0      -12.558978   -0.202534   -1.802133
     31          6           0      -12.353284   -0.661894   -3.267144
     32          7           0       -7.537434   -1.339894   -0.209769
     33          6           0       -8.634055   -2.006408   -0.553918
     34          6           0       -8.212627   -3.372527   -0.614894
     35          6           0       -6.909889   -3.320081   -0.163209
     36          6           0       -6.502351   -2.044172    0.190429
     37          6           0       -8.947846   -4.624280   -1.101604
     38          6           0       -5.707248   -4.239277   -0.039709
     39          8           0       -5.654858   -5.342612   -0.118574
     40          6           0       -4.542650   -3.322473    0.486833
     41          6           0       -3.994176   -3.686896    1.843544
     42          8           0       -4.296065   -3.274898    2.902834
     43          8           0       -3.091582   -4.772470    1.728999
     44          6           0       -2.613991   -5.358457    2.938988
     45          6           0        2.624920   -1.261989   -1.100321
     46          6           0        3.936508   -0.860380   -0.649837
     47          6           0        4.882345   -0.049819   -1.263141
     48          6           0        4.744408    0.692894   -2.590264
     49          6           0        6.230590    0.134547   -0.558565
     50          6           0        7.417527   -0.392664   -1.195570
     51          6           0        8.750649   -0.155946   -0.497856
     52          6           0        9.996417   -0.679014   -1.000813
     53          6           0       10.085235   -2.262449   -1.096275
     54          6           0       11.203906   -0.141698   -0.212288
     55          6           0       12.686649   -0.517389   -0.670491
     56          6           0       13.789282    0.007634    0.152740
     57          6           0       15.284894   -0.268196   -0.400168
     58          6           0       15.636499   -1.660605   -0.526474
     59          6           0       16.151620    0.600051    0.407376
     60          6           0       17.672263    0.715227   -0.071113
     61          6           0       18.561140    1.617821    0.736209
     62          6           0       20.041780    1.687108    0.342872
     63          6           0       20.163379    2.216767   -1.081274
     64          6           0       20.906475    2.401197    1.221753
     65          1           0       -4.049484    3.302860    2.115209
     66          1           0      -10.051474    4.347970   -0.478394
     67          1           0      -10.773260   -2.145705   -1.256857
     68          1           0       -2.926470   -1.339147    2.203309
     69          1           0       -2.137910    1.483863    1.346150
     70          1           0       -1.829682    0.606053    3.660090
     71          1           0       -2.697217    1.974918    3.792142
     72          1           0       -3.374219    0.136465    3.976069
     73          1           0       -2.571288   -1.729477   -0.292544
     74          1           0       -2.374055   -0.052403   -0.510733
     75          1           0       -0.142339   -0.009943    1.174184
     76          1           0       -0.614114   -1.748411    1.191472
     77          1           0       -4.196824    5.678614    0.755793
     78          1           0       -5.542417    6.975680    1.276101
     79          1           0       -4.846646    5.716917    2.316315
     80          1           0       -8.124219    6.972692    1.324914
     81          1           0       -8.882482    6.065116   -1.578722
     82          1           0       -9.195869    7.701434   -0.653275
     83          1           0      -12.384916    3.517379   -0.087035
     84          1           0      -12.073426    3.654719   -1.987551
     85          1           0      -13.265920    2.474226   -1.376196
     86          1           0      -12.625277   -1.125669   -1.153688
     87          1           0      -13.541450    0.381188   -1.792521
     88          1           0      -12.195493    0.324897   -3.817728
     89          1           0      -11.299129   -1.186956   -3.424548
     90          1           0      -13.049493   -1.120168   -3.654960
     91          1           0       -9.760617   -4.678901   -0.355445
     92          1           0       -9.347233   -4.404615   -2.065684
     93          1           0       -8.235106   -5.572634   -1.322779
     94          1           0       -3.769856   -3.279632   -0.282125
     95          1           0       -2.065526   -6.336696    2.799096
     96          1           0       -1.781571   -4.664552    3.216432
     97          1           0       -3.491982   -5.701923    3.711872
     98          1           0        2.567883   -2.327796   -1.266643
     99          1           0        2.446631   -0.780646   -2.147672
    100          1           0        4.222307   -1.293170    0.358180
    101          1           0        5.166924    1.733105   -2.614404
    102          1           0        5.332633    0.318653   -3.501494
    103          1           0        3.619985    0.495492   -2.961028
    104          1           0        6.598267    1.133185   -0.195652
    105          1           0        6.200064   -0.186642    0.532042
    106          1           0        7.239528   -1.435533   -1.107121
    107          1           0        7.582116   -0.054029   -2.198400
    108          1           0        8.889007    0.932507   -0.152151
    109          1           0        8.628535   -0.768072    0.535720
    110          1           0       10.105798   -0.324588   -2.048390
    111          1           0        9.281485   -2.498170   -1.704853
    112          1           0       11.040268   -2.604675   -1.479085
    113          1           0       10.008748   -2.589627   -0.061932
    114          1           0       10.975915    0.807818   -0.074581
    115          1           0       11.203704   -0.541076    0.828411
    116          1           0       12.682868   -1.690520   -0.826499
    117          1           0       12.678776   -0.142069   -1.836122
    118          1           0       13.729286    1.110960    0.198045
    119          1           0       13.716930   -0.267413    1.191992
    120          1           0       15.461585   -0.002104   -1.389560
    121          1           0       14.813489   -2.235443   -1.151095
    122          1           0       16.674152   -1.691579   -1.122708
    123          1           0       15.640955   -2.092696    0.546535
    124          1           0       15.800719    1.627636    0.602213
    125          1           0       16.124914    0.207681    1.539705
    126          1           0       17.910454   -0.192970   -0.099414
    127          1           0       17.536945    0.985252   -1.067574
    128          1           0       18.143619    2.601103    0.742256
    129          1           0       18.595907    1.295883    1.774726
    130          1           0       20.208202    0.730971    0.235203
    131          1           0       19.681342    3.155502   -1.285261
    132          1           0       21.220297    2.168897   -1.278461
    133          1           0       19.578299    1.603971   -1.866968
    134          1           0       20.472938    2.390238    2.394678
    135          1           0       22.042819    2.043513    1.141117
    136          1           0       20.853360    3.509744    0.925634
    137          1           0       -7.052120    1.771551    0.438531
    138          1           0       -7.591616   -0.292377    0.014445
 ---------------------------------------------------------------------

 SCF Done:  E(RB3LYP) =  -2733.06943090     A.U. after   17 cycles

 Excitation energies and oscillator strengths:

 Excited State   1:      Singlet-A      2.1205 eV  584.69 nm  f=0.1483  <S**2>=0.000
     235 -> 238       -0.31091
     236 -> 237        0.62744
 This state for optimization and/or second-order correction.
 Total Energy, E(TD-HF/TD-KS) =  -2732.99150302
 Copying the excited state density for this state as the 1-particle RhoCI density.

 The electronic state is 1-A.
 Alpha  occ. eigenvalues --  -19.17887 -19.16250 -19.13229 -19.12812 -19.12406
 Alpha  occ. eigenvalues --  -14.36782 -14.36516 -14.32010 -14.29878 -10.31751
 Alpha  occ. eigenvalues --  -10.31640 -10.27358 -10.25277 -10.25182 -10.25122
 Alpha  occ. eigenvalues --  -10.24327 -10.23069 -10.22928 -10.22121 -10.22054
 Alpha  occ. eigenvalues --  -10.21857 -10.21657 -10.21262 -10.21108 -10.21094
 Alpha  occ. eigenvalues --  -10.21071 -10.20909 -10.20809 -10.20679 -10.20675
 Alpha  occ. eigenvalues --  -10.20506 -10.20178 -10.20149 -10.20128 -10.20097
 Alpha  occ. eigenvalues --  -10.20086 -10.20072 -10.20061 -10.20040 -10.19988
 Alpha  occ. eigenvalues --  -10.19955 -10.19812 -10.19777 -10.19685 -10.19527
 Alpha  occ. eigenvalues --  -10.19208 -10.19200 -10.19058 -10.18669 -10.18352
 Alpha  occ. eigenvalues --  -10.18337 -10.18042 -10.17982 -10.17748 -10.17705
 Alpha  occ. eigenvalues --  -10.17515 -10.17295 -10.17263 -10.17247 -10.17117
 Alpha  occ. eigenvalues --  -10.17092 -10.17087 -10.16547 -10.15951  -1.09564
 Alpha  occ. eigenvalues --   -1.08794  -1.07921  -1.00652  -1.00420  -0.99641
 Alpha  occ. eigenvalues --   -0.96322  -0.94029  -0.92473  -0.84469  -0.83440
 Alpha  occ. eigenvalues --   -0.83014  -0.82674  -0.82325  -0.81761  -0.81109
 Alpha  occ. eigenvalues --   -0.80413  -0.79313  -0.78828  -0.78446  -0.78334
 Alpha  occ. eigenvalues --   -0.77042  -0.76436  -0.75711  -0.75462  -0.74700
 Alpha  occ. eigenvalues --   -0.73961  -0.73301  -0.72571  -0.72249  -0.70714
 Alpha  occ. eigenvalues --   -0.70052  -0.69234  -0.68244  -0.68105  -0.67697
 Alpha  occ. eigenvalues --   -0.67527  -0.67078  -0.66802  -0.65843  -0.65241
 Alpha  occ. eigenvalues --   -0.63981  -0.63506  -0.62215  -0.61878  -0.61668
 Alpha  occ. eigenvalues --   -0.61538  -0.59651  -0.58074  -0.57949  -0.56905
 Alpha  occ. eigenvalues --   -0.56815  -0.56622  -0.56140  -0.55590  -0.55290
 Alpha  occ. eigenvalues --   -0.55167  -0.54886  -0.54502  -0.53443  -0.53042
 Alpha  occ. eigenvalues --   -0.52401  -0.52101  -0.51369  -0.50956  -0.50613
 Alpha  occ. eigenvalues --   -0.50192  -0.49066  -0.48857  -0.48768  -0.48367
 Alpha  occ. eigenvalues --   -0.47928  -0.47892  -0.47290  -0.47053  -0.46971
 Alpha  occ. eigenvalues --   -0.46785  -0.46629  -0.46282  -0.46168  -0.46084
 Alpha  occ. eigenvalues --   -0.45740  -0.45606  -0.45310  -0.44839  -0.44815
 Alpha  occ. eigenvalues --   -0.44774  -0.44496  -0.44308  -0.44154  -0.44060
 Alpha  occ. eigenvalues --   -0.43769  -0.43314  -0.43248  -0.43110  -0.42732
 Alpha  occ. eigenvalues --   -0.42580  -0.42114  -0.41987  -0.41794  -0.41660
 Alpha  occ. eigenvalues --   -0.41532  -0.41412  -0.41356  -0.41324  -0.40944
 Alpha  occ. eigenvalues --   -0.40420  -0.40254  -0.40121  -0.39922  -0.39808
 Alpha  occ. eigenvalues --   -0.39576  -0.39445  -0.39175  -0.38762  -0.38683
 Alpha  occ. eigenvalues --   -0.38543  -0.38389  -0.38205  -0.38153  -0.37910
 Alpha  occ. eigenvalues --   -0.37651  -0.37517  -0.37244  -0.37033  -0.36911
 Alpha  occ. eigenvalues --   -0.36702  -0.36417  -0.36297  -0.35856  -0.35780
 Alpha  occ. eigenvalues --   -0.35579  -0.35496  -0.35368  -0.35217  -0.34983
 Alpha  occ. eigenvalues --   -0.34884  -0.34201  -0.34033  -0.33999  -0.33981
 Alpha  occ. eigenvalues --   -0.33622  -0.33337  -0.33328  -0.32958  -0.32850
 Alpha  occ. eigenvalues --   -0.31758  -0.31519  -0.31380  -0.31119  -0.30744
 Alpha  occ. eigenvalues --   -0.30590  -0.30484  -0.30103  -0.30049  -0.29968
 Alpha  occ. eigenvalues --   -0.29632  -0.29570  -0.28616  -0.28060  -0.27921
 Alpha  occ. eigenvalues --   -0.27779  -0.27277  -0.26568  -0.26254  -0.25594
 Alpha  occ. eigenvalues --   -0.25124  -0.24987  -0.24736  -0.22231  -0.19967
 Alpha  occ. eigenvalues --   -0.18580
 Alpha virt. eigenvalues --   -0.09626  -0.07433  -0.03173  -0.02275  -0.01959
 Alpha virt. eigenvalues --   -0.00509   0.00019   0.01057   0.02021   0.03936
 Alpha virt. eigenvalues --    0.04203   0.04226   0.04389   0.04503   0.04815

 Mulliken charges:
               1
     1  C   -0.094552
     2  C   -0.024910
     3  C   -0.115900
     4  C   -0.109455
     5  N   -0.187650
     6  C   -0.035108
     7  C   -0.092607
     8  C   -0.035849
     9  C   -0.031255
    10  C    0.104782
    11  C    0.064450
    12  C    0.153873
    13  C    0.158542
    14  O   -0.245588
    15  O   -0.349164
    16  N   -0.101869
    17  C    0.156705
    18  C   -0.158425
    19  C    0.054054
    20  C    0.087254
    21  C    0.098975
    22  C   -0.091667
    23  C   -0.049480
    24  N   -0.290424
    25  C    0.092804
    26  C   -0.153488
    27  C   -0.055215
    28  C    0.091334
    29  C    0.060178
    30  C    0.032596
    31  C    0.065851
    32  N    0.021872
    33  C    0.021353
    34  C   -0.187837
    35  C   -0.084878
    36  C    0.074310
    37  C    0.094448
    38  C    0.065227
    39  O   -0.037666
    40  C   -0.024347
    41  C    0.221222
    42  O   -0.175556
    43  O   -0.350706
    44  C    0.136460
    45  C    0.293520
    46  C   -0.114460
    47  C   -0.059375
    48  C    0.006558
    49  C    0.034469
    50  C    0.125153
    51  C   -0.087250
    52  C   -0.053049
    53  C    0.074578
    54  C    0.076773
    55  C   -0.023150
    56  C    0.080787
    57  C   -0.005207
    58  C   -0.032369
    59  C   -0.047178
    60  C    0.157063
    61  C    0.065829
    62  C    0.012672
    63  C    0.009505
    64  C   -0.018741
    65  H   -0.079222
    66  H    0.038560
    67  H    0.023475
    68  H    0.031938
    69  H    0.006885
    70  H   -0.021161
    71  H    0.009886
    72  H    0.046180
    73  H    0.009174
    74  H   -0.005175
    75  H    0.054573
    76  H   -0.008503
    77  H    0.028761
    78  H    0.036936
    79  H    0.000107
    80  H    0.040817
    81  H    0.037120
    82  H    0.037421
    83  H    0.050438
    84  H    0.025438
    85  H    0.001811
    86  H    0.010512
    87  H    0.011717
    88  H    0.007239
    89  H    0.025383
    90  H   -0.052194
    91  H    0.038356
    92  H    0.011532
    93  H    0.064398
    94  H    0.054519
    95  H    0.031110
    96  H    0.025498
    97  H    0.058808
    98  H    0.013477
    99  H    0.029420
   100  H    0.008872
   101  H    0.033291
   102  H    0.034787
   103  H    0.030917
   104  H   -0.020947
   105  H   -0.020323
   106  H   -0.015138
   107  H   -0.014213
   108  H    0.002332
   109  H   -0.012929
   110  H   -0.023993
   111  H   -0.006292
   112  H    0.010562
   113  H   -0.002643
   114  H   -0.062695
   115  H   -0.023070
   116  H    0.014401
   117  H    0.001456
   118  H   -0.009631
   119  H   -0.013095
   120  H   -0.044241
   121  H    0.030469
   122  H    0.032356
   123  H    0.008245
   124  H   -0.013959
   125  H   -0.020171
   126  H   -0.083962
   127  H   -0.033022
   128  H   -0.030015
   129  H   -0.022505
   130  H   -0.061891
   131  H   -0.004821
   132  H    0.002460
   133  H    0.002419
   134  H    0.020540
   135  H    0.033905
   136  H    0.015758
   137  H    0.121226
   138  H    0.171502
 Sum of Mulliken charges =   0.00000

 Dipole moment (field-independent basis, Debye):
    X=              2.2702    Y=              3.7485    Z=              0.1944  Tot=              4.3867
 Quadrupole moment (field-independent basis, Debye-Ang):
   XX=           -361.1679   YY=           -381.3642   ZZ=           -392.5924
   XY=            -19.7993   XZ=              5.3091   YZ=             -0.6896

 Normal termination of Gaussian 09 at Sat Aug  3 16:14:52 2019.
