 Gaussian 09, Revision D.01,
 Gaussian 09:  ES64L-G09RevD.01 24-Apr-2013

 --------------------------
 # td=(NStates=1) B3LYP/SVP
 --------------------------

 --
 TD
 --
 Symbolic Z-matrix:
 Charge =  0 Multiplicity = 1

                         Standard orientation:
 ---------------------------------------------------------------------
 Center     Atomic      Atomic             Coordinates (Angstroms)
 Number     Number       Type             X           Y           Z
 ---------------------------------------------------------------------
      1          6           0       -5.147603   -1.911933    0.550464
      2          6           0       -4.710573    2.870328    1.361120
      3          6           0       -9.349546    3.235367   -0.267992
      4          6           0       -9.820215   -1.604679   -0.888337
      5          7           0       -5.142739    0.498649    0.814023
      6          6           0       -4.464502   -0.715233    0.920240
      7          6           0       -3.044903   -0.520201    1.230620
      8          6           0       -3.052891    0.949667    1.750581
      9          6           0       -4.369343    1.479479    1.255841
     10          6           0       -2.857530    1.187469    3.267264
     11          6           0       -2.007136   -0.797873    0.005921
     12          6           0       -0.694668   -0.666142    0.612229
     13          6           0        0.380193   -1.010208   -0.510312
     14          8           0        0.171466   -1.632426   -1.498116
     15          8           0        1.732943   -0.711744   -0.135390
     16          7           0       -7.080866    2.762365    0.376887
     17          6           0       -5.969533    3.459293    1.018667
     18          6           0       -6.312103    4.800608    1.022747
     19          6           0       -7.590229    4.937635    0.587871
     20          6           0       -8.144968    3.608451    0.177725
     21          6           0       -5.450410    5.881046    1.521209
     22          6           0       -8.301014    6.174723    0.409588
     23          6           0       -9.108161    6.507334   -0.598842
     24          7           0       -9.208753    0.825545   -0.552672
     25          6           0       -9.939533    1.894326   -0.591345
     26          6           0      -11.260523    1.786129   -1.027020
     27          6           0      -11.422204    0.433959   -1.246950
     28          6           0      -10.160139   -0.186594   -0.849003
     29          6           0      -12.205942    2.883401   -1.213063
     30          6           0      -12.603571   -0.326924   -1.668102
     31          6           0      -12.753708   -0.582837   -3.200838
     32          7           0       -7.555646   -1.392954    0.004922
     33          6           0       -8.556193   -2.198369   -0.515372
     34          6           0       -8.092734   -3.518163   -0.603820
     35          6           0       -6.847491   -3.433709   -0.205697
     36          6           0       -6.506959   -2.184397    0.199950
     37          6           0       -8.896775   -4.632179   -1.132305
     38          6           0       -5.720623   -4.199276    0.094080
     39          8           0       -5.473672   -5.392122   -0.131809
     40          6           0       -4.449796   -3.299763    0.573945
     41          6           0       -3.848521   -3.732375    1.852613
     42          8           0       -4.027303   -3.250364    2.959920
     43          8           0       -3.085130   -4.846028    1.657747
     44          6           0       -2.267779   -5.233384    2.818039
     45          6           0        2.701777   -1.014442   -1.237491
     46          6           0        4.007794   -0.559780   -0.610891
     47          6           0        4.973124    0.177719   -1.040272
     48          6           0        4.813120    0.837702   -2.364994
     49          6           0        6.216442    0.419911   -0.324216
     50          6           0        7.430002   -0.380235   -0.871595
     51          6           0        8.762868   -0.222673   -0.119608
     52          6           0        9.983573   -0.786008   -0.931184
     53          6           0       10.139289   -2.282421   -0.961426
     54          6           0       11.328491   -0.158248   -0.222095
     55          6           0       12.690158   -0.497701   -0.733949
     56          6           0       13.781953   -0.007863    0.082170
     57          6           0       15.247266   -0.363201   -0.400794
     58          6           0       15.609886   -1.908222   -0.299070
     59          6           0       16.329837    0.460285    0.423137
     60          6           0       17.689239    0.707369   -0.259723
     61          6           0       18.555769    1.570513    0.643152
     62          6           0       20.045404    1.644963    0.137224
     63          6           0       20.122529    2.347099   -1.199075
     64          6           0       20.821113    2.554063    1.096384
     65          1           0       -4.048447    3.581400    1.554360
     66          1           0      -10.068224    4.020534   -0.346960
     67          1           0      -10.645868   -2.207037   -1.401318
     68          1           0       -2.780923   -1.187066    2.311976
     69          1           0       -2.259800    1.344236    1.094079
     70          1           0       -1.995478    0.921805    3.667564
     71          1           0       -2.974342    2.320497    3.206656
     72          1           0       -3.740901    0.725774    3.705062
     73          1           0       -2.094558   -1.806693   -0.430975
     74          1           0       -2.205132    0.108365   -0.642561
     75          1           0       -0.567139    0.405529    0.985556
     76          1           0       -0.494887   -1.543831    1.256212
     77          1           0       -4.425641    5.919206    0.914575
     78          1           0       -5.997991    6.870145    1.355309
     79          1           0       -5.230542    5.836559    2.654683
     80          1           0       -8.274524    6.907886    1.173931
     81          1           0       -9.173824    5.948653   -1.482479
     82          1           0       -9.564614    7.573160   -0.476243
     83          1           0      -11.975757    3.912083   -0.595279
     84          1           0      -12.065268    3.420973   -2.340739
     85          1           0      -13.357753    2.678312   -1.188562
     86          1           0      -12.684261   -1.531937   -1.340790
     87          1           0      -13.600167    0.209906   -1.605479
     88          1           0      -12.701743    0.342658   -3.719799
     89          1           0      -12.008541   -1.433901   -3.581049
     90          1           0      -13.748094   -0.938030   -3.458591
     91          1           0       -9.882301   -4.618842   -0.513093
     92          1           0       -9.039884   -4.633732   -2.356938
     93          1           0       -8.571699   -5.716840   -0.670078
     94          1           0       -3.835332   -3.249071   -0.293367
     95          1           0       -1.651237   -6.211581    2.189961
     96          1           0       -1.362277   -4.457403    3.148922
     97          1           0       -2.865788   -5.554942    3.731115
     98          1           0        2.845627   -2.186863   -1.322289
     99          1           0        2.269423   -0.472441   -1.992184
    100          1           0        4.065593   -1.131177    0.411752
    101          1           0        5.029456    1.885376   -2.305915
    102          1           0        5.454680    0.401592   -3.102295
    103          1           0        3.941866    0.647057   -2.795010
    104          1           0        6.534667    1.508551   -0.563563
    105          1           0        6.178354    0.220814    0.699985
    106          1           0        7.178283   -1.443876   -0.773817
    107          1           0        7.450801   -0.218358   -2.141946
    108          1           0        8.941482    0.670883   -0.109486
    109          1           0        8.637163   -0.775050    0.880922
    110          1           0       10.022029   -0.415296   -1.962520
    111          1           0        8.953936   -2.791704   -1.149577
    112          1           0       10.859101   -2.692240   -1.854697
    113          1           0       10.432537   -2.659315    0.048093
    114          1           0       11.240077    1.070710   -0.433138
    115          1           0       10.995241   -0.406965    0.886430
    116          1           0       12.937587   -1.590961   -0.815993
    117          1           0       12.592861   -0.071027   -1.867163
    118          1           0       13.683153    0.963937    0.142431
    119          1           0       13.612716   -0.501593    1.161687
    120          1           0       15.408415    0.054196   -1.615685
    121          1           0       15.020897   -2.370257   -1.307183
    122          1           0       16.551250   -2.246860   -0.449970
    123          1           0       15.143118   -2.285912    0.740688
    124          1           0       15.882949    1.437387    0.555502
    125          1           0       16.446664    0.017224    1.238248
    126          1           0       18.087616   -0.489687   -0.342263
    127          1           0       17.672222    1.116142   -1.274080
    128          1           0       18.159996    2.712703    0.819600
    129          1           0       18.673538    1.198655    1.900634
    130          1           0       20.623069    0.656699   -0.124166
    131          1           0       19.348103    3.208612   -1.316940
    132          1           0       21.128488    2.608383   -1.336488
    133          1           0       19.746278    1.657319   -2.106094
    134          1           0       20.664813    1.925931    2.071601
    135          1           0       21.908617    2.556612    1.027965
    136          1           0       20.506464    3.527642    1.187179
    137          1           0       -7.223850    1.702518    0.393113
    138          1           0       -7.554791   -0.392736   -0.034367
 ---------------------------------------------------------------------

 SCF Done:  E(RB3LYP) =  -2732.93990512     A.U. after   17 cycles

 Excitation energies and oscillator strengths:

 Excited State   1:      Singlet-A      2.1039 eV  589.30 nm  f=0.0973  <S**2>=0.000
     235 -> 237       -0.18887
     235 -> 238        0.35157
     236 -> 237        0.55552
     236 -> 238        0.16722
 This state for optimization and/or second-order correction.
 Total Energy, E(TD-HF/TD-KS) =  -2732.86258787
 Copying the excited state density for this state as the 1-particle RhoCI density.

 The electronic state is 1-A.
 Alpha  occ. eigenvalues --  -19.17534 -19.15900 -19.13434 -19.12252 -19.11055
 Alpha  occ. eigenvalues --  -14.37066 -14.36215 -14.32263 -14.30126 -10.31477
 Alpha  occ. eigenvalues --  -10.31381 -10.27478 -10.27066 -10.24649 -10.24344
 Alpha  occ. eigenvalues --  -10.23625 -10.23461 -10.23237 -10.23081 -10.23066
 Alpha  occ. eigenvalues --  -10.22220 -10.22151 -10.22114 -10.22009 -10.21767
 Alpha  occ. eigenvalues --  -10.21634 -10.21463 -10.21409 -10.21308 -10.21180
 Alpha  occ. eigenvalues --  -10.20958 -10.20852 -10.20840 -10.20724 -10.20606
 Alpha  occ. eigenvalues --  -10.20560 -10.20438 -10.20259 -10.20181 -10.20123
 Alpha  occ. eigenvalues --  -10.20062 -10.19961 -10.19820 -10.19805 -10.19704
 Alpha  occ. eigenvalues --  -10.19591 -10.19433 -10.19320 -10.19263 -10.19181
 Alpha  occ. eigenvalues --  -10.18873 -10.18772 -10.18702 -10.18671 -10.18649
 Alpha  occ. eigenvalues --  -10.18410 -10.18163 -10.18153 -10.18033 -10.17907
 Alpha  occ. eigenvalues --  -10.17739 -10.17363 -10.16873 -10.16341  -1.08182
 Alpha  occ. eigenvalues --   -1.08020  -1.01275  -1.00020  -0.99426  -0.99240
 Alpha  occ. eigenvalues --   -0.96405  -0.94784  -0.94531  -0.85202  -0.83223
 Alpha  occ. eigenvalues --   -0.82807  -0.82415  -0.82001  -0.81735  -0.80836
 Alpha  occ. eigenvalues --   -0.80735  -0.80006  -0.79608  -0.78711  -0.77812
 Alpha  occ. eigenvalues --   -0.77116  -0.76551  -0.75727  -0.74928  -0.74632
 Alpha  occ. eigenvalues --   -0.73322  -0.72658  -0.72287  -0.71688  -0.70397
 Alpha  occ. eigenvalues --   -0.70141  -0.69247  -0.69045  -0.68115  -0.67054
 Alpha  occ. eigenvalues --   -0.67020  -0.66380  -0.65950  -0.65724  -0.65397
 Alpha  occ. eigenvalues --   -0.64355  -0.63392  -0.62302  -0.61441  -0.61187
 Alpha  occ. eigenvalues --   -0.60244  -0.59177  -0.58481  -0.57843  -0.56926
 Alpha  occ. eigenvalues --   -0.56415  -0.55796  -0.55108  -0.54621  -0.54601
 Alpha  occ. eigenvalues --   -0.54507  -0.54137  -0.54092  -0.53712  -0.53174
 Alpha  occ. eigenvalues --   -0.52532  -0.52223  -0.51924  -0.51292  -0.50936
 Alpha  occ. eigenvalues --   -0.49746  -0.49694  -0.49577  -0.49127  -0.48440
 Alpha  occ. eigenvalues --   -0.48126  -0.47861  -0.47552  -0.47152  -0.46688
 Alpha  occ. eigenvalues --   -0.46405  -0.46246  -0.46218  -0.46098  -0.45786
 Alpha  occ. eigenvalues --   -0.45723  -0.45273  -0.44980  -0.44836  -0.44675
 Alpha  occ. eigenvalues --   -0.44437  -0.44292  -0.44089  -0.43751  -0.43526
 Alpha  occ. eigenvalues --   -0.43431  -0.43297  -0.42803  -0.42719  -0.42255
 Alpha  occ. eigenvalues --   -0.42182  -0.42000  -0.41842  -0.41707  -0.41559
 Alpha  occ. eigenvalues --   -0.41412  -0.41128  -0.40957  -0.40721  -0.40344
 Alpha  occ. eigenvalues --   -0.40063  -0.39940  -0.39783  -0.39644  -0.39372
 Alpha  occ. eigenvalues --   -0.39303  -0.39201  -0.38748  -0.38503  -0.38318
 Alpha  occ. eigenvalues --   -0.38250  -0.38157  -0.37833  -0.37604  -0.37571
 Alpha  occ. eigenvalues --   -0.37343  -0.37213  -0.37095  -0.36929  -0.36850
 Alpha  occ. eigenvalues --   -0.36659  -0.36455  -0.36161  -0.36098  -0.35834
 Alpha  occ. eigenvalues --   -0.35341  -0.35228  -0.34883  -0.34852  -0.34486
 Alpha  occ. eigenvalues --   -0.34328  -0.34000  -0.33730  -0.33681  -0.33477
 Alpha  occ. eigenvalues --   -0.33211  -0.33091  -0.32656  -0.32596  -0.32321
 Alpha  occ. eigenvalues --   -0.32053  -0.31702  -0.31394  -0.31270  -0.30977
 Alpha  occ. eigenvalues --   -0.30849  -0.30626  -0.30100  -0.30029  -0.29827
 Alpha  occ. eigenvalues --   -0.29560  -0.29173  -0.28672  -0.28350  -0.27883
 Alpha  occ. eigenvalues --   -0.27847  -0.27787  -0.27561  -0.26958  -0.25861
 Alpha  occ. eigenvalues --   -0.24733  -0.24601  -0.23847  -0.22676  -0.20092
 Alpha  occ. eigenvalues --   -0.19310
 Alpha virt. eigenvalues --   -0.10159  -0.08878  -0.04450  -0.01554  -0.00895
 Alpha virt. eigenvalues --   -0.00013   0.00325   0.01518   0.01843   0.02603
 Alpha virt. eigenvalues --    0.03446   0.03483   0.03885   0.04316   0.04352

 Mulliken charges:
               1
     1  C   -0.026255
     2  C   -0.008913
     3  C   -0.065794
     4  C   -0.073261
     5  N   -0.177170
     6  C   -0.023855
     7  C   -0.180474
     8  C   -0.028309
     9  C   -0.017772
    10  C    0.163467
    11  C    0.069263
    12  C    0.044281
    13  C    0.167122
    14  O   -0.204780
    15  O   -0.397771
    16  N   -0.163464
    17  C    0.103236
    18  C   -0.089034
    19  C    0.087000
    20  C    0.112255
    21  C    0.027681
    22  C   -0.091829
    23  C   -0.019280
    24  N   -0.208448
    25  C    0.032577
    26  C   -0.062850
    27  C    0.004023
    28  C    0.016009
    29  C   -0.050862
    30  C   -0.039667
    31  C   -0.018683
    32  N    0.016446
    33  C    0.057968
    34  C   -0.127796
    35  C    0.122461
    36  C    0.034176
    37  C   -0.006490
    38  C   -0.009348
    39  O   -0.194947
    40  C    0.007324
    41  C    0.245299
    42  O   -0.236319
    43  O   -0.299357
    44  C    0.072110
    45  C    0.307125
    46  C   -0.158736
    47  C   -0.123023
    48  C    0.199848
    49  C    0.154472
    50  C   -0.110815
    51  C    0.226905
    52  C   -0.089424
    53  C   -0.049232
    54  C   -0.091838
    55  C    0.038621
    56  C    0.112518
    57  C   -0.155071
    58  C    0.000996
    59  C    0.164771
    60  C    0.010405
    61  C   -0.075575
    62  C   -0.106723
    63  C   -0.003882
    64  C    0.057127
    65  H   -0.084196
    66  H   -0.070370
    67  H    0.005797
    68  H    0.056379
    69  H   -0.022986
    70  H   -0.012409
    71  H    0.010107
    72  H    0.029414
    73  H    0.036260
    74  H    0.024398
    75  H    0.050902
    76  H    0.041621
    77  H    0.048631
    78  H    0.023149
    79  H    0.049530
    80  H   -0.001247
    81  H    0.013099
    82  H    0.038566
    83  H    0.048271
    84  H    0.032104
    85  H    0.041975
    86  H    0.034620
    87  H    0.008096
    88  H    0.003576
    89  H    0.024001
    90  H    0.005449
    91  H    0.034403
    92  H    0.079427
    93  H    0.052737
    94  H    0.045281
    95  H    0.061490
    96  H    0.057170
    97  H    0.070358
    98  H    0.051830
    99  H   -0.003727
   100  H    0.000839
   101  H    0.005411
   102  H   -0.004327
   103  H   -0.062677
   104  H   -0.003339
   105  H   -0.026073
   106  H   -0.008525
   107  H    0.012739
   108  H   -0.100567
   109  H    0.017557
   110  H   -0.011034
   111  H    0.018500
   112  H    0.048240
   113  H    0.016206
   114  H    0.012409
   115  H    0.011398
   116  H   -0.003594
   117  H    0.006829
   118  H   -0.061060
   119  H    0.007123
   120  H    0.003615
   121  H    0.028223
   122  H   -0.002788
   123  H    0.033270
   124  H   -0.022259
   125  H   -0.072982
   126  H    0.010167
   127  H    0.008835
   128  H    0.026966
   129  H    0.013117
   130  H    0.018428
   131  H    0.010680
   132  H    0.001454
   133  H    0.011908
   134  H    0.001998
   135  H    0.000394
   136  H   -0.003748
   137  H    0.175987
   138  H    0.128545
 Sum of Mulliken charges =   0.00000

 Dipole moment (field-independent basis, Debye):
    X=              1.1147    Y=              5.6088    Z=              0.1726  Tot=              5.7211
 Quadrupole moment (field-independent basis, Debye-Ang):
   XX=           -344.0432   YY=           -386.8959   ZZ=           -396.4261
   XY=            -26.0874   XZ=             10.9255   YZ=             -0.9869

 Normal termination of Gaussian 09 at Sat Jul 27 15:56:31 2019.
