 Gaussian 09, Revision D.01,
 Gaussian 09:  ES64L-G09RevD.01 24-Apr-2013

 --------------------------
 # td=(NStates=1) B3LYP/SVP
 --------------------------

 --
 TD
 --
 Symbolic Z-matrix:
 Charge =  0 Multiplicity = 1

                         Standard orientation:
 ---------------------------------------------------------------------
 Center     Atomic      Atomic             Coordinates (Angstroms)
 Number     Number       Type             X           Y           Z
 ---------------------------------------------------------------------
      1          6           0       -5.217589   -2.000164    0.458792
      2          6           0       -4.672111    2.714621    1.424489
      3          6           0       -9.135915    3.519353   -0.256593
      4          6           0       -9.932278   -1.314004   -0.886607
      5          7           0       -5.174214    0.471114    0.751602
      6          6           0       -4.589064   -0.739543    0.837682
      7          6           0       -3.111413   -0.655598    1.239065
      8          6           0       -3.058127    0.757070    1.812872
      9          6           0       -4.322760    1.392674    1.277388
     10          6           0       -2.997451    0.774756    3.222478
     11          6           0       -2.107955   -1.082201    0.156000
     12          6           0       -0.608607   -1.075867    0.664148
     13          6           0        0.319879   -1.392839   -0.535662
     14          8           0        0.027202   -1.808689   -1.609289
     15          8           0        1.675755   -1.150576   -0.186292
     16          7           0       -6.942044    2.773145    0.521918
     17          6           0       -5.805366    3.424018    1.129177
     18          6           0       -6.073871    4.815638    1.111420
     19          6           0       -7.373690    5.015835    0.532171
     20          6           0       -7.849880    3.725660    0.167418
     21          6           0       -5.071407    5.787555    1.640592
     22          6           0       -7.991091    6.340883    0.402889
     23          6           0       -8.897623    6.791296   -0.585577
     24          7           0       -9.173601    0.990844   -0.453407
     25          6           0       -9.729960    2.227767   -0.522655
     26          6           0      -11.213133    2.202942   -0.919714
     27          6           0      -11.429148    0.869836   -1.075984
     28          6           0      -10.126202    0.116483   -0.839766
     29          6           0      -12.093044    3.322306   -1.048771
     30          6           0      -12.656693    0.173910   -1.629847
     31          6           0      -12.747597   -0.049507   -3.178495
     32          7           0       -7.658549   -1.177821   -0.260632
     33          6           0       -8.673644   -1.893492   -0.617493
     34          6           0       -8.279623   -3.311861   -0.742894
     35          6           0       -7.010766   -3.382100   -0.319559
     36          6           0       -6.542864   -1.978883   -0.074638
     37          6           0       -9.189062   -4.449052   -1.046050
     38          6           0       -5.895284   -4.314768   -0.182921
     39          8           0       -5.903505   -5.522183   -0.263690
     40          6           0       -4.691793   -3.396901    0.394378
     41          6           0       -4.083048   -3.989529    1.674451
     42          8           0       -4.381375   -3.662749    2.869017
     43          8           0       -3.247982   -4.948704    1.481359
     44          6           0       -2.922339   -5.810983    2.508660
     45          6           0        2.735773   -1.363578   -1.139714
     46          6           0        3.976912   -0.888463   -0.483572
     47          6           0        5.017560   -0.110240   -1.181855
     48          6           0        4.845351    0.530175   -2.554704
     49          6           0        6.272357    0.063812   -0.421907
     50          6           0        7.530079   -0.567358   -0.936726
     51          6           0        8.753516   -0.222782   -0.036240
     52          6           0       10.102963   -0.743614   -0.688339
     53          6           0       10.140677   -2.298644   -0.799628
     54          6           0       11.346637   -0.306468    0.108162
     55          6           0       12.689769   -0.608310   -0.471917
     56          6           0       13.917879   -0.028294    0.364389
     57          6           0       15.390555   -0.211667   -0.344160
     58          6           0       15.711740   -1.693791   -0.617026
     59          6           0       16.373460    0.685893    0.466610
     60          6           0       17.698304    0.754281   -0.274694
     61          6           0       18.626684    1.848896    0.579853
     62          6           0       20.045955    1.791697    0.068700
     63          6           0       20.285357    2.591975   -1.310127
     64          6           0       20.894773    2.604406    1.070485
     65          1           0       -4.107957    3.265526    2.092169
     66          1           0       -9.824545    4.421113   -0.458569
     67          1           0      -10.675375   -2.041693   -0.869123
     68          1           0       -3.012408   -1.370312    2.156718
     69          1           0       -1.929687    1.223913    1.544888
     70          1           0       -1.924481    0.785695    3.753316
     71          1           0       -3.576786    1.918490    3.624230
     72          1           0       -3.535432   -0.106606    3.694692
     73          1           0       -2.385964   -1.978042   -0.226580
     74          1           0       -2.075785   -0.310099   -0.826638
     75          1           0       -0.426368   -0.055394    1.071277
     76          1           0       -0.349671   -1.741706    1.462493
     77          1           0       -4.232655    6.029487    0.904757
     78          1           0       -5.557388    6.840410    1.786027
     79          1           0       -4.662292    5.686036    2.686410
     80          1           0       -7.812137    7.158764    1.175015
     81          1           0       -8.844160    5.955356   -1.290818
     82          1           0       -9.205054    7.717229   -0.679493
     83          1           0      -12.149434    4.125979   -0.237256
     84          1           0      -11.801996    3.806812   -2.081792
     85          1           0      -13.173630    2.768808   -1.154442
     86          1           0      -12.772318   -0.748271   -0.908658
     87          1           0      -13.558689    1.007112   -1.423819
     88          1           0      -12.473195    0.888604   -3.762538
     89          1           0      -11.905162   -0.921195   -3.356396
     90          1           0      -13.821665   -0.339561   -3.482698
     91          1           0       -9.855734   -4.677898   -0.038466
     92          1           0       -9.785103   -4.172421   -1.929060
     93          1           0       -8.462061   -5.441340   -1.171210
     94          1           0       -3.982513   -3.594671   -0.464108
     95          1           0       -2.396169   -6.586120    1.954103
     96          1           0       -2.206320   -5.183956    3.091966
     97          1           0       -3.594709   -6.271156    3.079260
     98          1           0        2.797325   -2.582548   -1.216795
     99          1           0        2.558307   -1.056404   -2.046635
    100          1           0        4.228401   -1.330858    0.541547
    101          1           0        5.357143    1.569056   -2.637093
    102          1           0        5.441886   -0.261467   -3.125766
    103          1           0        3.867387    0.550099   -2.869602
    104          1           0        6.439614    1.149200   -0.392035
    105          1           0        6.089447   -0.008908    0.603315
    106          1           0        7.584693   -1.676861   -1.165586
    107          1           0        7.654981   -0.186994   -1.911269
    108          1           0        9.050725    0.841561   -0.008435
    109          1           0        8.847803   -0.400295    1.057589
    110          1           0       10.065308   -0.306320   -1.675505
    111          1           0        9.272598   -2.776149   -1.366587
    112          1           0       11.082756   -2.563602   -1.460262
    113          1           0       10.085744   -2.737374    0.170913
    114          1           0       11.152049    0.822851    0.352278
    115          1           0       11.176133   -0.731927    1.173292
    116          1           0       12.989207   -1.734704   -0.758784
    117          1           0       12.767349   -0.056638   -1.367848
    118          1           0       13.907682    1.003505    0.359300
    119          1           0       14.021259   -0.573080    1.216936
    120          1           0       15.220982    0.228985   -1.472119
    121          1           0       14.842774   -2.119009   -1.341888
    122          1           0       16.715256   -1.845004   -0.960580
    123          1           0       15.425042   -2.162622    0.532393
    124          1           0       16.036082    1.606351    0.661559
    125          1           0       16.331492    0.126856    1.589419
    126          1           0       18.558020   -0.147118   -0.356864
    127          1           0       17.605986    0.959860   -1.343226
    128          1           0       18.343145    2.685367    0.521494
    129          1           0       18.627067    1.730956    1.541850
    130          1           0       20.503032    0.855288    0.014431
    131          1           0       19.883791    3.595639   -1.212010
    132          1           0       21.300066    2.584187   -1.697317
    133          1           0       19.507961    1.876168   -1.788801
    134          1           0       20.815208    2.145488    2.099778
    135          1           0       21.788722    3.082915    0.636982
    136          1           0       20.669021    3.637384    1.341563
    137          1           0       -7.169432    1.860031    0.285678
    138          1           0       -7.541773   -0.149941   -0.016786
 ---------------------------------------------------------------------

 SCF Done:  E(RB3LYP) =  -2732.94728622     A.U. after   17 cycles

 Excitation energies and oscillator strengths:

 Excited State   1:      Singlet-A      1.9909 eV  622.75 nm  f=0.1897  <S**2>=0.000
     235 -> 238        0.29693
     236 -> 237        0.63252
 This state for optimization and/or second-order correction.
 Total Energy, E(TD-HF/TD-KS) =  -2732.87412116
 Copying the excited state density for this state as the 1-particle RhoCI density.

 The electronic state is 1-A.
 Alpha  occ. eigenvalues --  -19.18830 -19.15746 -19.13808 -19.13337 -19.11265
 Alpha  occ. eigenvalues --  -14.38120 -14.36080 -14.33039 -14.30798 -10.32134
 Alpha  occ. eigenvalues --  -10.31803 -10.29228 -10.24144 -10.24081 -10.23983
 Alpha  occ. eigenvalues --  -10.23783 -10.23777 -10.23637 -10.22962 -10.22946
 Alpha  occ. eigenvalues --  -10.22926 -10.22475 -10.21998 -10.21884 -10.21799
 Alpha  occ. eigenvalues --  -10.21577 -10.21457 -10.21250 -10.21145 -10.21141
 Alpha  occ. eigenvalues --  -10.20968 -10.20943 -10.20922 -10.20885 -10.20860
 Alpha  occ. eigenvalues --  -10.20816 -10.20775 -10.20734 -10.20536 -10.20282
 Alpha  occ. eigenvalues --  -10.20280 -10.20196 -10.20175 -10.20065 -10.19921
 Alpha  occ. eigenvalues --  -10.19536 -10.19517 -10.19342 -10.19290 -10.19120
 Alpha  occ. eigenvalues --  -10.19012 -10.18830 -10.18770 -10.18659 -10.18614
 Alpha  occ. eigenvalues --  -10.18560 -10.18421 -10.18373 -10.18240 -10.18131
 Alpha  occ. eigenvalues --  -10.17940 -10.17235 -10.17024 -10.15330  -1.12415
 Alpha  occ. eigenvalues --   -1.07914  -1.04187  -1.00252  -1.00158  -0.97552
 Alpha  occ. eigenvalues --   -0.97264  -0.95118  -0.93372  -0.85134  -0.82250
 Alpha  occ. eigenvalues --   -0.81752  -0.81618  -0.81573  -0.81349  -0.80767
 Alpha  occ. eigenvalues --   -0.80615  -0.79657  -0.79257  -0.78804  -0.78099
 Alpha  occ. eigenvalues --   -0.77114  -0.76302  -0.75674  -0.74791  -0.74536
 Alpha  occ. eigenvalues --   -0.73900  -0.73046  -0.72093  -0.71421  -0.70745
 Alpha  occ. eigenvalues --   -0.70098  -0.69793  -0.68309  -0.68127  -0.67942
 Alpha  occ. eigenvalues --   -0.67463  -0.66825  -0.66435  -0.66061  -0.64525
 Alpha  occ. eigenvalues --   -0.63968  -0.62892  -0.62726  -0.61811  -0.61042
 Alpha  occ. eigenvalues --   -0.60312  -0.59785  -0.59106  -0.58490  -0.58185
 Alpha  occ. eigenvalues --   -0.57665  -0.57429  -0.56831  -0.56484  -0.55955
 Alpha  occ. eigenvalues --   -0.55648  -0.55354  -0.53520  -0.53460  -0.53189
 Alpha  occ. eigenvalues --   -0.52489  -0.52114  -0.51581  -0.51414  -0.50641
 Alpha  occ. eigenvalues --   -0.49872  -0.49657  -0.48967  -0.48879  -0.48568
 Alpha  occ. eigenvalues --   -0.48172  -0.48093  -0.47512  -0.46991  -0.46883
 Alpha  occ. eigenvalues --   -0.46694  -0.46543  -0.46213  -0.45928  -0.45619
 Alpha  occ. eigenvalues --   -0.45481  -0.45266  -0.45000  -0.44822  -0.44584
 Alpha  occ. eigenvalues --   -0.44240  -0.44156  -0.43906  -0.43730  -0.43618
 Alpha  occ. eigenvalues --   -0.43470  -0.43295  -0.42894  -0.42795  -0.42597
 Alpha  occ. eigenvalues --   -0.42306  -0.42187  -0.41888  -0.41807  -0.41679
 Alpha  occ. eigenvalues --   -0.41651  -0.41519  -0.41139  -0.40829  -0.40709
 Alpha  occ. eigenvalues --   -0.40414  -0.40328  -0.39948  -0.39913  -0.39684
 Alpha  occ. eigenvalues --   -0.39406  -0.39331  -0.39278  -0.38996  -0.38869
 Alpha  occ. eigenvalues --   -0.38742  -0.38438  -0.38393  -0.38068  -0.37916
 Alpha  occ. eigenvalues --   -0.37872  -0.37703  -0.37634  -0.37125  -0.36981
 Alpha  occ. eigenvalues --   -0.36791  -0.36736  -0.36643  -0.36414  -0.36334
 Alpha  occ. eigenvalues --   -0.35615  -0.35487  -0.35456  -0.35190  -0.34860
 Alpha  occ. eigenvalues --   -0.34776  -0.34562  -0.34447  -0.33313  -0.33006
 Alpha  occ. eigenvalues --   -0.32762  -0.32628  -0.32429  -0.32213  -0.31801
 Alpha  occ. eigenvalues --   -0.31648  -0.31402  -0.31206  -0.30987  -0.30586
 Alpha  occ. eigenvalues --   -0.30382  -0.30108  -0.30106  -0.29861  -0.29218
 Alpha  occ. eigenvalues --   -0.28974  -0.28620  -0.28542  -0.28250  -0.27627
 Alpha  occ. eigenvalues --   -0.27080  -0.26935  -0.26630  -0.26596  -0.26386
 Alpha  occ. eigenvalues --   -0.25821  -0.23603  -0.23120  -0.22464  -0.20033
 Alpha  occ. eigenvalues --   -0.18706
 Alpha virt. eigenvalues --   -0.10360  -0.07981  -0.05305  -0.02783  -0.01521
 Alpha virt. eigenvalues --   -0.01084  -0.00277   0.00341   0.01757   0.03362
 Alpha virt. eigenvalues --    0.03524   0.03891   0.04456   0.04506   0.04692

 Mulliken charges:
               1
     1  C    0.030597
     2  C   -0.014354
     3  C   -0.135865
     4  C   -0.062435
     5  N   -0.161067
     6  C   -0.058895
     7  C   -0.051371
     8  C   -0.033869
     9  C    0.042279
    10  C   -0.068194
    11  C    0.086876
    12  C    0.032807
    13  C    0.188045
    14  O   -0.197667
    15  O   -0.373166
    16  N   -0.060288
    17  C    0.107218
    18  C   -0.082295
    19  C    0.040926
    20  C    0.106623
    21  C    0.025871
    22  C   -0.132953
    23  C    0.040945
    24  N   -0.234833
    25  C    0.042584
    26  C   -0.115388
    27  C   -0.085291
    28  C    0.083221
    29  C    0.011126
    30  C   -0.037175
    31  C   -0.026209
    32  N    0.002872
    33  C    0.017998
    34  C   -0.149571
    35  C   -0.009241
    36  C    0.034978
    37  C   -0.007013
    38  C    0.079344
    39  O   -0.156860
    40  C   -0.059518
    41  C    0.195613
    42  O   -0.298853
    43  O   -0.227021
    44  C    0.235062
    45  C    0.326411
    46  C   -0.105932
    47  C   -0.201869
    48  C    0.091077
    49  C    0.143695
    50  C    0.091871
    51  C    0.014664
    52  C   -0.098286
    53  C    0.005856
    54  C    0.011922
    55  C    0.041594
    56  C    0.088942
    57  C   -0.198192
    58  C   -0.008624
    59  C    0.118792
    60  C   -0.054267
    61  C    0.270660
    62  C   -0.101984
    63  C    0.004692
    64  C    0.014091
    65  H   -0.051156
    66  H    0.006324
    67  H   -0.036496
    68  H    0.031860
    69  H    0.028839
    70  H    0.033733
    71  H    0.024679
    72  H    0.043506
    73  H   -0.022385
    74  H    0.034567
    75  H    0.029485
    76  H    0.028821
    77  H    0.043733
    78  H    0.008561
    79  H    0.041993
    80  H    0.020682
    81  H    0.034433
    82  H   -0.021145
    83  H    0.054776
    84  H    0.045780
    85  H    0.030759
    86  H    0.034521
    87  H    0.008404
    88  H    0.031659
    89  H    0.035298
    90  H    0.039239
    91  H    0.067335
    92  H    0.042256
    93  H    0.074321
    94  H    0.069474
    95  H    0.020078
    96  H    0.023542
    97  H    0.011418
    98  H    0.019562
    99  H   -0.047376
   100  H    0.016271
   101  H    0.039823
   102  H    0.041161
   103  H    0.004525
   104  H   -0.023546
   105  H   -0.031195
   106  H    0.003853
   107  H   -0.030575
   108  H   -0.021359
   109  H   -0.010063
   110  H   -0.020674
   111  H    0.008484
   112  H    0.026673
   113  H    0.001174
   114  H   -0.006256
   115  H   -0.006903
   116  H    0.028437
   117  H   -0.026055
   118  H   -0.020329
   119  H   -0.022495
   120  H   -0.006284
   121  H    0.041789
   122  H    0.023723
   123  H    0.014302
   124  H   -0.031995
   125  H    0.012426
   126  H    0.020775
   127  H    0.018725
   128  H   -0.127835
   129  H   -0.066150
   130  H   -0.009635
   131  H    0.009709
   132  H    0.026959
   133  H    0.006141
   134  H    0.005024
   135  H   -0.011821
   136  H   -0.027205
   137  H    0.097092
   138  H    0.191526
 Sum of Mulliken charges =   0.00000

 Dipole moment (field-independent basis, Debye):
    X=              2.3761    Y=              3.7434    Z=             -0.1304  Tot=              4.4358
 Quadrupole moment (field-independent basis, Debye-Ang):
   XX=           -370.5079   YY=           -376.9558   ZZ=           -399.0896
   XY=             -6.7216   XZ=              7.4003   YZ=             -0.7915

 Normal termination of Gaussian 09 at Sat Aug  3 22:00:29 2019.
