 Gaussian 09, Revision D.01,
 Gaussian 09:  ES64L-G09RevD.01 24-Apr-2013

 --------------------------
 # td=(NStates=1) B3LYP/SVP
 --------------------------

 --
 TD
 --
 Symbolic Z-matrix:
 Charge =  0 Multiplicity = 1

                         Standard orientation:
 ---------------------------------------------------------------------
 Center     Atomic      Atomic             Coordinates (Angstroms)
 Number     Number       Type             X           Y           Z
 ---------------------------------------------------------------------
      1          6           0       -5.068050   -1.890047    0.543822
      2          6           0       -4.891013    2.860470    1.314987
      3          6           0       -9.468245    3.150340   -0.170206
      4          6           0       -9.810549   -1.612490   -0.916927
      5          7           0       -5.269761    0.457240    0.885465
      6          6           0       -4.511198   -0.693306    0.842148
      7          6           0       -3.035727   -0.395149    1.259745
      8          6           0       -3.025431    1.051991    1.771912
      9          6           0       -4.472689    1.496916    1.278773
     10          6           0       -2.999977    1.187257    3.302762
     11          6           0       -2.054651   -0.587529    0.012927
     12          6           0       -0.605087   -0.471256    0.559164
     13          6           0        0.315999   -0.805763   -0.675586
     14          8           0        0.099718   -1.354573   -1.745898
     15          8           0        1.548442   -0.613431   -0.207457
     16          7           0       -7.137406    2.667470    0.562159
     17          6           0       -6.078990    3.473773    0.997301
     18          6           0       -6.495394    4.886503    1.109673
     19          6           0       -7.771495    4.931253    0.458781
     20          6           0       -8.141507    3.487950    0.190688
     21          6           0       -5.524218    5.993739    1.514875
     22          6           0       -8.523305    6.166984    0.277837
     23          6           0       -9.325204    6.524715   -0.724951
     24          7           0       -9.291864    0.763410   -0.402855
     25          6           0      -10.013972    1.914559   -0.526104
     26          6           0      -11.380772    1.616327   -1.034704
     27          6           0      -11.450238    0.242015   -1.116641
     28          6           0      -10.161615   -0.337911   -0.873168
     29          6           0      -12.431724    2.610212   -1.304110
     30          6           0      -12.623185   -0.593443   -1.658893
     31          6           0      -12.750278   -0.771984   -3.219482
     32          7           0       -7.443562   -1.349035   -0.152287
     33          6           0       -8.494543   -2.105252   -0.529531
     34          6           0       -8.103540   -3.533668   -0.490231
     35          6           0       -6.857901   -3.450531   -0.071526
     36          6           0       -6.390001   -2.147788    0.081535
     37          6           0       -8.794978   -4.708660   -0.990017
     38          6           0       -5.657732   -4.325891    0.306551
     39          8           0       -5.531233   -5.514314    0.143972
     40          6           0       -4.461847   -3.337181    0.621841
     41          6           0       -3.798360   -3.699840    1.917307
     42          8           0       -3.978166   -3.261961    2.966181
     43          8           0       -2.892002   -4.756190    1.680073
     44          6           0       -2.289407   -5.371602    2.930791
     45          6           0        2.629148   -0.904634   -1.254644
     46          6           0        3.972638   -0.589676   -0.566773
     47          6           0        4.997027    0.167533   -1.104673
     48          6           0        4.836182    1.183304   -2.382618
     49          6           0        6.345369    0.251233   -0.473754
     50          6           0        7.486132   -0.272160   -1.315774
     51          6           0        8.874517   -0.140512   -0.457701
     52          6           0       10.179025   -0.523876   -1.109727
     53          6           0       10.220275   -2.092304   -1.517362
     54          6           0       11.394454   -0.138684   -0.071017
     55          6           0       12.700388   -0.339418   -0.781037
     56          6           0       13.822484    0.028474    0.125313
     57          6           0       15.309204   -0.145046   -0.514697
     58          6           0       15.547251   -1.650021   -0.871705
     59          6           0       16.312444    0.352495    0.447776
     60          6           0       17.831913    0.653423   -0.183653
     61          6           0       18.588527    1.406291    1.000114
     62          6           0       20.138580    1.407596    0.476604
     63          6           0       20.391582    1.984775   -0.917968
     64          6           0       21.013730    2.233371    1.527805
     65          1           0       -4.141911    3.615053    1.778950
     66          1           0      -10.099360    3.950459   -0.426842
     67          1           0      -10.498726   -2.451586   -1.161360
     68          1           0       -2.639524   -0.985540    2.180214
     69          1           0       -2.213091    1.810793    1.472467
     70          1           0       -1.953523    0.870952    3.657857
     71          1           0       -3.040446    2.276013    3.712076
     72          1           0       -3.700763    0.587907    3.739640
     73          1           0       -1.988076   -1.473075   -0.610725
     74          1           0       -2.246136    0.248956   -0.670644
     75          1           0       -0.293211    0.481754    0.853199
     76          1           0       -0.138568   -1.219387    1.224252
     77          1           0       -4.626398    6.034119    0.741277
     78          1           0       -6.052381    6.861898    1.824640
     79          1           0       -5.199232    5.605638    2.546543
     80          1           0       -8.184249    6.967500    1.046582
     81          1           0       -9.695945    5.809091   -1.386952
     82          1           0       -9.740103    7.339072   -0.882180
     83          1           0      -12.673049    3.325542   -0.424492
     84          1           0      -12.097080    3.192535   -2.226659
     85          1           0      -13.291478    2.319591   -1.825778
     86          1           0      -12.680160   -1.483274   -1.226789
     87          1           0      -13.512342   -0.053802   -1.022931
     88          1           0      -12.975734    0.339414   -3.409833
     89          1           0      -11.644009   -1.075204   -3.525440
     90          1           0      -13.818222   -1.322709   -3.390012
     91          1           0       -9.966930   -4.946671   -0.766511
     92          1           0       -8.868827   -4.573695   -2.202240
     93          1           0       -8.230466   -5.542456   -0.708868
     94          1           0       -3.634682   -3.302021   -0.083490
     95          1           0       -1.666760   -6.184726    2.731908
     96          1           0       -1.762559   -4.629303    3.592646
     97          1           0       -3.041035   -5.867847    3.855044
     98          1           0        2.656981   -1.884684   -1.446490
     99          1           0        2.483519   -0.177445   -2.135087
    100          1           0        4.263482   -1.265206    0.191537
    101          1           0        5.506927    2.060330   -2.160658
    102          1           0        5.336805    0.588607   -3.150232
    103          1           0        3.786025    1.330871   -2.785430
    104          1           0        6.564610    1.298932   -0.259844
    105          1           0        6.403492   -0.234938    0.597053
    106          1           0        7.397777   -1.279535   -1.781178
    107          1           0        7.630921    0.520772   -2.229495
    108          1           0        8.712320    0.727513   -0.033850
    109          1           0        8.708565   -0.943142    0.620805
    110          1           0       10.220694    0.088108   -2.065770
    111          1           0        9.294314   -2.187297   -2.240787
    112          1           0       11.087775   -2.301407   -1.911713
    113          1           0       10.242478   -2.648492   -0.670197
    114          1           0       11.197626    0.806494    0.295864
    115          1           0       11.173593   -1.092824    0.700630
    116          1           0       12.585434   -1.437039   -1.066868
    117          1           0       12.890808    0.035935   -1.858444
    118          1           0       13.786479    1.165273    0.589229
    119          1           0       13.643324   -0.468297    1.089069
    120          1           0       15.445986    0.420214   -1.435475
    121          1           0       14.801977   -1.927443   -1.593635
    122          1           0       16.417491   -1.807434   -1.555350
    123          1           0       15.723227   -2.344415    0.018925
    124          1           0       16.008924    1.327326    1.083111
    125          1           0       16.858913   -0.434796    1.341899
    126          1           0       18.459706   -0.228846   -0.339341
    127          1           0       17.484257    1.108142   -1.182084
    128          1           0       18.182350    2.533084    0.902197
    129          1           0       18.263435    0.924280    1.838103
    130          1           0       20.309981    0.230817    0.615878
    131          1           0       19.857635    2.877838   -1.168075
    132          1           0       21.484241    2.330138   -0.900591
    133          1           0       20.045332    1.246687   -1.822597
    134          1           0       20.825424    1.835898    2.661238
    135          1           0       22.128064    2.183820    1.370022
    136          1           0       20.739658    3.298246    1.580364
    137          1           0       -7.125492    1.811843    0.415391
    138          1           0       -7.810284   -0.150022   -0.341148
 ---------------------------------------------------------------------

 SCF Done:  E(RB3LYP) =  -2732.94555369     A.U. after   17 cycles

 Excitation energies and oscillator strengths:

 Excited State   1:      Singlet-A      2.0627 eV  601.08 nm  f=0.1851  <S**2>=0.000
     235 -> 238       -0.28805
     236 -> 237        0.64358
 This state for optimization and/or second-order correction.
 Total Energy, E(TD-HF/TD-KS) =  -2732.86975083
 Copying the excited state density for this state as the 1-particle RhoCI density.

 The electronic state is 1-A.
 Alpha  occ. eigenvalues --  -19.17021 -19.16652 -19.12828 -19.12463 -19.12116
 Alpha  occ. eigenvalues --  -14.36374 -14.35796 -14.32382 -14.30917 -10.30858
 Alpha  occ. eigenvalues --  -10.30651 -10.28154 -10.25288 -10.24943 -10.24707
 Alpha  occ. eigenvalues --  -10.24222 -10.23359 -10.22403 -10.22323 -10.22036
 Alpha  occ. eigenvalues --  -10.22002 -10.22001 -10.21887 -10.21830 -10.21525
 Alpha  occ. eigenvalues --  -10.21454 -10.21212 -10.21197 -10.21161 -10.21147
 Alpha  occ. eigenvalues --  -10.21096 -10.20804 -10.20702 -10.20644 -10.20404
 Alpha  occ. eigenvalues --  -10.20391 -10.20306 -10.20172 -10.20110 -10.19996
 Alpha  occ. eigenvalues --  -10.19921 -10.19814 -10.19771 -10.19729 -10.19659
 Alpha  occ. eigenvalues --  -10.19641 -10.19638 -10.19605 -10.19415 -10.19373
 Alpha  occ. eigenvalues --  -10.19221 -10.19157 -10.19071 -10.18985 -10.18950
 Alpha  occ. eigenvalues --  -10.18950 -10.18933 -10.18908 -10.18897 -10.18663
 Alpha  occ. eigenvalues --  -10.18301 -10.17947 -10.17691 -10.17632  -1.09143
 Alpha  occ. eigenvalues --   -1.08296  -1.03063  -0.99486  -0.99135  -0.98967
 Alpha  occ. eigenvalues --   -0.98001  -0.92957  -0.91652  -0.83701  -0.82493
 Alpha  occ. eigenvalues --   -0.82002  -0.81196  -0.80770  -0.80397  -0.79998
 Alpha  occ. eigenvalues --   -0.79638  -0.79140  -0.78749  -0.78388  -0.77461
 Alpha  occ. eigenvalues --   -0.76814  -0.76076  -0.75049  -0.74671  -0.74211
 Alpha  occ. eigenvalues --   -0.72780  -0.72438  -0.72120  -0.71624  -0.71480
 Alpha  occ. eigenvalues --   -0.69483  -0.68904  -0.68388  -0.67956  -0.67310
 Alpha  occ. eigenvalues --   -0.66722  -0.66276  -0.65920  -0.65759  -0.64791
 Alpha  occ. eigenvalues --   -0.64486  -0.63193  -0.62144  -0.61565  -0.60921
 Alpha  occ. eigenvalues --   -0.60326  -0.58534  -0.58467  -0.57700  -0.57140
 Alpha  occ. eigenvalues --   -0.56819  -0.56568  -0.56190  -0.55550  -0.55032
 Alpha  occ. eigenvalues --   -0.54827  -0.53855  -0.53760  -0.53157  -0.52490
 Alpha  occ. eigenvalues --   -0.52218  -0.51440  -0.51088  -0.50467  -0.49933
 Alpha  occ. eigenvalues --   -0.49875  -0.49645  -0.48726  -0.48313  -0.48221
 Alpha  occ. eigenvalues --   -0.47699  -0.47179  -0.47000  -0.46762  -0.46599
 Alpha  occ. eigenvalues --   -0.46389  -0.46177  -0.45720  -0.45404  -0.45245
 Alpha  occ. eigenvalues --   -0.45170  -0.44936  -0.44834  -0.44706  -0.44462
 Alpha  occ. eigenvalues --   -0.44299  -0.43973  -0.43765  -0.43486  -0.43446
 Alpha  occ. eigenvalues --   -0.43348  -0.42959  -0.42680  -0.42404  -0.42181
 Alpha  occ. eigenvalues --   -0.41931  -0.41842  -0.41733  -0.41446  -0.41241
 Alpha  occ. eigenvalues --   -0.41224  -0.41084  -0.40787  -0.40646  -0.40265
 Alpha  occ. eigenvalues --   -0.40009  -0.39598  -0.39469  -0.39210  -0.38938
 Alpha  occ. eigenvalues --   -0.38846  -0.38721  -0.38659  -0.38443  -0.38311
 Alpha  occ. eigenvalues --   -0.38192  -0.38018  -0.37921  -0.37657  -0.37570
 Alpha  occ. eigenvalues --   -0.37461  -0.37235  -0.37013  -0.36821  -0.36676
 Alpha  occ. eigenvalues --   -0.36556  -0.36245  -0.36111  -0.35876  -0.35799
 Alpha  occ. eigenvalues --   -0.35539  -0.35499  -0.35362  -0.35253  -0.35062
 Alpha  occ. eigenvalues --   -0.34843  -0.34633  -0.34188  -0.33820  -0.33477
 Alpha  occ. eigenvalues --   -0.33452  -0.33363  -0.33170  -0.33050  -0.32244
 Alpha  occ. eigenvalues --   -0.32141  -0.31950  -0.31902  -0.31618  -0.31222
 Alpha  occ. eigenvalues --   -0.31043  -0.30629  -0.30506  -0.30044  -0.29887
 Alpha  occ. eigenvalues --   -0.29410  -0.28356  -0.28252  -0.27909  -0.27714
 Alpha  occ. eigenvalues --   -0.27002  -0.26646  -0.26379  -0.26079  -0.25619
 Alpha  occ. eigenvalues --   -0.24682  -0.24659  -0.24463  -0.22673  -0.19650
 Alpha  occ. eigenvalues --   -0.18566
 Alpha virt. eigenvalues --   -0.09919  -0.07436  -0.03949  -0.02145  -0.00700
 Alpha virt. eigenvalues --   -0.00003   0.00918   0.01342   0.02187   0.03253
 Alpha virt. eigenvalues --    0.03554   0.03575   0.03705   0.04133   0.04752

 Mulliken charges:
               1
     1  C    0.076875
     2  C   -0.067064
     3  C   -0.049902
     4  C   -0.091358
     5  N   -0.175337
     6  C   -0.083185
     7  C   -0.015153
     8  C   -0.096218
     9  C    0.006111
    10  C    0.051602
    11  C    0.077709
    12  C    0.032258
    13  C    0.149426
    14  O   -0.254845
    15  O   -0.338018
    16  N    0.092196
    17  C    0.073672
    18  C   -0.143465
    19  C    0.006822
    20  C    0.093625
    21  C    0.097325
    22  C   -0.071316
    23  C    0.093523
    24  N   -0.349299
    25  C    0.066900
    26  C   -0.102322
    27  C   -0.120594
    28  C    0.180385
    29  C    0.098647
    30  C    0.054129
    31  C   -0.021615
    32  N   -0.102943
    33  C   -0.026036
    34  C   -0.161004
    35  C    0.035956
    36  C    0.015073
    37  C    0.019821
    38  C    0.121464
    39  O   -0.150412
    40  C   -0.009033
    41  C    0.175073
    42  O   -0.144744
    43  O   -0.362919
    44  C    0.152353
    45  C    0.312438
    46  C   -0.085428
    47  C   -0.129407
    48  C    0.036742
    49  C    0.043860
    50  C   -0.048510
    51  C    0.033593
    52  C   -0.106271
    53  C    0.115948
    54  C    0.004626
    55  C    0.030837
    56  C    0.014081
    57  C    0.008666
    58  C    0.032900
    59  C   -0.109005
    60  C   -0.043300
    61  C    0.042262
    62  C   -0.140265
    63  C    0.027758
    64  C   -0.019105
    65  H   -0.013683
    66  H   -0.063415
    67  H   -0.010030
    68  H    0.032114
    69  H    0.015169
    70  H    0.014334
    71  H    0.022174
    72  H    0.010614
    73  H    0.033836
    74  H    0.006284
    75  H    0.005445
    76  H    0.043741
    77  H    0.078739
    78  H    0.003722
    79  H    0.030666
    80  H    0.016398
    81  H    0.005707
    82  H   -0.055338
    83  H    0.050445
    84  H    0.010021
    85  H   -0.015711
    86  H   -0.045614
    87  H    0.009654
    88  H    0.020192
    89  H    0.060949
    90  H    0.052596
    91  H    0.038601
    92  H    0.046865
    93  H    0.029088
    94  H    0.051081
    95  H    0.027149
    96  H    0.036000
    97  H    0.035524
    98  H    0.003713
    99  H    0.038767
   100  H   -0.019211
   101  H    0.032713
   102  H    0.025222
   103  H    0.037759
   104  H    0.005838
   105  H    0.015565
   106  H    0.019966
   107  H    0.009366
   108  H   -0.052101
   109  H   -0.016113
   110  H   -0.000947
   111  H    0.035563
   112  H   -0.028578
   113  H   -0.022391
   114  H   -0.012495
   115  H    0.030672
   116  H   -0.003207
   117  H    0.000099
   118  H    0.001598
   119  H   -0.009895
   120  H   -0.008599
   121  H   -0.009247
   122  H   -0.005116
   123  H    0.030842
   124  H    0.023907
   125  H    0.009227
   126  H    0.008477
   127  H    0.012858
   128  H    0.013526
   129  H   -0.010616
   130  H    0.023919
   131  H    0.000723
   132  H    0.023427
   133  H    0.034517
   134  H    0.013921
   135  H    0.020842
   136  H    0.012799
   137  H    0.004222
   138  H    0.268572
 Sum of Mulliken charges =   0.00000

 Dipole moment (field-independent basis, Debye):
    X=              2.6536    Y=              5.9205    Z=             -0.6445  Tot=              6.5199
 Quadrupole moment (field-independent basis, Debye-Ang):
   XX=           -350.1638   YY=           -381.5632   ZZ=           -394.6806
   XY=            -30.4476   XZ=              5.1802   YZ=             -1.2945

 Normal termination of Gaussian 09 at Fri Aug  2 08:33:04 2019.
