 Gaussian 09, Revision D.01,
 Gaussian 09:  ES64L-G09RevD.01 24-Apr-2013

 --------------------------
 # td=(NStates=1) B3LYP/SVP
 --------------------------

 --
 TD
 --
 Symbolic Z-matrix:
 Charge =  0 Multiplicity = 1

                         Standard orientation:
 ---------------------------------------------------------------------
 Center     Atomic      Atomic             Coordinates (Angstroms)
 Number     Number       Type             X           Y           Z
 ---------------------------------------------------------------------
      1          6           0       -5.156652   -1.871779    0.376763
      2          6           0       -4.757275    2.721616    1.342105
      3          6           0       -9.274372    3.275288   -0.170897
      4          6           0       -9.832753   -1.441199   -0.881433
      5          7           0       -5.150856    0.407050    0.756770
      6          6           0       -4.563358   -0.713839    0.709017
      7          6           0       -3.064257   -0.560693    1.220683
      8          6           0       -3.122929    0.812526    1.766397
      9          6           0       -4.427905    1.354360    1.256275
     10          6           0       -3.037385    0.745424    3.377161
     11          6           0       -2.056491   -0.823867    0.107817
     12          6           0       -0.553183   -0.789317    0.622011
     13          6           0        0.491032   -1.182869   -0.551345
     14          8           0        0.076699   -1.366792   -1.680151
     15          8           0        1.733234   -0.885081   -0.110238
     16          7           0       -6.882955    2.757570    0.462748
     17          6           0       -5.871664    3.371794    1.052212
     18          6           0       -6.257323    4.824615    0.979379
     19          6           0       -7.546049    4.993574    0.426225
     20          6           0       -7.876129    3.647611    0.175007
     21          6           0       -5.262803    5.810038    1.457521
     22          6           0       -8.158931    6.326072    0.279615
     23          6           0       -9.097767    6.601080   -0.646561
     24          7           0       -9.245933    0.876252   -0.322153
     25          6           0       -9.894267    2.107222   -0.298033
     26          6           0      -11.377021    1.876003   -0.757292
     27          6           0      -11.450918    0.553232   -1.011583
     28          6           0      -10.241454   -0.061816   -0.804987
     29          6           0      -12.269912    3.001745   -0.952854
     30          6           0      -12.642287   -0.089682   -1.592584
     31          6           0      -12.677280   -0.283692   -3.183324
     32          7           0       -7.515628   -1.194326   -0.380382
     33          6           0       -8.618410   -1.948612   -0.700211
     34          6           0       -8.191308   -3.381906   -0.696908
     35          6           0       -6.871872   -3.308386   -0.409934
     36          6           0       -6.421458   -2.024418   -0.085354
     37          6           0       -9.065350   -4.612449   -0.764356
     38          6           0       -5.790535   -4.306721   -0.051105
     39          8           0       -5.684627   -5.533075   -0.054316
     40          6           0       -4.530766   -3.297211    0.422912
     41          6           0       -3.961044   -3.788624    1.692074
     42          8           0       -4.227432   -3.438892    2.825336
     43          8           0       -3.123339   -4.783714    1.501933
     44          6           0       -2.570225   -5.339403    2.685198
     45          6           0        2.753641   -1.289478   -1.087878
     46          6           0        3.998957   -0.857435   -0.523235
     47          6           0        4.917328   -0.126502   -1.084859
     48          6           0        4.760684    0.684078   -2.346886
     49          6           0        6.298290    0.082455   -0.347014
     50          6           0        7.471343   -0.422875   -1.132980
     51          6           0        8.865575   -0.236453   -0.260344
     52          6           0       10.153245   -0.739800   -0.919357
     53          6           0       10.183346   -2.453183   -0.938563
     54          6           0       11.337088   -0.282190   -0.160115
     55          6           0       12.714644   -0.536599   -0.794753
     56          6           0       13.876331    0.023321    0.111562
     57          6           0       15.314372   -0.115019   -0.539058
     58          6           0       15.694782   -1.576940   -0.675433
     59          6           0       16.231495    0.744591    0.476950
     60          6           0       17.640026    0.826836   -0.114725
     61          6           0       18.558682    1.658753    0.811229
     62          6           0       20.093298    1.706365    0.268103
     63          6           0       20.275848    2.406543   -1.052744
     64          6           0       20.922129    2.318589    1.421142
     65          1           0       -3.850241    3.345039    1.576922
     66          1           0      -10.101539    3.991494   -0.135363
     67          1           0      -10.490992   -2.104489   -0.896457
     68          1           0       -2.845398   -1.175779    2.007037
     69          1           0       -2.334109    1.431727    1.468773
     70          1           0       -2.004264    0.249027    3.604375
     71          1           0       -3.219443    1.704096    3.942572
     72          1           0       -3.985424    0.102929    3.751050
     73          1           0       -2.105944   -1.819653   -0.294846
     74          1           0       -2.240577    0.062787   -0.549114
     75          1           0       -0.250152    0.150305    1.086536
     76          1           0       -0.453477   -1.428011    1.484518
     77          1           0       -4.453817    5.922170    0.742315
     78          1           0       -5.563953    6.772366    1.393081
     79          1           0       -4.928660    5.588851    2.444341
     80          1           0       -7.734746    7.190315    0.801025
     81          1           0       -9.412683    5.918924   -1.384958
     82          1           0       -9.650768    7.611508   -0.450364
     83          1           0      -12.188906    3.858887   -0.207735
     84          1           0      -11.738813    3.602592   -1.952353
     85          1           0      -13.243277    2.562050   -1.016522
     86          1           0      -12.766673   -1.208044   -1.359612
     87          1           0      -13.668106    0.360727   -1.321716
     88          1           0      -12.769833    0.622407   -3.899171
     89          1           0      -11.878018   -0.772753   -3.574772
     90          1           0      -13.487511   -0.872479   -3.440470
     91          1           0       -9.972196   -4.571565   -0.132729
     92          1           0       -9.399291   -4.613822   -1.961605
     93          1           0       -8.573908   -5.542264   -0.520318
     94          1           0       -3.713827   -3.516762   -0.357032
     95          1           0       -1.842231   -6.212009    2.372452
     96          1           0       -2.065397   -4.797453    3.564469
     97          1           0       -3.383520   -5.724808    3.280255
     98          1           0        2.406398   -2.318945   -1.583721
     99          1           0        2.377206   -0.587355   -2.038164
    100          1           0        4.112358   -1.185028    0.648181
    101          1           0        5.140028    1.714042   -2.147723
    102          1           0        5.414022    0.387187   -3.238042
    103          1           0        3.824846    0.859495   -2.653482
    104          1           0        6.369410    1.148459   -0.296654
    105          1           0        6.032476   -0.431298    0.494412
    106          1           0        7.501922   -1.614761   -0.990143
    107          1           0        7.442005    0.246483   -2.108118
    108          1           0        8.976082    0.874387    0.049227
    109          1           0        8.527889   -0.860252    0.624243
    110          1           0        9.994800   -0.530781   -1.992066
    111          1           0        9.366088   -2.705959   -1.464223
    112          1           0       11.094116   -2.910916   -1.382595
    113          1           0       10.122167   -2.713312    0.101588
    114          1           0       11.260973    0.870169   -0.147084
    115          1           0       11.285365   -0.809384    0.819211
    116          1           0       12.793343   -1.563129   -1.026460
    117          1           0       12.765345    0.166973   -1.631495
    118          1           0       13.830809    1.146447    0.241822
    119          1           0       13.702999   -0.604820    1.153206
    120          1           0       15.451536    0.576215   -1.681692
    121          1           0       15.008563   -2.046038   -1.266764
    122          1           0       16.717793   -1.839930   -0.951664
    123          1           0       15.696455   -2.117567    0.318563
    124          1           0       15.859725    1.667946    0.853679
    125          1           0       16.170284    0.360788    1.447281
    126          1           0       18.024688   -0.268317   -0.349913
    127          1           0       17.443291    1.250477   -1.160003
    128          1           0       18.175208    2.610768    0.739581
    129          1           0       18.522642    1.254583    1.874085
    130          1           0       20.453388    0.614634    0.101739
    131          1           0       19.902912    3.492745   -1.271481
    132          1           0       21.249799    2.463001   -1.275796
    133          1           0       19.855931    1.978031   -2.116032
    134          1           0       20.562250    1.798542    2.294850
    135          1           0       22.006787    2.312454    1.160931
    136          1           0       20.612040    3.225562    1.232904
    137          1           0       -7.097429    1.746546    0.598356
    138          1           0       -7.632282   -0.276471   -0.528463
 ---------------------------------------------------------------------

 SCF Done:  E(RB3LYP) =  -2733.00673094     A.U. after   17 cycles

 Excitation energies and oscillator strengths:

 Excited State   1:      Singlet-A      2.0380 eV  608.37 nm  f=0.1553  <S**2>=0.000
     235 -> 237       -0.19976
     235 -> 238       -0.28306
     236 -> 237        0.58262
     236 -> 238       -0.18624
 This state for optimization and/or second-order correction.
 Total Energy, E(TD-HF/TD-KS) =  -2732.93183697
 Copying the excited state density for this state as the 1-particle RhoCI density.

 The electronic state is 1-A.
 Alpha  occ. eigenvalues --  -19.18441 -19.18042 -19.13839 -19.13400 -19.11009
 Alpha  occ. eigenvalues --  -14.37023 -14.35682 -14.31131 -14.29429 -10.32042
 Alpha  occ. eigenvalues --  -10.30605 -10.29492 -10.26365 -10.24711 -10.24291
 Alpha  occ. eigenvalues --  -10.23473 -10.22846 -10.22534 -10.22094 -10.21879
 Alpha  occ. eigenvalues --  -10.21818 -10.21803 -10.21382 -10.21332 -10.21249
 Alpha  occ. eigenvalues --  -10.21075 -10.21013 -10.20865 -10.20541 -10.20502
 Alpha  occ. eigenvalues --  -10.20500 -10.20473 -10.20328 -10.20218 -10.19859
 Alpha  occ. eigenvalues --  -10.19749 -10.19743 -10.19737 -10.19684 -10.19635
 Alpha  occ. eigenvalues --  -10.19619 -10.19529 -10.19470 -10.19413 -10.19071
 Alpha  occ. eigenvalues --  -10.19043 -10.19017 -10.18796 -10.18790 -10.18560
 Alpha  occ. eigenvalues --  -10.18427 -10.18273 -10.18264 -10.18115 -10.18062
 Alpha  occ. eigenvalues --  -10.17955 -10.17930 -10.17917 -10.17545 -10.17526
 Alpha  occ. eigenvalues --  -10.17375 -10.17348 -10.16890 -10.16487  -1.10814
 Alpha  occ. eigenvalues --   -1.09159  -1.02584  -1.01323  -0.99698  -0.99392
 Alpha  occ. eigenvalues --   -0.98332  -0.97431  -0.91046  -0.85222  -0.83212
 Alpha  occ. eigenvalues --   -0.82469  -0.81345  -0.81240  -0.80905  -0.80425
 Alpha  occ. eigenvalues --   -0.80310  -0.79689  -0.79299  -0.79039  -0.77324
 Alpha  occ. eigenvalues --   -0.76888  -0.76237  -0.75542  -0.74970  -0.74391
 Alpha  occ. eigenvalues --   -0.74022  -0.73424  -0.72732  -0.71745  -0.71725
 Alpha  occ. eigenvalues --   -0.69939  -0.69559  -0.68850  -0.68175  -0.68062
 Alpha  occ. eigenvalues --   -0.67674  -0.67224  -0.66467  -0.66108  -0.64991
 Alpha  occ. eigenvalues --   -0.64232  -0.62747  -0.62378  -0.62089  -0.61694
 Alpha  occ. eigenvalues --   -0.60816  -0.59539  -0.58598  -0.58006  -0.57353
 Alpha  occ. eigenvalues --   -0.56681  -0.56598  -0.56015  -0.55793  -0.55699
 Alpha  occ. eigenvalues --   -0.55283  -0.54826  -0.54675  -0.53524  -0.53130
 Alpha  occ. eigenvalues --   -0.52803  -0.52276  -0.51093  -0.50737  -0.50463
 Alpha  occ. eigenvalues --   -0.50144  -0.49600  -0.49318  -0.48908  -0.48581
 Alpha  occ. eigenvalues --   -0.48400  -0.48208  -0.47686  -0.47610  -0.47288
 Alpha  occ. eigenvalues --   -0.47209  -0.46615  -0.46366  -0.45946  -0.45653
 Alpha  occ. eigenvalues --   -0.45618  -0.45210  -0.45067  -0.44888  -0.44840
 Alpha  occ. eigenvalues --   -0.44625  -0.44269  -0.44130  -0.44056  -0.43537
 Alpha  occ. eigenvalues --   -0.43268  -0.43235  -0.42996  -0.42574  -0.42402
 Alpha  occ. eigenvalues --   -0.42153  -0.42008  -0.41896  -0.41755  -0.41427
 Alpha  occ. eigenvalues --   -0.41184  -0.40804  -0.40683  -0.40510  -0.40137
 Alpha  occ. eigenvalues --   -0.40073  -0.39859  -0.39783  -0.39615  -0.39137
 Alpha  occ. eigenvalues --   -0.39008  -0.38704  -0.38639  -0.38492  -0.38345
 Alpha  occ. eigenvalues --   -0.38050  -0.37770  -0.37721  -0.37536  -0.37412
 Alpha  occ. eigenvalues --   -0.37343  -0.37166  -0.37104  -0.37054  -0.36951
 Alpha  occ. eigenvalues --   -0.36892  -0.36452  -0.36312  -0.36143  -0.36066
 Alpha  occ. eigenvalues --   -0.35842  -0.35734  -0.35536  -0.35506  -0.35379
 Alpha  occ. eigenvalues --   -0.35077  -0.34644  -0.34587  -0.34447  -0.34009
 Alpha  occ. eigenvalues --   -0.33870  -0.33330  -0.33162  -0.33091  -0.32997
 Alpha  occ. eigenvalues --   -0.32680  -0.32106  -0.31751  -0.31132  -0.31070
 Alpha  occ. eigenvalues --   -0.30733  -0.30429  -0.30367  -0.29913  -0.29760
 Alpha  occ. eigenvalues --   -0.29181  -0.29045  -0.28423  -0.27932  -0.27212
 Alpha  occ. eigenvalues --   -0.27109  -0.26855  -0.26684  -0.26036  -0.25698
 Alpha  occ. eigenvalues --   -0.25435  -0.25143  -0.23873  -0.22464  -0.19789
 Alpha  occ. eigenvalues --   -0.18162
 Alpha virt. eigenvalues --   -0.09725  -0.07834  -0.04753  -0.02570  -0.01281
 Alpha virt. eigenvalues --   -0.00462   0.00168   0.00513   0.03003   0.03780
 Alpha virt. eigenvalues --    0.03798   0.04135   0.04505   0.04862   0.05091

 Mulliken charges:
               1
     1  C    0.116358
     2  C   -0.080905
     3  C   -0.036008
     4  C    0.045667
     5  N   -0.035046
     6  C   -0.198472
     7  C    0.025367
     8  C   -0.016959
     9  C   -0.065224
    10  C   -0.022756
    11  C    0.107474
    12  C   -0.017809
    13  C    0.208901
    14  O   -0.231064
    15  O   -0.308806
    16  N   -0.007322
    17  C    0.081492
    18  C   -0.176089
    19  C    0.065094
    20  C    0.057069
    21  C    0.203134
    22  C   -0.046851
    23  C   -0.028902
    24  N   -0.321931
    25  C    0.005282
    26  C   -0.113369
    27  C    0.010867
    28  C    0.080820
    29  C    0.046781
    30  C   -0.017069
    31  C    0.037155
    32  N    0.001629
    33  C    0.032339
    34  C   -0.122456
    35  C   -0.016758
    36  C    0.130273
    37  C    0.060942
    38  C    0.124700
    39  O   -0.168096
    40  C   -0.111714
    41  C    0.180681
    42  O   -0.247336
    43  O   -0.254290
    44  C    0.153044
    45  C    0.134602
    46  C   -0.064379
    47  C   -0.158145
    48  C    0.116547
    49  C    0.160372
    50  C   -0.056806
    51  C   -0.027953
    52  C   -0.057098
    53  C    0.017645
    54  C    0.034329
    55  C    0.087064
    56  C   -0.040306
    57  C   -0.140247
    58  C    0.096777
    59  C    0.063748
    60  C    0.003160
    61  C    0.059001
    62  C   -0.117949
    63  C    0.000292
    64  C    0.128252
    65  H   -0.013050
    66  H   -0.033905
    67  H   -0.154634
    68  H   -0.038860
    69  H   -0.031670
    70  H    0.039753
    71  H    0.021391
    72  H    0.046316
    73  H    0.012748
    74  H    0.010638
    75  H    0.015322
    76  H    0.004144
    77  H    0.009279
    78  H   -0.051868
    79  H    0.023211
    80  H    0.008590
    81  H    0.018538
    82  H    0.038475
    83  H    0.042399
    84  H    0.051351
    85  H    0.017362
    86  H    0.006745
    87  H    0.018567
    88  H    0.008875
    89  H   -0.018219
    90  H   -0.014059
    91  H    0.041979
    92  H    0.050598
    93  H    0.038230
    94  H    0.074676
    95  H    0.043078
    96  H    0.035787
    97  H    0.014617
    98  H    0.064807
    99  H    0.038690
   100  H    0.030167
   101  H    0.001800
   102  H    0.036143
   103  H   -0.028084
   104  H   -0.008284
   105  H   -0.042788
   106  H    0.030180
   107  H    0.028695
   108  H    0.007278
   109  H   -0.000089
   110  H   -0.005859
   111  H   -0.012717
   112  H    0.023737
   113  H    0.001618
   114  H    0.000411
   115  H   -0.003762
   116  H   -0.010674
   117  H   -0.014226
   118  H    0.009221
   119  H    0.017065
   120  H    0.017265
   121  H   -0.011477
   122  H    0.004130
   123  H   -0.002369
   124  H   -0.039516
   125  H   -0.049142
   126  H    0.006739
   127  H    0.000769
   128  H   -0.022852
   129  H    0.006904
   130  H    0.002132
   131  H    0.006778
   132  H   -0.026895
   133  H    0.014799
   134  H    0.014982
   135  H    0.006323
   136  H   -0.039128
   137  H    0.168944
   138  H    0.073134
 Sum of Mulliken charges =   0.00000

 Dipole moment (field-independent basis, Debye):
    X=              2.2377    Y=              4.0340    Z=              0.1091  Tot=              4.6143
 Quadrupole moment (field-independent basis, Debye-Ang):
   XX=           -348.8981   YY=           -378.8467   ZZ=           -397.3651
   XY=            -20.3957   XZ=              7.8668   YZ=             -0.3251

 Normal termination of Gaussian 09 at Thu Aug  1 14:11:57 2019.
