 Gaussian 09, Revision D.01,
 Gaussian 09:  ES64L-G09RevD.01 24-Apr-2013

 --------------------------
 # td=(NStates=1) B3LYP/SVP
 --------------------------

 --
 TD
 --
 Symbolic Z-matrix:
 Charge =  0 Multiplicity = 1

                         Standard orientation:
 ---------------------------------------------------------------------
 Center     Atomic      Atomic             Coordinates (Angstroms)
 Number     Number       Type             X           Y           Z
 ---------------------------------------------------------------------
      1          6           0       -5.077899   -1.924036    0.546752
      2          6           0       -4.889724    2.806273    1.359737
      3          6           0       -9.492638    3.204998   -0.336788
      4          6           0       -9.876566   -1.505726   -0.863749
      5          7           0       -5.163148    0.480178    0.826083
      6          6           0       -4.468592   -0.678516    0.819539
      7          6           0       -3.021545   -0.515015    1.319427
      8          6           0       -3.102011    0.904144    1.912052
      9          6           0       -4.452440    1.381085    1.354792
     10          6           0       -3.068639    0.960598    3.449513
     11          6           0       -1.995626   -0.769831    0.136854
     12          6           0       -0.558737   -0.639354    0.637190
     13          6           0        0.403644   -0.902024   -0.491761
     14          8           0        0.045421   -1.431173   -1.566695
     15          8           0        1.602740   -0.623954   -0.082420
     16          7           0       -7.203064    2.674069    0.525922
     17          6           0       -6.104013    3.310410    0.993540
     18          6           0       -6.349335    4.802964    0.935910
     19          6           0       -7.591411    4.932472    0.405579
     20          6           0       -8.119925    3.609347    0.067074
     21          6           0       -5.349086    5.800956    1.323365
     22          6           0       -8.183819    6.242904    0.200837
     23          6           0       -9.257631    6.429633   -0.658018
     24          7           0       -9.200891    0.831232   -0.540127
     25          6           0       -9.976397    1.939772   -0.508182
     26          6           0      -11.364223    1.778060   -0.930670
     27          6           0      -11.426823    0.387215   -1.106234
     28          6           0      -10.157373   -0.076556   -0.889699
     29          6           0      -12.308047    2.936349   -1.254573
     30          6           0      -12.692695   -0.270293   -1.517970
     31          6           0      -12.722677   -0.706004   -2.938302
     32          7           0       -7.421105   -1.374645   -0.307715
     33          6           0       -8.590013   -2.035965   -0.576656
     34          6           0       -8.077052   -3.421329   -0.633660
     35          6           0       -6.763853   -3.373181   -0.168010
     36          6           0       -6.425997   -2.129685    0.151758
     37          6           0       -8.979143   -4.572521   -0.901971
     38          6           0       -5.665083   -4.335642    0.041371
     39          8           0       -5.663021   -5.537936    0.102676
     40          6           0       -4.408883   -3.313309    0.402255
     41          6           0       -3.821829   -3.795531    1.762510
     42          8           0       -4.163488   -3.443767    2.899098
     43          8           0       -2.897668   -4.715094    1.378831
     44          6           0       -2.270154   -5.387903    2.496852
     45          6           0        2.719478   -0.819193   -1.050431
     46          6           0        3.966729   -0.641721   -0.345678
     47          6           0        4.940429    0.218356   -0.813153
     48          6           0        4.753553    1.106088   -2.055864
     49          6           0        6.371260    0.310055   -0.149123
     50          6           0        7.463928   -0.349746   -0.995485
     51          6           0        8.836553   -0.317696   -0.250366
     52          6           0       10.107916   -0.623525   -1.004528
     53          6           0       10.160354   -2.163828   -1.684942
     54          6           0       11.407138   -0.393297   -0.219166
     55          6           0       12.691854   -0.426884   -1.020222
     56          6           0       13.749738   -0.249444    0.070457
     57          6           0       15.242062   -0.080296   -0.531088
     58          6           0       15.582052   -1.481223   -1.240198
     59          6           0       16.322304    0.421563    0.466140
     60          6           0       17.694826    0.844554   -0.162443
     61          6           0       18.647582    1.471895    0.917195
     62          6           0       20.082103    1.546646    0.515468
     63          6           0       20.283536    2.382965   -0.972821
     64          6           0       20.957831    2.038623    1.582273
     65          1           0       -4.136011    3.481802    2.008457
     66          1           0      -10.322316    3.919634   -0.260341
     67          1           0      -10.512648   -2.187802   -1.221069
     68          1           0       -2.785915   -1.171290    2.096398
     69          1           0       -2.378930    1.776725    1.359909
     70          1           0       -2.027427    0.736087    3.976000
     71          1           0       -3.083235    2.189453    3.864474
     72          1           0       -3.893125    0.344500    3.723682
     73          1           0       -2.105632   -1.529095   -0.203525
     74          1           0       -2.457419   -0.061361   -0.504031
     75          1           0       -0.461775    0.435609    0.939026
     76          1           0       -0.402883   -1.132688    1.557188
     77          1           0       -4.553159    5.505513    0.549999
     78          1           0       -5.817648    6.786152    1.128354
     79          1           0       -4.731009    5.500414    2.334381
     80          1           0       -7.593757    7.194917    0.837080
     81          1           0       -9.694352    5.553263   -1.358567
     82          1           0       -9.590891    7.484543   -0.951991
     83          1           0      -12.397409    3.523358   -0.509000
     84          1           0      -12.144243    3.485909   -2.149764
     85          1           0      -13.299086    2.550079   -1.600080
     86          1           0      -12.721826   -1.114879   -0.791513
     87          1           0      -13.639102    0.301961   -0.998056
     88          1           0      -12.354771    0.200181   -3.727948
     89          1           0      -12.027100   -1.495817   -3.244690
     90          1           0      -13.620877   -1.131367   -3.323859
     91          1           0      -10.157732   -4.384092   -0.675400
     92          1           0       -8.953611   -4.843268   -2.069211
     93          1           0       -8.419417   -5.579441   -0.432323
     94          1           0       -3.646564   -3.560718   -0.243103
     95          1           0       -1.821333   -6.157353    1.908784
     96          1           0       -1.630032   -4.764910    3.155415
     97          1           0       -2.967029   -5.817484    3.206873
     98          1           0        2.649209   -1.785158   -1.585708
     99          1           0        2.675198    0.020698   -1.949880
    100          1           0        4.220116   -1.371752    0.410662
    101          1           0        4.639089    2.316422   -1.828128
    102          1           0        5.940755    1.164372   -2.629569
    103          1           0        3.919732    0.660288   -2.717534
    104          1           0        6.713231    1.397300   -0.126232
    105          1           0        6.505164   -0.146761    0.976319
    106          1           0        7.405058   -1.393799   -1.293042
    107          1           0        7.515167    0.148228   -1.968693
    108          1           0        8.941777    0.573639   -0.074797
    109          1           0        8.778420   -0.794865    0.747915
    110          1           0       10.180993    0.180737   -1.922528
    111          1           0        9.342229   -2.271609   -2.721648
    112          1           0       11.031368   -2.450016   -1.982233
    113          1           0        9.906674   -2.831587   -0.792342
    114          1           0       11.297174    0.651005    0.321578
    115          1           0       11.349547   -1.259784    0.611090
    116          1           0       12.926007   -1.419206   -1.512682
    117          1           0       12.575327    0.490765   -1.823279
    118          1           0       13.412588    0.732538    0.761486
    119          1           0       13.786103   -1.219240    0.796037
    120          1           0       15.160465    0.776062   -1.211214
    121          1           0       14.969448   -1.953105   -2.129656
    122          1           0       16.627413   -1.745258   -1.568504
    123          1           0       15.575282   -2.310167   -0.360437
    124          1           0       15.955503    1.506180    1.169451
    125          1           0       16.590023   -0.266285    1.447805
    126          1           0       18.332016   -0.043359   -0.774397
    127          1           0       17.547910    1.605788   -1.139441
    128          1           0       18.394748    2.488240    1.155291
    129          1           0       18.364349    0.757336    1.930491
    130          1           0       20.163230    0.405425   -0.092364
    131          1           0       19.914598    3.460269   -0.763502
    132          1           0       21.386124    2.486154   -1.268772
    133          1           0       19.766527    2.068414   -1.822101
    134          1           0       20.905004    1.414530    2.477262
    135          1           0       21.934686    2.073028    1.109415
    136          1           0       20.604771    2.946115    2.072360
    137          1           0       -7.323418    1.671846    0.583209
    138          1           0       -7.355708   -0.244332    0.145588
 ---------------------------------------------------------------------

 SCF Done:  E(RB3LYP) =  -2732.80080412     A.U. after   18 cycles

 Excitation energies and oscillator strengths:

 Excited State   1:      Singlet-A      2.0368 eV  608.73 nm  f=0.1724  <S**2>=0.000
     235 -> 237       -0.22173
     235 -> 238        0.23595
     236 -> 237        0.58552
     236 -> 238        0.22489
 This state for optimization and/or second-order correction.
 Total Energy, E(TD-HF/TD-KS) =  -2732.72595435
 Copying the excited state density for this state as the 1-particle RhoCI density.

 The electronic state is 1-A.
 Alpha  occ. eigenvalues --  -19.19011 -19.18476 -19.12993 -19.12783 -19.11672
 Alpha  occ. eigenvalues --  -14.37500 -14.36740 -14.32440 -14.29019 -10.31473
 Alpha  occ. eigenvalues --  -10.31325 -10.28154 -10.26199 -10.24703 -10.24029
 Alpha  occ. eigenvalues --  -10.23686 -10.23575 -10.23162 -10.22938 -10.22889
 Alpha  occ. eigenvalues --  -10.22525 -10.22387 -10.22238 -10.21831 -10.21787
 Alpha  occ. eigenvalues --  -10.21754 -10.21721 -10.21673 -10.21652 -10.21303
 Alpha  occ. eigenvalues --  -10.21110 -10.21047 -10.21041 -10.20957 -10.20778
 Alpha  occ. eigenvalues --  -10.20748 -10.20673 -10.20657 -10.20638 -10.20537
 Alpha  occ. eigenvalues --  -10.20462 -10.20281 -10.20260 -10.20231 -10.20108
 Alpha  occ. eigenvalues --  -10.20054 -10.19779 -10.19624 -10.19554 -10.19536
 Alpha  occ. eigenvalues --  -10.19531 -10.19514 -10.19452 -10.19346 -10.19224
 Alpha  occ. eigenvalues --  -10.19037 -10.18791 -10.18291 -10.18005 -10.17780
 Alpha  occ. eigenvalues --  -10.17546 -10.17540 -10.16837 -10.16459  -1.10048
 Alpha  occ. eigenvalues --   -1.08588  -1.03446  -0.99870  -0.98914  -0.98843
 Alpha  occ. eigenvalues --   -0.98360  -0.96990  -0.93953  -0.84027  -0.82759
 Alpha  occ. eigenvalues --   -0.82632  -0.81848  -0.81351  -0.80508  -0.80279
 Alpha  occ. eigenvalues --   -0.79485  -0.79386  -0.78721  -0.78439  -0.77572
 Alpha  occ. eigenvalues --   -0.76800  -0.75893  -0.75532  -0.74628  -0.74084
 Alpha  occ. eigenvalues --   -0.73038  -0.72890  -0.72337  -0.71063  -0.70683
 Alpha  occ. eigenvalues --   -0.69963  -0.69504  -0.68350  -0.67698  -0.67504
 Alpha  occ. eigenvalues --   -0.67266  -0.65921  -0.65818  -0.65144  -0.64456
 Alpha  occ. eigenvalues --   -0.63774  -0.63499  -0.62251  -0.61634  -0.61213
 Alpha  occ. eigenvalues --   -0.61153  -0.59293  -0.58426  -0.57950  -0.57023
 Alpha  occ. eigenvalues --   -0.56362  -0.56131  -0.56063  -0.55424  -0.54662
 Alpha  occ. eigenvalues --   -0.54050  -0.53818  -0.53500  -0.53201  -0.52877
 Alpha  occ. eigenvalues --   -0.52226  -0.51615  -0.50588  -0.50456  -0.50148
 Alpha  occ. eigenvalues --   -0.49765  -0.49280  -0.48752  -0.48557  -0.48030
 Alpha  occ. eigenvalues --   -0.47943  -0.47557  -0.47443  -0.47230  -0.46951
 Alpha  occ. eigenvalues --   -0.46426  -0.46219  -0.45939  -0.45805  -0.45388
 Alpha  occ. eigenvalues --   -0.45129  -0.44975  -0.44719  -0.44679  -0.44587
 Alpha  occ. eigenvalues --   -0.44325  -0.43947  -0.43635  -0.43519  -0.43228
 Alpha  occ. eigenvalues --   -0.42959  -0.42711  -0.42491  -0.42400  -0.41925
 Alpha  occ. eigenvalues --   -0.41789  -0.41727  -0.41593  -0.41340  -0.40913
 Alpha  occ. eigenvalues --   -0.40652  -0.40314  -0.40247  -0.40138  -0.39832
 Alpha  occ. eigenvalues --   -0.39689  -0.39386  -0.39143  -0.39007  -0.38954
 Alpha  occ. eigenvalues --   -0.38751  -0.38663  -0.38518  -0.38354  -0.38251
 Alpha  occ. eigenvalues --   -0.38132  -0.38013  -0.37806  -0.37720  -0.37477
 Alpha  occ. eigenvalues --   -0.37414  -0.37213  -0.37113  -0.36829  -0.36814
 Alpha  occ. eigenvalues --   -0.36572  -0.36506  -0.36375  -0.36313  -0.36131
 Alpha  occ. eigenvalues --   -0.36078  -0.35560  -0.35311  -0.34909  -0.34670
 Alpha  occ. eigenvalues --   -0.34587  -0.34255  -0.34120  -0.33603  -0.33548
 Alpha  occ. eigenvalues --   -0.33286  -0.32939  -0.32798  -0.32773  -0.32716
 Alpha  occ. eigenvalues --   -0.32446  -0.32133  -0.31888  -0.31846  -0.31010
 Alpha  occ. eigenvalues --   -0.30995  -0.30823  -0.30483  -0.30360  -0.30099
 Alpha  occ. eigenvalues --   -0.29720  -0.28978  -0.28076  -0.27902  -0.27499
 Alpha  occ. eigenvalues --   -0.27284  -0.27148  -0.27066  -0.25876  -0.25081
 Alpha  occ. eigenvalues --   -0.24946  -0.24830  -0.23333  -0.22347  -0.20066
 Alpha  occ. eigenvalues --   -0.17992
 Alpha virt. eigenvalues --   -0.09824  -0.07706  -0.04332  -0.02283  -0.02175
 Alpha virt. eigenvalues --   -0.00680  -0.00009   0.00482   0.02001   0.02626
 Alpha virt. eigenvalues --    0.02763   0.03214   0.03372   0.03453   0.03916

 Mulliken charges:
               1
     1  C    0.054580
     2  C   -0.123394
     3  C   -0.098322
     4  C   -0.023682
     5  N   -0.094895
     6  C   -0.100456
     7  C   -0.009161
     8  C   -0.098783
     9  C   -0.093406
    10  C    0.006863
    11  C    0.299409
    12  C    0.052201
    13  C    0.201116
    14  O   -0.281468
    15  O   -0.276127
    16  N   -0.028328
    17  C    0.130673
    18  C   -0.160396
    19  C    0.037313
    20  C    0.103604
    21  C    0.075239
    22  C   -0.089250
    23  C   -0.108394
    24  N   -0.226251
    25  C    0.033828
    26  C   -0.149080
    27  C   -0.128086
    28  C    0.087424
    29  C    0.192938
    30  C    0.062766
    31  C    0.011612
    32  N   -0.105860
    33  C    0.064428
    34  C   -0.102136
    35  C   -0.013802
    36  C    0.062090
    37  C   -0.047220
    38  C    0.097034
    39  O   -0.151692
    40  C   -0.086242
    41  C    0.220081
    42  O   -0.248425
    43  O   -0.311105
    44  C    0.198262
    45  C    0.206049
    46  C   -0.039379
    47  C   -0.098241
    48  C   -0.071712
    49  C    0.013116
    50  C    0.018321
    51  C    0.176834
    52  C   -0.097875
    53  C    0.018233
    54  C   -0.065442
    55  C    0.030632
    56  C   -0.081133
    57  C    0.046462
    58  C   -0.065343
    59  C   -0.073607
    60  C   -0.074857
    61  C    0.020087
    62  C   -0.176891
    63  C   -0.032828
    64  C    0.128140
    65  H    0.007481
    66  H   -0.009257
    67  H   -0.083815
    68  H   -0.022882
    69  H    0.027609
    70  H    0.040962
    71  H    0.026209
    72  H    0.044371
    73  H   -0.166268
    74  H   -0.007378
    75  H    0.015021
    76  H    0.014964
    77  H    0.047307
    78  H    0.021911
    79  H    0.056421
    80  H    0.054349
    81  H    0.069778
    82  H    0.038061
    83  H   -0.021443
    84  H    0.009924
    85  H   -0.005486
    86  H   -0.002299
    87  H    0.024759
    88  H    0.023730
    89  H    0.008900
    90  H    0.003840
    91  H    0.059511
    92  H    0.042313
    93  H    0.070295
    94  H    0.024963
    95  H    0.033453
    96  H    0.030524
    97  H    0.027222
    98  H    0.046061
    99  H    0.042498
   100  H   -0.006421
   101  H    0.062534
   102  H    0.046003
   103  H    0.058765
   104  H    0.014987
   105  H    0.030403
   106  H   -0.002875
   107  H   -0.015696
   108  H   -0.107608
   109  H   -0.011886
   110  H   -0.008634
   111  H    0.033836
   112  H   -0.039971
   113  H    0.015336
   114  H    0.016006
   115  H    0.008122
   116  H    0.028062
   117  H    0.026280
   118  H    0.018414
   119  H    0.025737
   120  H   -0.000179
   121  H    0.043585
   122  H    0.015069
   123  H    0.011703
   124  H    0.018564
   125  H    0.022863
   126  H    0.024743
   127  H    0.020866
   128  H   -0.006327
   129  H    0.018653
   130  H    0.014198
   131  H    0.005469
   132  H    0.021186
   133  H    0.011147
   134  H   -0.000332
   135  H    0.019270
   136  H   -0.000444
   137  H    0.132313
   138  H    0.226588
 Sum of Mulliken charges =   0.00000

 Dipole moment (field-independent basis, Debye):
    X=              4.6676    Y=              4.3651    Z=              0.8279  Tot=              6.4441
 Quadrupole moment (field-independent basis, Debye-Ang):
   XX=           -353.6593   YY=           -386.4326   ZZ=           -397.1498
   XY=            -18.3802   XZ=              9.9604   YZ=              0.6659

 Normal termination of Gaussian 09 at Thu Jul 25 09:20:44 2019.
