 Gaussian 09, Revision D.01,
 Gaussian 09:  ES64L-G09RevD.01 24-Apr-2013

 --------------------------
 # td=(NStates=1) B3LYP/SVP
 --------------------------

 --
 TD
 --
 Symbolic Z-matrix:
 Charge =  0 Multiplicity = 1

                         Standard orientation:
 ---------------------------------------------------------------------
 Center     Atomic      Atomic             Coordinates (Angstroms)
 Number     Number       Type             X           Y           Z
 ---------------------------------------------------------------------
      1          6           0       -5.106938   -1.893189    0.554510
      2          6           0       -4.864907    2.703386    1.531157
      3          6           0       -9.390361    3.259454   -0.255764
      4          6           0       -9.807790   -1.434112   -0.907836
      5          7           0       -5.154094    0.502404    0.888229
      6          6           0       -4.496823   -0.721684    0.926604
      7          6           0       -3.036020   -0.498788    1.328246
      8          6           0       -3.095052    0.835410    1.923801
      9          6           0       -4.506683    1.427494    1.397160
     10          6           0       -3.142320    0.868880    3.431182
     11          6           0       -2.029264   -0.662457    0.171877
     12          6           0       -0.544800   -0.695459    0.576075
     13          6           0        0.415622   -1.082406   -0.581926
     14          8           0        0.005107   -1.774272   -1.586448
     15          8           0        1.595069   -0.614516   -0.373227
     16          7           0       -7.166654    2.692560    0.683329
     17          6           0       -6.033702    3.299498    1.138849
     18          6           0       -6.264882    4.826638    1.097262
     19          6           0       -7.521830    4.897073    0.562162
     20          6           0       -8.156918    3.650173    0.219417
     21          6           0       -5.390892    5.932962    1.633800
     22          6           0       -8.178232    6.221208    0.282165
     23          6           0       -8.941004    6.507432   -0.801478
     24          7           0       -9.179149    0.822525   -0.412158
     25          6           0       -9.913851    1.941352   -0.495439
     26          6           0      -11.186412    1.809323   -0.970738
     27          6           0      -11.414811    0.428568   -1.198326
     28          6           0      -10.020453   -0.161913   -0.790204
     29          6           0      -12.257195    2.911512   -1.343196
     30          6           0      -12.607086   -0.318648   -1.740028
     31          6           0      -12.438726   -0.384315   -3.296086
     32          7           0       -7.409924   -1.309787   -0.249165
     33          6           0       -8.536792   -2.071123   -0.640278
     34          6           0       -8.135794   -3.383944   -0.707753
     35          6           0       -6.829949   -3.440683   -0.259401
     36          6           0       -6.368020   -2.062287   -0.043315
     37          6           0       -9.014049   -4.567823   -1.119221
     38          6           0       -5.723564   -4.298464   -0.070323
     39          8           0       -5.628824   -5.493738   -0.165159
     40          6           0       -4.495678   -3.296616    0.491014
     41          6           0       -4.008193   -3.868425    1.807082
     42          8           0       -4.420270   -3.456801    2.937002
     43          8           0       -2.933204   -4.660464    1.680635
     44          6           0       -2.411669   -5.295819    2.884851
     45          6           0        2.711689   -1.046389   -1.200549
     46          6           0        4.018494   -0.599598   -0.563208
     47          6           0        5.020282    0.127904   -1.151434
     48          6           0        4.944849    0.832875   -2.441247
     49          6           0        6.313814    0.258279   -0.265197
     50          6           0        7.559694   -0.208838   -1.015579
     51          6           0        8.798986   -0.016410   -0.195754
     52          6           0       10.035143   -0.571370   -0.867888
     53          6           0       10.078075   -2.118149   -1.119078
     54          6           0       11.400408   -0.151654    0.045684
     55          6           0       12.713827   -0.505100   -0.622228
     56          6           0       13.831927   -0.004561    0.142807
     57          6           0       15.234094   -0.277732   -0.453522
     58          6           0       15.548157   -1.736681   -0.673676
     59          6           0       16.219572    0.495769    0.497468
     60          6           0       17.624934    0.672925   -0.008209
     61          6           0       18.656692    1.503941    0.737580
     62          6           0       20.019454    1.548574    0.154813
     63          6           0       20.130464    2.082779   -1.273350
     64          6           0       20.871357    2.401442    1.195674
     65          1           0       -4.261253    3.508241    2.048622
     66          1           0      -10.102560    4.144534   -0.457174
     67          1           0      -10.322780   -2.138687   -1.605608
     68          1           0       -3.002495   -1.313760    2.179020
     69          1           0       -2.304378    1.412905    1.448790
     70          1           0       -2.270942    0.344164    4.009245
     71          1           0       -3.223163    1.828940    3.878436
     72          1           0       -4.100393    0.195064    3.660593
     73          1           0       -2.290650   -1.474993   -0.279247
     74          1           0       -2.489841    0.090102   -0.433322
     75          1           0       -0.264444    0.097653    1.179515
     76          1           0       -0.485384   -1.774048    1.232616
     77          1           0       -4.624071    6.141899    0.853820
     78          1           0       -6.062456    6.731642    1.740206
     79          1           0       -4.919718    5.604498    2.540099
     80          1           0       -7.882194    7.027230    0.866801
     81          1           0       -8.940402    5.948591   -1.823713
     82          1           0       -9.395143    7.539674   -0.952356
     83          1           0      -12.460151    3.524329   -0.521013
     84          1           0      -11.680759    3.595901   -2.167518
     85          1           0      -13.105502    2.438977   -1.884666
     86          1           0      -12.832284   -1.255882   -1.372431
     87          1           0      -13.342459    0.238509   -1.313868
     88          1           0      -12.425106    0.713545   -3.647349
     89          1           0      -11.518085   -0.780230   -3.432635
     90          1           0      -13.208080   -0.932149   -3.888915
     91          1           0       -9.857998   -4.622732   -0.467218
     92          1           0       -9.241711   -4.696514   -2.168670
     93          1           0       -8.555004   -5.539077   -0.928900
     94          1           0       -3.542874   -3.403891   -0.274909
     95          1           0       -1.524684   -5.953832    2.556659
     96          1           0       -2.175802   -4.468635    3.624961
     97          1           0       -3.254675   -6.237530    3.227166
     98          1           0        2.691401   -2.199219   -1.587642
     99          1           0        2.634804   -0.451721   -2.175139
    100          1           0        4.274645   -0.992374    0.426234
    101          1           0        5.224170    2.097036   -2.187797
    102          1           0        5.776459    0.337459   -3.021544
    103          1           0        4.086481    0.816907   -2.884297
    104          1           0        6.448252    1.245287   -0.219155
    105          1           0        5.999715   -0.445463    0.641202
    106          1           0        7.261939   -1.198968   -1.529207
    107          1           0        7.775181    0.451208   -1.987834
    108          1           0        8.903775    1.115376   -0.171882
    109          1           0        8.517328   -0.543794    0.891228
    110          1           0       10.221932   -0.437254   -2.078233
    111          1           0        9.268874   -2.399297   -2.086540
    112          1           0       10.874208   -2.530676   -1.660693
    113          1           0        9.778605   -2.525236   -0.068988
    114          1           0       11.361022    0.872607    0.204113
    115          1           0       11.129037   -0.592774    1.041591
    116          1           0       12.899581   -1.693880   -0.428464
    117          1           0       12.728797   -0.244403   -1.698451
    118          1           0       13.653116    1.071310    0.347200
    119          1           0       13.848200   -0.430077    1.185450
    120          1           0       15.309081    0.256268   -1.311120
    121          1           0       14.716141   -1.949914   -1.440195
    122          1           0       16.377045   -1.853614   -1.438924
    123          1           0       15.671295   -2.234130    0.330884
    124          1           0       15.873839    1.507249    0.735318
    125          1           0       16.215992    0.017836    1.548150
    126          1           0       17.935488   -0.155614   -0.404530
    127          1           0       17.610575    1.080857   -1.104964
    128          1           0       18.300569    2.564225    0.710390
    129          1           0       18.690805    1.165004    1.764996
    130          1           0       20.528120    0.514630    0.260337
    131          1           0       19.641505    2.988833   -1.235739
    132          1           0       21.302478    2.230007   -1.700757
    133          1           0       19.643559    1.395121   -1.916991
    134          1           0       20.707277    2.000415    2.225451
    135          1           0       21.936317    2.490757    0.979429
    136          1           0       20.263834    3.406461    1.095221
    137          1           0       -7.191411    1.585271    0.345004
    138          1           0       -7.458117   -0.243017   -0.088274
 ---------------------------------------------------------------------

 SCF Done:  E(RB3LYP) =  -2733.00683916     A.U. after   17 cycles

 Excitation energies and oscillator strengths:

 Excited State   1:      Singlet-A      2.2469 eV  551.81 nm  f=0.2044  <S**2>=0.000
     235 -> 238       -0.29172
     236 -> 237        0.63588
 This state for optimization and/or second-order correction.
 Total Energy, E(TD-HF/TD-KS) =  -2732.92426821
 Copying the excited state density for this state as the 1-particle RhoCI density.

 The electronic state is 1-A.
 Alpha  occ. eigenvalues --  -19.19680 -19.17616 -19.11137 -19.10985 -19.10569
 Alpha  occ. eigenvalues --  -14.36871 -14.36795 -14.31209 -14.30330 -10.31856
 Alpha  occ. eigenvalues --  -10.30828 -10.27100 -10.26718 -10.26683 -10.24312
 Alpha  occ. eigenvalues --  -10.24188 -10.22640 -10.22485 -10.22315 -10.21645
 Alpha  occ. eigenvalues --  -10.21583 -10.21543 -10.21458 -10.21395 -10.21019
 Alpha  occ. eigenvalues --  -10.20957 -10.20899 -10.20878 -10.20861 -10.20777
 Alpha  occ. eigenvalues --  -10.20760 -10.20723 -10.20705 -10.20440 -10.20407
 Alpha  occ. eigenvalues --  -10.20328 -10.19924 -10.19893 -10.19885 -10.19838
 Alpha  occ. eigenvalues --  -10.19648 -10.19481 -10.19297 -10.19207 -10.19128
 Alpha  occ. eigenvalues --  -10.19103 -10.19082 -10.18779 -10.18754 -10.18735
 Alpha  occ. eigenvalues --  -10.18652 -10.18595 -10.18504 -10.18445 -10.18402
 Alpha  occ. eigenvalues --  -10.18371 -10.18340 -10.17978 -10.17923 -10.17885
 Alpha  occ. eigenvalues --  -10.17749 -10.17634 -10.17602 -10.16528  -1.10874
 Alpha  occ. eigenvalues --   -1.07614  -1.02098  -0.98609  -0.96820  -0.96610
 Alpha  occ. eigenvalues --   -0.96498  -0.95505  -0.94432  -0.83644  -0.83160
 Alpha  occ. eigenvalues --   -0.82591  -0.81937  -0.81487  -0.81199  -0.81005
 Alpha  occ. eigenvalues --   -0.80159  -0.80089  -0.79764  -0.79456  -0.77703
 Alpha  occ. eigenvalues --   -0.76784  -0.76479  -0.75296  -0.75117  -0.74466
 Alpha  occ. eigenvalues --   -0.73844  -0.72918  -0.72780  -0.72572  -0.71212
 Alpha  occ. eigenvalues --   -0.70176  -0.69226  -0.68465  -0.67980  -0.67968
 Alpha  occ. eigenvalues --   -0.67235  -0.67094  -0.66246  -0.66218  -0.65722
 Alpha  occ. eigenvalues --   -0.64392  -0.63111  -0.62740  -0.61986  -0.61556
 Alpha  occ. eigenvalues --   -0.60702  -0.58920  -0.58593  -0.57445  -0.57141
 Alpha  occ. eigenvalues --   -0.56850  -0.56269  -0.55944  -0.55812  -0.55297
 Alpha  occ. eigenvalues --   -0.54500  -0.54109  -0.53650  -0.53436  -0.52897
 Alpha  occ. eigenvalues --   -0.52666  -0.52163  -0.51066  -0.50734  -0.49956
 Alpha  occ. eigenvalues --   -0.49819  -0.49604  -0.48588  -0.48516  -0.48198
 Alpha  occ. eigenvalues --   -0.48047  -0.47898  -0.47560  -0.47145  -0.46744
 Alpha  occ. eigenvalues --   -0.46697  -0.46364  -0.46188  -0.46117  -0.45884
 Alpha  occ. eigenvalues --   -0.45331  -0.45084  -0.44713  -0.44598  -0.44363
 Alpha  occ. eigenvalues --   -0.44160  -0.44079  -0.43884  -0.43623  -0.43525
 Alpha  occ. eigenvalues --   -0.43319  -0.43169  -0.43109  -0.42873  -0.42586
 Alpha  occ. eigenvalues --   -0.42234  -0.41988  -0.41861  -0.41575  -0.41510
 Alpha  occ. eigenvalues --   -0.41245  -0.41102  -0.40862  -0.40533  -0.40428
 Alpha  occ. eigenvalues --   -0.40295  -0.40051  -0.39888  -0.39835  -0.39717
 Alpha  occ. eigenvalues --   -0.39420  -0.39064  -0.38944  -0.38852  -0.38551
 Alpha  occ. eigenvalues --   -0.38454  -0.38281  -0.38097  -0.37945  -0.37634
 Alpha  occ. eigenvalues --   -0.37313  -0.37286  -0.37060  -0.36618  -0.36579
 Alpha  occ. eigenvalues --   -0.36502  -0.36182  -0.36125  -0.35660  -0.35625
 Alpha  occ. eigenvalues --   -0.35383  -0.35313  -0.34872  -0.34697  -0.34628
 Alpha  occ. eigenvalues --   -0.34541  -0.34444  -0.34071  -0.33731  -0.33499
 Alpha  occ. eigenvalues --   -0.33377  -0.33352  -0.33080  -0.32967  -0.32756
 Alpha  occ. eigenvalues --   -0.32341  -0.31985  -0.31687  -0.31473  -0.31401
 Alpha  occ. eigenvalues --   -0.30534  -0.29950  -0.29897  -0.29623  -0.29149
 Alpha  occ. eigenvalues --   -0.28902  -0.28728  -0.27926  -0.27583  -0.27135
 Alpha  occ. eigenvalues --   -0.27019  -0.26678  -0.26047  -0.25806  -0.25291
 Alpha  occ. eigenvalues --   -0.24751  -0.24246  -0.23822  -0.22840  -0.20083
 Alpha  occ. eigenvalues --   -0.19278
 Alpha virt. eigenvalues --   -0.09989  -0.07247  -0.03888  -0.02000  -0.00970
 Alpha virt. eigenvalues --   -0.00638  -0.00178   0.00903   0.02426   0.03163
 Alpha virt. eigenvalues --    0.03983   0.04109   0.04261   0.04397   0.04425

 Mulliken charges:
               1
     1  C    0.120910
     2  C   -0.067606
     3  C   -0.150768
     4  C   -0.139900
     5  N   -0.108911
     6  C   -0.144490
     7  C   -0.085848
     8  C    0.014593
     9  C   -0.032923
    10  C    0.033058
    11  C    0.256855
    12  C    0.038837
    13  C    0.190488
    14  O   -0.314416
    15  O   -0.244203
    16  N   -0.195278
    17  C    0.054479
    18  C   -0.177776
    19  C    0.041652
    20  C    0.126156
    21  C    0.175699
    22  C   -0.012948
    23  C   -0.089181
    24  N   -0.218112
    25  C    0.121988
    26  C   -0.177826
    27  C   -0.156736
    28  C    0.165883
    29  C    0.102042
    30  C    0.154389
    31  C    0.039994
    32  N   -0.043923
    33  C   -0.002535
    34  C   -0.129732
    35  C    0.014268
    36  C   -0.011385
    37  C    0.128684
    38  C    0.058747
    39  O   -0.162911
    40  C   -0.168866
    41  C    0.248733
    42  O   -0.296350
    43  O   -0.293998
    44  C    0.101982
    45  C    0.215249
    46  C   -0.088723
    47  C   -0.214225
    48  C    0.123146
    49  C    0.193186
    50  C   -0.137927
    51  C    0.079939
    52  C   -0.156981
    53  C   -0.020620
    54  C    0.066810
    55  C    0.043103
    56  C   -0.010312
    57  C   -0.031976
    58  C    0.048969
    59  C    0.028874
    60  C    0.106339
    61  C    0.068401
    62  C   -0.144479
    63  C    0.056963
    64  C    0.015365
    65  H   -0.026459
    66  H    0.000714
    67  H    0.022216
    68  H    0.022741
    69  H   -0.026044
    70  H    0.022130
    71  H    0.003636
    72  H    0.042562
    73  H   -0.078739
    74  H   -0.016106
    75  H    0.001009
    76  H    0.056477
    77  H    0.041080
    78  H    0.002262
    79  H    0.031644
    80  H   -0.018949
    81  H    0.056558
    82  H    0.032728
    83  H    0.020645
    84  H    0.031692
    85  H    0.029274
    86  H   -0.026311
    87  H   -0.020857
    88  H    0.015370
    89  H   -0.012111
    90  H    0.022593
    91  H    0.014786
    92  H    0.023517
    93  H    0.010323
    94  H    0.093977
    95  H    0.051980
    96  H    0.067196
    97  H    0.063383
    98  H    0.075689
    99  H    0.021892
   100  H   -0.014187
   101  H    0.038461
   102  H    0.042903
   103  H   -0.041692
   104  H   -0.045296
   105  H    0.028861
   106  H    0.019593
   107  H    0.009580
   108  H    0.018323
   109  H    0.026830
   110  H    0.009628
   111  H    0.005404
   112  H    0.015525
   113  H    0.021795
   114  H   -0.030950
   115  H   -0.000692
   116  H    0.022904
   117  H    0.003573
   118  H   -0.021600
   119  H   -0.015305
   120  H   -0.052547
   121  H    0.013289
   122  H    0.010381
   123  H    0.036440
   124  H   -0.022827
   125  H   -0.015777
   126  H   -0.093455
   127  H   -0.044925
   128  H   -0.011233
   129  H   -0.010302
   130  H   -0.004421
   131  H   -0.012753
   132  H    0.027923
   133  H    0.012290
   134  H    0.011122
   135  H    0.013201
   136  H    0.003054
   137  H    0.221273
   138  H    0.169194
 Sum of Mulliken charges =   0.00000

 Dipole moment (field-independent basis, Debye):
    X=              3.0715    Y=              6.1961    Z=             -0.9884  Tot=              6.9859
 Quadrupole moment (field-independent basis, Debye-Ang):
   XX=           -346.4090   YY=           -384.3676   ZZ=           -393.5049
   XY=            -36.2105   XZ=             11.3892   YZ=             -0.2103

 Normal termination of Gaussian 09 at Fri Aug  2 13:29:28 2019.
