 Gaussian 09, Revision D.01,
 Gaussian 09:  ES64L-G09RevD.01 24-Apr-2013

 --------------------------
 # td=(NStates=1) B3LYP/SVP
 --------------------------

 --
 TD
 --
 Symbolic Z-matrix:
 Charge =  0 Multiplicity = 1

                         Standard orientation:
 ---------------------------------------------------------------------
 Center     Atomic      Atomic             Coordinates (Angstroms)
 Number     Number       Type             X           Y           Z
 ---------------------------------------------------------------------
      1          6           0       -5.086964   -2.003556    0.421513
      2          6           0       -4.718706    2.742218    1.340835
      3          6           0       -9.281212    3.334047   -0.355130
      4          6           0       -9.856935   -1.379984   -0.858184
      5          7           0       -5.167444    0.380859    0.723134
      6          6           0       -4.500990   -0.774788    0.722602
      7          6           0       -3.104760   -0.591781    1.300928
      8          6           0       -3.109547    0.946930    1.872575
      9          6           0       -4.361478    1.409024    1.224143
     10          6           0       -2.949779    0.989251    3.333523
     11          6           0       -2.038351   -0.805921    0.187255
     12          6           0       -0.507745   -0.855009    0.711760
     13          6           0        0.307268   -1.068735   -0.564484
     14          8           0        0.011926   -1.380933   -1.620401
     15          8           0        1.662177   -0.953465   -0.106799
     16          7           0       -7.000643    2.815480    0.412642
     17          6           0       -5.931312    3.403643    0.914035
     18          6           0       -6.222443    4.782639    1.015690
     19          6           0       -7.549125    4.937135    0.439919
     20          6           0       -8.000350    3.748441    0.043013
     21          6           0       -5.307966    5.876065    1.500248
     22          6           0       -8.309900    6.195827    0.457202
     23          6           0       -9.225425    6.610753   -0.515292
     24          7           0       -9.226174    0.892220   -0.276149
     25          6           0       -9.875924    2.069372   -0.411461
     26          6           0      -11.191613    1.919620   -1.079578
     27          6           0      -11.408649    0.501625   -1.169150
     28          6           0      -10.115968   -0.043899   -0.745284
     29          6           0      -12.161543    3.096671   -1.359198
     30          6           0      -12.628516   -0.184437   -1.683138
     31          6           0      -12.674158   -0.521093   -3.222099
     32          7           0       -7.490295   -1.239121   -0.020098
     33          6           0       -8.561540   -1.995802   -0.513587
     34          6           0       -8.158797   -3.418229   -0.690197
     35          6           0       -6.877819   -3.393729   -0.245930
     36          6           0       -6.422983   -2.050230    0.081674
     37          6           0       -9.034989   -4.628613   -1.083891
     38          6           0       -5.738955   -4.363938    0.097817
     39          8           0       -5.665766   -5.547368   -0.065269
     40          6           0       -4.530208   -3.404108    0.407537
     41          6           0       -3.863370   -3.766714    1.825891
     42          8           0       -4.181201   -3.331594    2.880161
     43          8           0       -2.957594   -4.732202    1.568503
     44          6           0       -2.516573   -5.347024    2.776184
     45          6           0        2.708018   -1.098520   -1.159466
     46          6           0        3.968241   -0.748359   -0.593813
     47          6           0        4.970076    0.020660   -1.079261
     48          6           0        4.843829    0.732031   -2.412813
     49          6           0        6.331118    0.169177   -0.291649
     50          6           0        7.510545   -0.420595   -0.951605
     51          6           0        8.745041   -0.414052   -0.065191
     52          6           0        9.974320   -0.863472   -0.794712
     53          6           0       10.090606   -2.366000   -1.210972
     54          6           0       11.226638   -0.425697    0.078168
     55          6           0       12.579306   -0.548991   -0.615378
     56          6           0       13.746830   -0.195543    0.219541
     57          6           0       15.183165   -0.224506   -0.531196
     58          6           0       15.837715   -1.695123   -0.544046
     59          6           0       16.190910    0.722076    0.229663
     60          6           0       17.713442    0.723213   -0.151798
     61          6           0       18.514676    1.710893    0.613351
     62          6           0       20.075476    1.868150    0.163079
     63          6           0       20.282630    2.393710   -1.190277
     64          6           0       20.780578    2.705530    1.223733
     65          1           0       -3.933374    3.429831    1.862225
     66          1           0       -9.948099    4.286050   -0.421557
     67          1           0      -10.500014   -2.087896   -1.388152
     68          1           0       -3.117059   -1.146786    2.180345
     69          1           0       -2.476919    1.374937    1.234476
     70          1           0       -1.866160    0.789488    3.599918
     71          1           0       -2.934100    2.144602    3.824575
     72          1           0       -3.731631    0.295113    3.825123
     73          1           0       -2.377922   -1.596934   -0.460816
     74          1           0       -1.937749    0.114074   -0.586798
     75          1           0       -0.381006   -0.086949    1.374093
     76          1           0       -0.484818   -1.804076    1.416355
     77          1           0       -4.516125    6.106240    0.872471
     78          1           0       -5.840504    6.796358    1.637334
     79          1           0       -4.890810    5.475146    2.450596
     80          1           0       -8.208704    6.814044    1.297892
     81          1           0       -9.522306    5.936409   -1.277272
     82          1           0       -9.363565    7.625444   -0.228668
     83          1           0      -12.352859    3.536732   -0.473099
     84          1           0      -11.595092    3.773470   -2.071618
     85          1           0      -13.215801    2.771905   -1.583157
     86          1           0      -12.628372   -1.174296   -1.103290
     87          1           0      -13.574927    0.323117   -1.479235
     88          1           0      -12.451288    0.353206   -3.961876
     89          1           0      -11.663112   -0.998689   -3.395645
     90          1           0      -13.585170   -1.047547   -3.453537
     91          1           0       -9.687471   -4.872498   -0.230745
     92          1           0       -9.504578   -4.755506   -2.210443
     93          1           0       -8.321211   -5.488093   -1.265447
     94          1           0       -3.649113   -3.442525   -0.266275
     95          1           0       -1.942891   -6.286136    2.452890
     96          1           0       -1.701490   -4.692704    3.347535
     97          1           0       -3.359711   -5.379724    3.631673
     98          1           0        2.437181   -2.238567   -1.461109
     99          1           0        2.252149   -0.585469   -2.013452
    100          1           0        4.118255   -1.160509    0.356993
    101          1           0        5.008316    1.935359   -2.347318
    102          1           0        5.608813    0.239762   -3.039538
    103          1           0        3.880536    0.499926   -2.947736
    104          1           0        6.430006    1.197746   -0.003099
    105          1           0        6.281431   -0.390123    0.658486
    106          1           0        7.384091   -1.491960   -1.437738
    107          1           0        7.753777    0.150254   -1.935373
    108          1           0        8.798614    0.670904    0.506356
    109          1           0        8.629459   -1.172085    0.750794
    110          1           0       10.063637   -0.362469   -1.736045
    111          1           0        9.244864   -2.433337   -2.064622
    112          1           0       11.165262   -2.242285   -1.566763
    113          1           0        9.711007   -2.941549   -0.128573
    114          1           0       11.090832    0.581460    0.385131
    115          1           0       11.382060   -1.103350    0.992175
    116          1           0       12.682317   -1.712580   -0.989738
    117          1           0       12.506893    0.020259   -1.478516
    118          1           0       13.561862    0.921683    0.385402
    119          1           0       13.641667   -0.778759    1.252902
    120          1           0       15.108612    0.214073   -1.527136
    121          1           0       14.946697   -2.367225   -0.819738
    122          1           0       16.640762   -1.875486   -1.520024
    123          1           0       16.475332   -1.978069    0.398729
    124          1           0       15.858042    1.559509    0.102323
    125          1           0       16.270295    0.098596    1.195256
    126          1           0       18.297449   -0.401549   -0.086933
    127          1           0       17.778710    0.990361   -1.276919
    128          1           0       18.007831    2.551759    0.466659
    129          1           0       18.508788    1.608910    1.845750
    130          1           0       20.650959    0.976393    0.160048
    131          1           0       20.101582    3.393482   -1.311101
    132          1           0       21.379811    2.302093   -1.389553
    133          1           0       19.797085    1.623182   -1.903190
    134          1           0       20.814506    2.026243    2.100549
    135          1           0       21.915594    2.890015    1.034887
    136          1           0       20.344712    3.653351    1.343640
    137          1           0       -6.932191    1.843311    0.278273
    138          1           0       -7.633129   -0.242132   -0.184876
 ---------------------------------------------------------------------

 SCF Done:  E(RB3LYP) =  -2733.04446834     A.U. after   17 cycles

 Excitation energies and oscillator strengths:

 Excited State   1:      Singlet-A      2.0660 eV  600.12 nm  f=0.2198  <S**2>=0.000
     235 -> 237       -0.19025
     235 -> 238       -0.25606
     236 -> 237        0.61835
     236 -> 238       -0.12133
 This state for optimization and/or second-order correction.
 Total Energy, E(TD-HF/TD-KS) =  -2732.96854415
 Copying the excited state density for this state as the 1-particle RhoCI density.

 The electronic state is 1-A.
 Alpha  occ. eigenvalues --  -19.19436 -19.14919 -19.14727 -19.14225 -19.13403
 Alpha  occ. eigenvalues --  -14.36883 -14.35502 -14.31882 -14.29895 -10.32523
 Alpha  occ. eigenvalues --  -10.31771 -10.28884 -10.26582 -10.24432 -10.23968
 Alpha  occ. eigenvalues --  -10.23336 -10.22722 -10.22599 -10.22292 -10.22249
 Alpha  occ. eigenvalues --  -10.22030 -10.21957 -10.21447 -10.21192 -10.21180
 Alpha  occ. eigenvalues --  -10.21149 -10.21125 -10.20970 -10.20846 -10.20777
 Alpha  occ. eigenvalues --  -10.20642 -10.20442 -10.20381 -10.20214 -10.20093
 Alpha  occ. eigenvalues --  -10.20076 -10.20018 -10.19841 -10.19817 -10.19817
 Alpha  occ. eigenvalues --  -10.19764 -10.19737 -10.19541 -10.19530 -10.19421
 Alpha  occ. eigenvalues --  -10.19404 -10.19281 -10.19198 -10.19101 -10.19062
 Alpha  occ. eigenvalues --  -10.19046 -10.18875 -10.18803 -10.18785 -10.18670
 Alpha  occ. eigenvalues --  -10.18637 -10.18538 -10.18320 -10.18291 -10.18180
 Alpha  occ. eigenvalues --  -10.18045 -10.17469 -10.17284 -10.17075  -1.11389
 Alpha  occ. eigenvalues --   -1.10622  -1.04380  -1.03316  -1.00020  -0.98504
 Alpha  occ. eigenvalues --   -0.98218  -0.93671  -0.93010  -0.84716  -0.82825
 Alpha  occ. eigenvalues --   -0.81974  -0.81631  -0.81067  -0.80781  -0.80075
 Alpha  occ. eigenvalues --   -0.79648  -0.79599  -0.78872  -0.78273  -0.77760
 Alpha  occ. eigenvalues --   -0.77175  -0.75853  -0.75256  -0.74940  -0.74120
 Alpha  occ. eigenvalues --   -0.73206  -0.72758  -0.72221  -0.71607  -0.70783
 Alpha  occ. eigenvalues --   -0.69725  -0.69157  -0.68428  -0.67764  -0.67524
 Alpha  occ. eigenvalues --   -0.67426  -0.66422  -0.65794  -0.65672  -0.64543
 Alpha  occ. eigenvalues --   -0.64099  -0.62593  -0.61754  -0.61341  -0.61203
 Alpha  occ. eigenvalues --   -0.60160  -0.59000  -0.58200  -0.57841  -0.57025
 Alpha  occ. eigenvalues --   -0.56348  -0.56212  -0.55769  -0.55529  -0.55274
 Alpha  occ. eigenvalues --   -0.55140  -0.54689  -0.54292  -0.54060  -0.53787
 Alpha  occ. eigenvalues --   -0.52635  -0.51892  -0.51427  -0.50707  -0.50691
 Alpha  occ. eigenvalues --   -0.49455  -0.49027  -0.48946  -0.48777  -0.48485
 Alpha  occ. eigenvalues --   -0.48198  -0.47834  -0.47638  -0.47556  -0.47297
 Alpha  occ. eigenvalues --   -0.47115  -0.46695  -0.46399  -0.46133  -0.45834
 Alpha  occ. eigenvalues --   -0.45701  -0.45283  -0.45209  -0.45048  -0.44683
 Alpha  occ. eigenvalues --   -0.44613  -0.43782  -0.43768  -0.43662  -0.43566
 Alpha  occ. eigenvalues --   -0.43366  -0.43327  -0.43199  -0.42574  -0.42320
 Alpha  occ. eigenvalues --   -0.42181  -0.42102  -0.41838  -0.41637  -0.41348
 Alpha  occ. eigenvalues --   -0.41216  -0.41163  -0.40730  -0.40639  -0.40538
 Alpha  occ. eigenvalues --   -0.40439  -0.40088  -0.39804  -0.39551  -0.39468
 Alpha  occ. eigenvalues --   -0.39235  -0.39232  -0.39031  -0.38818  -0.38661
 Alpha  occ. eigenvalues --   -0.38625  -0.38456  -0.38340  -0.38264  -0.38068
 Alpha  occ. eigenvalues --   -0.37871  -0.37544  -0.37222  -0.37178  -0.36905
 Alpha  occ. eigenvalues --   -0.36762  -0.36284  -0.36155  -0.35981  -0.35848
 Alpha  occ. eigenvalues --   -0.35510  -0.35232  -0.35080  -0.34771  -0.34646
 Alpha  occ. eigenvalues --   -0.34509  -0.34455  -0.34221  -0.34169  -0.33949
 Alpha  occ. eigenvalues --   -0.33203  -0.32975  -0.32844  -0.32519  -0.31965
 Alpha  occ. eigenvalues --   -0.31870  -0.31727  -0.31549  -0.31370  -0.31168
 Alpha  occ. eigenvalues --   -0.30835  -0.30491  -0.29980  -0.29887  -0.29780
 Alpha  occ. eigenvalues --   -0.29601  -0.29265  -0.29075  -0.28672  -0.28507
 Alpha  occ. eigenvalues --   -0.27450  -0.27101  -0.26799  -0.26719  -0.25825
 Alpha  occ. eigenvalues --   -0.25486  -0.24607  -0.22868  -0.22033  -0.19804
 Alpha  occ. eigenvalues --   -0.18702
 Alpha virt. eigenvalues --   -0.10365  -0.07185  -0.04276  -0.02054  -0.00664
 Alpha virt. eigenvalues --   -0.00479  -0.00112   0.00391   0.02170   0.03211
 Alpha virt. eigenvalues --    0.03755   0.03949   0.04370   0.04880   0.04935

 Mulliken charges:
               1
     1  C   -0.007151
     2  C   -0.079091
     3  C   -0.097608
     4  C   -0.090824
     5  N   -0.182601
     6  C   -0.106338
     7  C   -0.042071
     8  C    0.115624
     9  C   -0.063074
    10  C    0.041363
    11  C   -0.017482
    12  C    0.053488
    13  C    0.202533
    14  O   -0.138785
    15  O   -0.411455
    16  N   -0.014546
    17  C    0.043639
    18  C   -0.179807
    19  C    0.069417
    20  C    0.085202
    21  C    0.156930
    22  C   -0.118155
    23  C    0.030680
    24  N   -0.237557
    25  C    0.079788
    26  C   -0.197297
    27  C   -0.087376
    28  C    0.127667
    29  C    0.138010
    30  C    0.048747
    31  C   -0.009644
    32  N   -0.006257
    33  C   -0.027251
    34  C   -0.140779
    35  C   -0.040417
    36  C    0.106538
    37  C    0.020366
    38  C    0.148077
    39  O   -0.138310
    40  C   -0.045948
    41  C    0.177507
    42  O   -0.188814
    43  O   -0.273678
    44  C    0.090809
    45  C    0.232603
    46  C   -0.006922
    47  C   -0.156802
    48  C    0.037063
    49  C    0.139210
    50  C   -0.048796
    51  C    0.023613
    52  C   -0.087600
    53  C   -0.042953
    54  C    0.029629
    55  C   -0.014039
    56  C    0.017237
    57  C   -0.051544
    58  C   -0.064784
    59  C    0.130360
    60  C   -0.057969
    61  C    0.069567
    62  C   -0.073387
    63  C    0.065421
    64  C    0.015930
    65  H   -0.003318
    66  H    0.003552
    67  H   -0.008495
    68  H   -0.008069
    69  H   -0.068941
    70  H    0.018796
    71  H    0.020985
    72  H    0.062538
    73  H    0.013628
    74  H    0.025942
    75  H    0.002326
    76  H    0.049992
    77  H    0.008950
    78  H   -0.004820
    79  H    0.023082
    80  H   -0.003450
    81  H    0.020942
    82  H    0.022194
    83  H   -0.003858
    84  H    0.043478
    85  H    0.009154
    86  H    0.013288
    87  H    0.001066
    88  H    0.018435
    89  H    0.007092
    90  H    0.028003
    91  H    0.054393
    92  H    0.053060
    93  H    0.037055
    94  H    0.055376
    95  H    0.057537
    96  H    0.030948
    97  H    0.071377
    98  H    0.026809
    99  H    0.009201
   100  H   -0.031863
   101  H    0.046637
   102  H    0.025301
   103  H    0.013896
   104  H    0.001216
   105  H   -0.012199
   106  H    0.013794
   107  H   -0.002115
   108  H    0.013317
   109  H   -0.005600
   110  H   -0.027809
   111  H    0.037087
   112  H    0.039536
   113  H    0.041865
   114  H   -0.018325
   115  H   -0.004879
   116  H    0.022308
   117  H   -0.028432
   118  H   -0.004215
   119  H    0.021398
   120  H   -0.013300
   121  H    0.026237
   122  H    0.026244
   123  H    0.043925
   124  H   -0.088477
   125  H    0.017015
   126  H    0.010930
   127  H    0.000729
   128  H   -0.051908
   129  H    0.005055
   130  H   -0.022873
   131  H   -0.017868
   132  H   -0.008327
   133  H    0.019971
   134  H    0.011374
   135  H    0.000773
   136  H   -0.000477
   137  H    0.109061
   138  H    0.152849
 Sum of Mulliken charges =   0.00000

 Dipole moment (field-independent basis, Debye):
    X=              2.6302    Y=              3.3842    Z=              0.2157  Tot=              4.2916
 Quadrupole moment (field-independent basis, Debye-Ang):
   XX=           -367.8809   YY=           -385.1439   ZZ=           -394.2724
   XY=             -3.2654   XZ=              5.6494   YZ=             -1.6668

 Normal termination of Gaussian 09 at Sat Aug  3 21:37:48 2019.
