 Gaussian 09, Revision D.01,
 Gaussian 09:  ES64L-G09RevD.01 24-Apr-2013

 --------------------------
 # td=(NStates=1) B3LYP/SVP
 --------------------------

 --
 TD
 --
 Symbolic Z-matrix:
 Charge =  0 Multiplicity = 1

                         Standard orientation:
 ---------------------------------------------------------------------
 Center     Atomic      Atomic             Coordinates (Angstroms)
 Number     Number       Type             X           Y           Z
 ---------------------------------------------------------------------
      1          6           0       -5.097845   -1.930639    0.432934
      2          6           0       -4.689852    2.764817    1.372110
      3          6           0       -9.292094    3.392074   -0.196241
      4          6           0       -9.892358   -1.382819   -0.816619
      5          7           0       -5.097816    0.448887    0.709142
      6          6           0       -4.470226   -0.691486    0.717281
      7          6           0       -3.014474   -0.556109    1.188523
      8          6           0       -3.091041    0.835719    1.829576
      9          6           0       -4.311376    1.438578    1.228037
     10          6           0       -2.980349    0.779339    3.418365
     11          6           0       -2.011949   -0.770894   -0.003698
     12          6           0       -0.585026   -1.020019    0.487790
     13          6           0        0.384121   -1.123164   -0.794751
     14          8           0        0.092070   -1.467555   -1.929645
     15          8           0        1.588462   -0.699123   -0.387558
     16          7           0       -6.991269    2.769548    0.539316
     17          6           0       -5.863787    3.330890    0.915750
     18          6           0       -6.137703    4.751728    0.954197
     19          6           0       -7.454617    4.928616    0.435590
     20          6           0       -7.966321    3.681740    0.252291
     21          6           0       -5.150632    5.836191    1.434367
     22          6           0       -8.118254    6.187331    0.271119
     23          6           0       -9.033200    6.434820   -0.702172
     24          7           0       -9.196697    0.863329   -0.372456
     25          6           0       -9.853500    2.069437   -0.457148
     26          6           0      -11.268773    1.942503   -0.738631
     27          6           0      -11.483305    0.582858   -0.973103
     28          6           0      -10.161965   -0.051011   -0.666155
     29          6           0      -12.231366    3.038766   -0.766428
     30          6           0      -12.644263   -0.170410   -1.398628
     31          6           0      -12.863238   -0.061247   -2.938449
     32          7           0       -7.511784   -1.308868   -0.160862
     33          6           0       -8.652064   -2.057063   -0.599984
     34          6           0       -8.144134   -3.413828   -0.729010
     35          6           0       -6.908150   -3.455847   -0.233442
     36          6           0       -6.443195   -2.092175    0.056150
     37          6           0       -8.928203   -4.645664   -1.026294
     38          6           0       -5.697420   -4.370900   -0.090413
     39          8           0       -5.672801   -5.565478   -0.201988
     40          6           0       -4.520341   -3.357048    0.277078
     41          6           0       -3.970733   -3.925498    1.577954
     42          8           0       -4.106525   -3.549778    2.746345
     43          8           0       -2.907567   -4.746172    1.251667
     44          6           0       -2.450814   -5.579984    2.437293
     45          6           0        2.708279   -0.850010   -1.293920
     46          6           0        3.958520   -0.617152   -0.604475
     47          6           0        4.955986    0.278930   -0.989878
     48          6           0        5.000493    0.941442   -2.334548
     49          6           0        6.122006    0.371553   -0.182397
     50          6           0        7.405919   -0.409416   -0.790666
     51          6           0        8.716364   -0.148151   -0.029119
     52          6           0       10.075159   -0.598092   -0.773267
     53          6           0       10.057693   -2.171415   -0.861500
     54          6           0       11.303872   -0.184137    0.050900
     55          6           0       12.604070   -0.488744   -0.599903
     56          6           0       13.772093   -0.089985    0.162921
     57          6           0       15.227012   -0.303941   -0.321197
     58          6           0       15.558607   -1.749199   -0.296254
     59          6           0       16.245585    0.602181    0.533870
     60          6           0       17.609189    0.662693   -0.102179
     61          6           0       18.530265    1.710925    0.559120
     62          6           0       19.983191    1.569249    0.034757
     63          6           0       20.133538    2.156446   -1.287777
     64          6           0       20.917754    2.304420    1.076272
     65          1           0       -4.003668    3.462202    1.724257
     66          1           0      -10.037433    4.177994   -0.502226
     67          1           0      -10.861720   -1.879908   -1.043737
     68          1           0       -3.029724   -1.329674    1.930181
     69          1           0       -2.192017    1.394053    1.638359
     70          1           0       -2.146842    0.112868    3.820177
     71          1           0       -2.922697    1.795919    3.714627
     72          1           0       -3.986374    0.224685    3.739028
     73          1           0       -2.368086   -1.747665   -0.452762
     74          1           0       -2.202303    0.213566   -0.514393
     75          1           0       -0.277744   -0.137386    1.049691
     76          1           0       -0.535402   -1.849466    1.356591
     77          1           0       -3.951310    5.655854    0.994591
     78          1           0       -5.598538    6.721437    1.113577
     79          1           0       -5.046643    5.550845    2.542443
     80          1           0       -7.856744    6.755935    0.935597
     81          1           0       -9.185644    5.635196   -1.474316
     82          1           0       -9.524583    7.422947   -0.438317
     83          1           0      -12.181990    3.402529    0.146936
     84          1           0      -11.771445    3.740901   -1.592167
     85          1           0      -13.199239    2.487319   -1.056406
     86          1           0      -12.518836   -1.496801   -1.168226
     87          1           0      -13.453021    0.139545   -0.753756
     88          1           0      -12.874642    1.076043   -3.273686
     89          1           0      -12.071770   -0.720308   -3.481791
     90          1           0      -13.851653   -0.634514   -3.276523
     91          1           0       -9.722140   -4.853604   -0.508622
     92          1           0       -9.347169   -4.702080   -2.099786
     93          1           0       -8.363830   -5.594960   -1.034040
     94          1           0       -3.672790   -3.379940   -0.285938
     95          1           0       -2.136181   -6.638529    1.918312
     96          1           0       -1.838186   -5.093969    3.340330
     97          1           0       -3.337183   -6.039586    2.997644
     98          1           0        2.720582   -1.930418   -1.630521
     99          1           0        2.284817   -0.420717   -2.439206
    100          1           0        3.991578   -1.070218    0.396175
    101          1           0        5.455362    2.074958   -2.092060
    102          1           0        5.730333    0.722067   -3.023166
    103          1           0        4.056027    1.088959   -2.975685
    104          1           0        6.415863    1.467283    0.027472
    105          1           0        5.951893   -0.104245    0.960841
    106          1           0        7.089872   -1.450537   -0.778998
    107          1           0        7.683612    0.030946   -1.855553
    108          1           0        8.780658    1.055885    0.157451
    109          1           0        8.667916   -0.619658    0.980362
    110          1           0       10.118846    0.020570   -1.628829
    111          1           0        8.985297   -2.481135   -1.177687
    112          1           0       10.854498   -2.516528   -1.506506
    113          1           0       10.296890   -2.826658    0.088715
    114          1           0       11.168514    0.737233    0.372466
    115          1           0       11.152264   -0.767180    0.938929
    116          1           0       12.671032   -1.442606   -0.858609
    117          1           0       12.659109   -0.218178   -1.602125
    118          1           0       13.479527    1.154872    0.445035
    119          1           0       13.767080   -0.881635    1.034223
    120          1           0       15.452947    0.132680   -1.255553
    121          1           0       14.548884   -2.290640   -0.602921
    122          1           0       16.648155   -1.990112   -0.606752
    123          1           0       15.497540   -2.124593    0.811606
    124          1           0       15.917134    1.670432    0.435394
    125          1           0       16.342432    0.099378    1.511658
    126          1           0       17.830899   -0.362657   -0.176231
    127          1           0       17.594877    1.054919   -1.157748
    128          1           0       18.188595    2.794644    0.576284
    129          1           0       18.606462    1.516429    1.514886
    130          1           0       20.455249    0.567534    0.019204
    131          1           0       19.794488    3.195783   -1.371184
    132          1           0       21.274610    2.139762   -1.513855
    133          1           0       19.622214    1.544367   -2.028263
    134          1           0       20.800330    2.063583    2.084785
    135          1           0       21.914101    2.266571    0.802764
    136          1           0       20.724168    3.447008    1.233158
    137          1           0       -7.173993    1.858552    0.542356
    138          1           0       -7.642161   -0.226784   -0.130502
 ---------------------------------------------------------------------

 SCF Done:  E(RB3LYP) =  -2732.99253655     A.U. after   17 cycles

 Excitation energies and oscillator strengths:

 Excited State   1:      Singlet-A      2.0670 eV  599.83 nm  f=0.1778  <S**2>=0.000
     235 -> 237       -0.13234
     235 -> 238        0.29424
     236 -> 237        0.62101
 This state for optimization and/or second-order correction.
 Total Energy, E(TD-HF/TD-KS) =  -2732.91657622
 Copying the excited state density for this state as the 1-particle RhoCI density.

 The electronic state is 1-A.
 Alpha  occ. eigenvalues --  -19.18043 -19.17892 -19.13508 -19.12956 -19.12697
 Alpha  occ. eigenvalues --  -14.36390 -14.36366 -14.31635 -14.30176 -10.32078
 Alpha  occ. eigenvalues --  -10.31741 -10.29185 -10.26642 -10.26058 -10.23917
 Alpha  occ. eigenvalues --  -10.23181 -10.23057 -10.23048 -10.22663 -10.22647
 Alpha  occ. eigenvalues --  -10.21844 -10.21695 -10.21540 -10.21428 -10.21254
 Alpha  occ. eigenvalues --  -10.21147 -10.21081 -10.20990 -10.20964 -10.20903
 Alpha  occ. eigenvalues --  -10.20821 -10.20376 -10.20331 -10.20283 -10.20244
 Alpha  occ. eigenvalues --  -10.20209 -10.20075 -10.20046 -10.19923 -10.19880
 Alpha  occ. eigenvalues --  -10.19866 -10.19836 -10.19661 -10.19526 -10.19465
 Alpha  occ. eigenvalues --  -10.19393 -10.19384 -10.18960 -10.18871 -10.18752
 Alpha  occ. eigenvalues --  -10.18672 -10.18610 -10.18610 -10.18566 -10.18512
 Alpha  occ. eigenvalues --  -10.18329 -10.18074 -10.17865 -10.17449 -10.17406
 Alpha  occ. eigenvalues --  -10.17182 -10.16760 -10.16188 -10.15839  -1.09254
 Alpha  occ. eigenvalues --   -1.07443  -1.04292  -1.00531  -1.00484  -0.98489
 Alpha  occ. eigenvalues --   -0.96968  -0.95320  -0.93103  -0.84055  -0.83167
 Alpha  occ. eigenvalues --   -0.83103  -0.82737  -0.81524  -0.81087  -0.80515
 Alpha  occ. eigenvalues --   -0.80385  -0.80088  -0.79903  -0.79276  -0.77623
 Alpha  occ. eigenvalues --   -0.77098  -0.76329  -0.75802  -0.75462  -0.74494
 Alpha  occ. eigenvalues --   -0.73797  -0.72842  -0.72359  -0.71763  -0.70949
 Alpha  occ. eigenvalues --   -0.69925  -0.68721  -0.68320  -0.67929  -0.67734
 Alpha  occ. eigenvalues --   -0.67497  -0.67064  -0.66614  -0.66238  -0.64672
 Alpha  occ. eigenvalues --   -0.64298  -0.63359  -0.62480  -0.61889  -0.61369
 Alpha  occ. eigenvalues --   -0.60721  -0.59011  -0.58408  -0.58372  -0.58034
 Alpha  occ. eigenvalues --   -0.57547  -0.56174  -0.56069  -0.55981  -0.55833
 Alpha  occ. eigenvalues --   -0.55637  -0.54841  -0.54758  -0.54192  -0.53461
 Alpha  occ. eigenvalues --   -0.52778  -0.52067  -0.51503  -0.50544  -0.50443
 Alpha  occ. eigenvalues --   -0.49413  -0.49148  -0.48911  -0.48588  -0.48258
 Alpha  occ. eigenvalues --   -0.48008  -0.47925  -0.47645  -0.47295  -0.46634
 Alpha  occ. eigenvalues --   -0.46590  -0.46424  -0.46255  -0.46099  -0.45836
 Alpha  occ. eigenvalues --   -0.45517  -0.45454  -0.45251  -0.44834  -0.44758
 Alpha  occ. eigenvalues --   -0.44641  -0.44419  -0.44187  -0.44130  -0.43878
 Alpha  occ. eigenvalues --   -0.43829  -0.43582  -0.43280  -0.43103  -0.43054
 Alpha  occ. eigenvalues --   -0.42410  -0.42185  -0.42052  -0.41846  -0.41699
 Alpha  occ. eigenvalues --   -0.41322  -0.41112  -0.40748  -0.40677  -0.40432
 Alpha  occ. eigenvalues --   -0.40142  -0.39920  -0.39656  -0.39343  -0.39109
 Alpha  occ. eigenvalues --   -0.38947  -0.38699  -0.38533  -0.38453  -0.38378
 Alpha  occ. eigenvalues --   -0.38301  -0.38049  -0.37930  -0.37803  -0.37679
 Alpha  occ. eigenvalues --   -0.37489  -0.37333  -0.37104  -0.37033  -0.36685
 Alpha  occ. eigenvalues --   -0.36434  -0.36327  -0.36150  -0.35906  -0.35575
 Alpha  occ. eigenvalues --   -0.35544  -0.35213  -0.35104  -0.34911  -0.34858
 Alpha  occ. eigenvalues --   -0.34584  -0.34373  -0.34280  -0.33967  -0.33819
 Alpha  occ. eigenvalues --   -0.33816  -0.33190  -0.33108  -0.32664  -0.32590
 Alpha  occ. eigenvalues --   -0.32438  -0.32381  -0.32348  -0.31673  -0.31521
 Alpha  occ. eigenvalues --   -0.31357  -0.30523  -0.30355  -0.30234  -0.30169
 Alpha  occ. eigenvalues --   -0.29912  -0.29273  -0.28121  -0.27909  -0.27614
 Alpha  occ. eigenvalues --   -0.27541  -0.27267  -0.26900  -0.26573  -0.25679
 Alpha  occ. eigenvalues --   -0.25571  -0.24001  -0.23592  -0.22533  -0.19771
 Alpha  occ. eigenvalues --   -0.18849
 Alpha virt. eigenvalues --   -0.10221  -0.07479  -0.04282  -0.02210  -0.01836
 Alpha virt. eigenvalues --   -0.01112  -0.00357  -0.00032   0.01843   0.02831
 Alpha virt. eigenvalues --    0.03356   0.04119   0.04214   0.04572   0.04822

 Mulliken charges:
               1
     1  C    0.077401
     2  C   -0.063852
     3  C   -0.132834
     4  C   -0.043555
     5  N   -0.127125
     6  C   -0.142584
     7  C   -0.035656
     8  C   -0.029457
     9  C    0.034153
    10  C    0.025769
    11  C    0.067326
    12  C   -0.010483
    13  C    0.212785
    14  O   -0.234341
    15  O   -0.294408
    16  N    0.097373
    17  C    0.099595
    18  C   -0.179764
    19  C    0.018240
    20  C    0.102185
    21  C    0.049978
    22  C    0.019556
    23  C    0.002374
    24  N   -0.248239
    25  C    0.042185
    26  C   -0.213361
    27  C   -0.030636
    28  C    0.010270
    29  C    0.163676
    30  C   -0.055079
    31  C   -0.040483
    32  N   -0.106595
    33  C    0.109933
    34  C   -0.116251
    35  C   -0.026113
    36  C    0.049201
    37  C    0.129817
    38  C    0.128042
    39  O   -0.141653
    40  C   -0.030673
    41  C    0.216226
    42  O   -0.242052
    43  O   -0.335859
    44  C    0.103469
    45  C    0.176346
    46  C   -0.066718
    47  C   -0.052786
    48  C    0.034093
    49  C   -0.017546
    50  C    0.001097
    51  C   -0.040155
    52  C   -0.051078
    53  C   -0.011679
    54  C    0.128007
    55  C    0.231171
    56  C   -0.062457
    57  C   -0.031340
    58  C   -0.015844
    59  C    0.042106
    60  C    0.020384
    61  C    0.131076
    62  C   -0.115727
    63  C    0.053867
    64  C    0.047726
    65  H   -0.065214
    66  H   -0.013267
    67  H   -0.038804
    68  H   -0.006317
    69  H   -0.028387
    70  H    0.034750
    71  H    0.010600
    72  H    0.039069
    73  H    0.032343
    74  H    0.027053
    75  H    0.010376
    76  H    0.057840
    77  H    0.052098
    78  H    0.020254
    79  H    0.052849
    80  H   -0.111818
    81  H    0.052529
    82  H    0.036414
    83  H   -0.001450
    84  H    0.050733
    85  H    0.028664
    86  H    0.030390
    87  H    0.021492
    88  H    0.045231
    89  H    0.035130
    90  H    0.026770
    91  H   -0.022340
    92  H    0.006200
    93  H    0.022691
    94  H    0.020506
    95  H    0.060241
    96  H    0.074884
    97  H    0.039626
    98  H    0.023466
    99  H    0.059535
   100  H    0.003826
   101  H    0.004236
   102  H    0.009683
   103  H    0.035671
   104  H    0.015618
   105  H    0.019009
   106  H    0.016915
   107  H    0.020135
   108  H    0.006257
   109  H   -0.002435
   110  H   -0.017801
   111  H    0.022594
   112  H    0.015837
   113  H    0.022458
   114  H   -0.071976
   115  H   -0.036391
   116  H   -0.104689
   117  H   -0.061951
   118  H    0.014028
   119  H   -0.003250
   120  H   -0.034351
   121  H    0.025348
   122  H    0.046626
   123  H    0.001127
   124  H   -0.005164
   125  H   -0.004291
   126  H   -0.036649
   127  H   -0.010592
   128  H    0.001444
   129  H   -0.068826
   130  H   -0.001364
   131  H    0.001040
   132  H    0.004276
   133  H    0.006614
   134  H   -0.015772
   135  H   -0.017295
   136  H   -0.013667
   137  H    0.066990
   138  H    0.183555
 Sum of Mulliken charges =   0.00000

 Dipole moment (field-independent basis, Debye):
    X=              1.9252    Y=              3.4650    Z=              1.0593  Tot=              4.1030
 Quadrupole moment (field-independent basis, Debye-Ang):
   XX=           -340.6601   YY=           -382.7617   ZZ=           -398.3023
   XY=            -27.2793   XZ=              3.8522   YZ=             -1.7797

 Normal termination of Gaussian 09 at Sun Aug  4 10:10:05 2019.
