 Gaussian 09, Revision D.01,
 Gaussian 09:  ES64L-G09RevD.01 24-Apr-2013

 --------------------------
 # td=(NStates=1) B3LYP/SVP
 --------------------------

 --
 TD
 --
 Symbolic Z-matrix:
 Charge =  0 Multiplicity = 1

                         Standard orientation:
 ---------------------------------------------------------------------
 Center     Atomic      Atomic             Coordinates (Angstroms)
 Number     Number       Type             X           Y           Z
 ---------------------------------------------------------------------
      1          6           0       -5.002649   -1.927068    0.390766
      2          6           0       -4.801072    2.816199    1.272209
      3          6           0       -9.427599    3.237400   -0.134102
      4          6           0       -9.703079   -1.565107   -0.970667
      5          7           0       -5.148349    0.502892    0.877511
      6          6           0       -4.526680   -0.714914    0.918483
      7          6           0       -2.951739   -0.496951    1.372421
      8          6           0       -3.152064    0.970530    1.948972
      9          6           0       -4.386531    1.495469    1.352100
     10          6           0       -3.101798    0.944394    3.481807
     11          6           0       -1.991032   -0.663257    0.094602
     12          6           0       -0.537842   -0.516064    0.612494
     13          6           0        0.401431   -0.844281   -0.528651
     14          8           0        0.130990   -1.401811   -1.568684
     15          8           0        1.584792   -0.511188   -0.093247
     16          7           0       -7.162967    2.711042    0.429412
     17          6           0       -5.998437    3.367118    0.841726
     18          6           0       -6.233743    4.827775    0.979800
     19          6           0       -7.620397    4.840806    0.605852
     20          6           0       -8.116807    3.595334    0.294149
     21          6           0       -5.394404    5.795032    1.410874
     22          6           0       -8.397006    6.136476    0.305278
     23          6           0       -9.408335    6.556991   -0.545531
     24          7           0       -9.290563    0.739674   -0.504077
     25          6           0      -10.060141    1.943854   -0.464517
     26          6           0      -11.428446    1.681915   -0.956896
     27          6           0      -11.402046    0.407115   -1.345075
     28          6           0      -10.147723   -0.159852   -0.909591
     29          6           0      -12.423785    2.746132   -1.224891
     30          6           0      -12.608246   -0.421065   -1.719059
     31          6           0      -12.636655   -0.731125   -3.264397
     32          7           0       -7.392844   -1.347122   -0.263649
     33          6           0       -8.525969   -2.142186   -0.674050
     34          6           0       -8.054225   -3.417988   -0.652737
     35          6           0       -6.668249   -3.398279   -0.204723
     36          6           0       -6.310101   -2.149180   -0.002860
     37          6           0       -8.868630   -4.764613   -0.938649
     38          6           0       -5.602061   -4.361065    0.017569
     39          8           0       -5.485727   -5.577200    0.011578
     40          6           0       -4.437214   -3.355131    0.420662
     41          6           0       -3.742590   -3.740755    1.734056
     42          8           0       -4.012910   -3.260932    2.759954
     43          8           0       -2.788194   -4.689772    1.547277
     44          6           0       -2.234252   -5.300837    2.716134
     45          6           0        2.643139   -0.870172   -1.046010
     46          6           0        4.008363   -0.525432   -0.457876
     47          6           0        4.943525    0.264557   -0.963132
     48          6           0        4.846406    0.957761   -2.342526
     49          6           0        6.224522    0.509093   -0.262019
     50          6           0        7.413266   -0.243949   -0.919726
     51          6           0        8.773337   -0.048102   -0.118431
     52          6           0        9.985267   -0.691719   -0.867520
     53          6           0        9.799349   -2.266354   -1.057252
     54          6           0       11.235583   -0.310039   -0.093011
     55          6           0       12.656636   -0.727780   -0.685381
     56          6           0       13.957511   -0.109428    0.178166
     57          6           0       15.285059   -0.341462   -0.338111
     58          6           0       15.607978   -1.867749   -0.310478
     59          6           0       16.309880    0.512083    0.424850
     60          6           0       17.672641    0.625738   -0.076971
     61          6           0       18.498149    1.753811    0.579089
     62          6           0       20.041514    1.594276    0.129042
     63          6           0       20.128444    1.987442   -1.398414
     64          6           0       20.872492    2.633035    0.886839
     65          1           0       -4.248413    3.487138    1.704493
     66          1           0      -10.248517    3.989748   -0.265508
     67          1           0      -10.427340   -2.221389   -1.236424
     68          1           0       -2.456870   -1.226738    1.984699
     69          1           0       -2.265983    1.649822    1.563254
     70          1           0       -2.313735    0.345261    4.075767
     71          1           0       -3.095187    2.054624    4.047536
     72          1           0       -4.135598    0.404693    3.810943
     73          1           0       -2.005400   -1.696248   -0.448628
     74          1           0       -2.007814    0.193769   -0.641751
     75          1           0       -0.333297    0.479731    0.958252
     76          1           0       -0.214907   -1.123899    1.397686
     77          1           0       -4.561480    6.204536    0.514737
     78          1           0       -5.966370    6.764293    1.698910
     79          1           0       -4.863105    5.398581    2.422414
     80          1           0       -7.817737    6.957488    0.957056
     81          1           0       -9.846570    5.814561   -1.289475
     82          1           0       -9.764043    7.585597   -0.496415
     83          1           0      -12.960162    3.142380   -0.185204
     84          1           0      -11.680468    3.764190   -1.643749
     85          1           0      -13.370741    2.493656   -2.038141
     86          1           0      -12.559095   -1.316109   -1.152348
     87          1           0      -13.633757    0.066277   -1.448672
     88          1           0      -12.749786    0.208999   -3.886820
     89          1           0      -11.824169   -1.180395   -3.838675
     90          1           0      -13.562167   -1.262379   -3.323914
     91          1           0       -9.811799   -4.911843   -0.348082
     92          1           0       -9.219078   -4.547178   -2.037578
     93          1           0       -8.215141   -5.514813   -0.736462
     94          1           0       -3.728467   -3.446304   -0.234031
     95          1           0       -1.520974   -6.179407    2.627293
     96          1           0       -1.815251   -4.367266    3.273379
     97          1           0       -2.983862   -5.765108    3.358873
     98          1           0        2.566381   -2.142932   -1.235483
     99          1           0        2.382575   -0.296205   -1.827557
    100          1           0        4.252758   -0.890482    0.545028
    101          1           0        4.886913    2.212096   -2.138359
    102          1           0        5.673430    0.625205   -3.176399
    103          1           0        3.806543    0.720321   -2.882060
    104          1           0        6.375607    1.652707   -0.273056
    105          1           0        6.319403    0.166241    0.785946
    106          1           0        7.318966   -1.347327   -0.740638
    107          1           0        7.733373    0.063640   -1.906454
    108          1           0        8.945739    1.076810    0.042108
    109          1           0        8.602623   -0.639681    0.859682
    110          1           0       10.166301   -0.293069   -1.809658
    111          1           0        8.965233   -2.210764   -1.567257
    112          1           0       10.734341   -2.686985   -1.400784
    113          1           0        9.640524   -2.852427   -0.208265
    114          1           0       11.293063    0.769585   -0.180046
    115          1           0       11.118054   -0.783457    0.881486
    116          1           0       13.028260   -1.826552   -0.510363
    117          1           0       12.809423   -0.244815   -1.689839
    118          1           0       13.673897    1.003761   -0.148404
    119          1           0       13.864029   -0.405833    1.128710
    120          1           0       15.460688    0.032602   -1.453560
    121          1           0       15.080534   -2.418445   -1.203171
    122          1           0       16.825263   -1.865800   -0.392984
    123          1           0       15.366362   -2.246039    0.697122
    124          1           0       15.818350    1.463738    0.329978
    125          1           0       16.335935    0.313227    1.560886
    126          1           0       18.235950   -0.360147    0.175213
    127          1           0       17.758943    0.839978   -1.237672
    128          1           0       18.265937    2.651021    0.032642
    129          1           0       18.387846    1.784660    1.509116
    130          1           0       20.481442    0.647058    0.119257
    131          1           0       19.993073    2.990418   -1.649247
    132          1           0       21.189995    1.705047   -1.645773
    133          1           0       19.440676    1.286754   -2.057542
    134          1           0       20.565594    2.289333    2.087813
    135          1           0       22.004353    2.130161    0.922374
    136          1           0       20.566222    3.726762    0.519000
    137          1           0       -7.250205    1.637537    0.286221
    138          1           0       -7.363345   -0.412728   -0.288942
 ---------------------------------------------------------------------

 SCF Done:  E(RB3LYP) =  -2732.95158573     A.U. after   17 cycles

 Excitation energies and oscillator strengths:

 Excited State   1:      Singlet-A      1.9949 eV  621.49 nm  f=0.1465  <S**2>=0.000
     235 -> 237       -0.25565
     235 -> 238       -0.24063
     236 -> 237        0.57334
     236 -> 238       -0.20920
 This state for optimization and/or second-order correction.
 Total Energy, E(TD-HF/TD-KS) =  -2732.87827273
 Copying the excited state density for this state as the 1-particle RhoCI density.

 The electronic state is 1-A.
 Alpha  occ. eigenvalues --  -19.18148 -19.17199 -19.12662 -19.12261 -19.12136
 Alpha  occ. eigenvalues --  -14.37548 -14.35070 -14.32201 -14.30066 -10.30973
 Alpha  occ. eigenvalues --  -10.30658 -10.28108 -10.25910 -10.25094 -10.24158
 Alpha  occ. eigenvalues --  -10.23817 -10.23734 -10.23337 -10.22856 -10.22843
 Alpha  occ. eigenvalues --  -10.22831 -10.22705 -10.22339 -10.22255 -10.21925
 Alpha  occ. eigenvalues --  -10.21684 -10.21569 -10.21466 -10.21423 -10.21408
 Alpha  occ. eigenvalues --  -10.21114 -10.20968 -10.20916 -10.20838 -10.20595
 Alpha  occ. eigenvalues --  -10.20376 -10.20172 -10.20124 -10.20090 -10.20045
 Alpha  occ. eigenvalues --  -10.20019 -10.19823 -10.19664 -10.19651 -10.19557
 Alpha  occ. eigenvalues --  -10.19282 -10.19253 -10.19141 -10.19063 -10.18993
 Alpha  occ. eigenvalues --  -10.18754 -10.18684 -10.18651 -10.18597 -10.18399
 Alpha  occ. eigenvalues --  -10.18353 -10.18190 -10.18150 -10.18138 -10.18011
 Alpha  occ. eigenvalues --  -10.17818 -10.17605 -10.16599 -10.16182  -1.10802
 Alpha  occ. eigenvalues --   -1.09930  -1.02359  -1.01856  -1.00808  -0.99396
 Alpha  occ. eigenvalues --   -0.97894  -0.94093  -0.93855  -0.85757  -0.82893
 Alpha  occ. eigenvalues --   -0.82832  -0.82337  -0.80989  -0.80823  -0.80334
 Alpha  occ. eigenvalues --   -0.79982  -0.79861  -0.79779  -0.78654  -0.77436
 Alpha  occ. eigenvalues --   -0.76406  -0.75689  -0.75504  -0.74873  -0.73860
 Alpha  occ. eigenvalues --   -0.73250  -0.72964  -0.72187  -0.71489  -0.71143
 Alpha  occ. eigenvalues --   -0.69661  -0.69079  -0.68246  -0.67848  -0.67401
 Alpha  occ. eigenvalues --   -0.66923  -0.66509  -0.66233  -0.65741  -0.65117
 Alpha  occ. eigenvalues --   -0.64129  -0.62586  -0.62169  -0.61830  -0.61480
 Alpha  occ. eigenvalues --   -0.60605  -0.58470  -0.58183  -0.58086  -0.57077
 Alpha  occ. eigenvalues --   -0.56185  -0.56057  -0.55898  -0.55767  -0.55575
 Alpha  occ. eigenvalues --   -0.55265  -0.55151  -0.54047  -0.53258  -0.52933
 Alpha  occ. eigenvalues --   -0.52837  -0.51953  -0.51243  -0.51010  -0.50517
 Alpha  occ. eigenvalues --   -0.50290  -0.50020  -0.48781  -0.48546  -0.48410
 Alpha  occ. eigenvalues --   -0.48230  -0.47883  -0.47862  -0.47541  -0.47274
 Alpha  occ. eigenvalues --   -0.46997  -0.46799  -0.46310  -0.46276  -0.46065
 Alpha  occ. eigenvalues --   -0.45522  -0.45265  -0.44969  -0.44859  -0.44755
 Alpha  occ. eigenvalues --   -0.44474  -0.44189  -0.44138  -0.43984  -0.43576
 Alpha  occ. eigenvalues --   -0.43405  -0.43306  -0.43053  -0.42866  -0.42791
 Alpha  occ. eigenvalues --   -0.42416  -0.42042  -0.41952  -0.41794  -0.41268
 Alpha  occ. eigenvalues --   -0.41029  -0.40977  -0.40924  -0.40812  -0.40515
 Alpha  occ. eigenvalues --   -0.40299  -0.40093  -0.39992  -0.39939  -0.39589
 Alpha  occ. eigenvalues --   -0.39408  -0.38920  -0.38659  -0.38421  -0.38391
 Alpha  occ. eigenvalues --   -0.38145  -0.38054  -0.38002  -0.37741  -0.37282
 Alpha  occ. eigenvalues --   -0.37016  -0.36925  -0.36773  -0.36492  -0.36338
 Alpha  occ. eigenvalues --   -0.36191  -0.36052  -0.35759  -0.35716  -0.35522
 Alpha  occ. eigenvalues --   -0.35220  -0.34899  -0.34860  -0.34606  -0.34421
 Alpha  occ. eigenvalues --   -0.34345  -0.34182  -0.34115  -0.34003  -0.33882
 Alpha  occ. eigenvalues --   -0.33624  -0.33412  -0.33201  -0.33047  -0.32870
 Alpha  occ. eigenvalues --   -0.32671  -0.31831  -0.31468  -0.31304  -0.31116
 Alpha  occ. eigenvalues --   -0.30997  -0.30500  -0.30262  -0.30186  -0.30015
 Alpha  occ. eigenvalues --   -0.29734  -0.28695  -0.28676  -0.28193  -0.27876
 Alpha  occ. eigenvalues --   -0.27530  -0.26382  -0.26174  -0.25987  -0.25540
 Alpha  occ. eigenvalues --   -0.25368  -0.25182  -0.23566  -0.23344  -0.20266
 Alpha  occ. eigenvalues --   -0.18847
 Alpha virt. eigenvalues --   -0.10782  -0.08266  -0.04701  -0.01880  -0.00439
 Alpha virt. eigenvalues --   -0.00337   0.01243   0.01522   0.02251   0.02756
 Alpha virt. eigenvalues --    0.03325   0.03464   0.03537   0.03732   0.04238

 Mulliken charges:
               1
     1  C   -0.000391
     2  C    0.010984
     3  C   -0.077013
     4  C   -0.020221
     5  N   -0.172986
     6  C   -0.012128
     7  C   -0.039889
     8  C    0.009625
     9  C   -0.003245
    10  C   -0.041336
    11  C    0.008556
    12  C    0.035018
    13  C    0.151786
    14  O   -0.243908
    15  O   -0.293462
    16  N   -0.047289
    17  C    0.120946
    18  C   -0.031969
    19  C   -0.013973
    20  C    0.100851
    21  C   -0.070789
    22  C   -0.055736
    23  C   -0.038196
    24  N   -0.228093
    25  C   -0.007851
    26  C   -0.031021
    27  C   -0.070954
    28  C    0.024369
    29  C   -0.103326
    30  C    0.035458
    31  C    0.001672
    32  N   -0.047211
    33  C    0.149697
    34  C   -0.129429
    35  C   -0.048813
    36  C    0.094927
    37  C    0.109236
    38  C    0.091183
    39  O   -0.167453
    40  C    0.064895
    41  C    0.148863
    42  O   -0.173094
    43  O   -0.311182
    44  C    0.157137
    45  C    0.293107
    46  C   -0.079173
    47  C   -0.094618
    48  C   -0.071674
    49  C    0.093652
    50  C   -0.009252
    51  C   -0.049992
    52  C   -0.058364
    53  C    0.110407
    54  C    0.077107
    55  C   -0.044442
    56  C    0.015925
    57  C   -0.077871
    58  C   -0.023816
    59  C    0.060298
    60  C   -0.031661
    61  C    0.175669
    62  C   -0.116026
    63  C   -0.016866
    64  C   -0.045630
    65  H   -0.130656
    66  H   -0.018154
    67  H   -0.086402
    68  H   -0.003983
    69  H    0.011752
    70  H    0.040536
    71  H    0.030108
    72  H    0.040761
    73  H    0.060224
    74  H    0.014760
    75  H    0.009364
    76  H    0.002501
    77  H    0.067114
    78  H    0.040085
    79  H    0.063594
    80  H    0.009041
    81  H    0.040930
    82  H    0.030802
    83  H    0.054847
    84  H    0.057249
    85  H    0.063074
    86  H    0.002457
    87  H    0.017177
    88  H    0.007605
    89  H    0.021224
    90  H    0.002180
    91  H    0.036229
    92  H    0.043343
    93  H    0.017030
    94  H   -0.032767
    95  H    0.049636
    96  H    0.034484
    97  H    0.023515
    98  H    0.064875
    99  H   -0.026781
   100  H   -0.015870
   101  H    0.048616
   102  H    0.063101
   103  H    0.035238
   104  H    0.009027
   105  H   -0.005407
   106  H    0.018546
   107  H    0.006991
   108  H    0.007381
   109  H    0.007545
   110  H   -0.035590
   111  H   -0.025674
   112  H    0.008979
   113  H   -0.021700
   114  H   -0.013133
   115  H   -0.009450
   116  H    0.018390
   117  H    0.005742
   118  H    0.002793
   119  H   -0.029231
   120  H   -0.006849
   121  H    0.047825
   122  H    0.020185
   123  H    0.006392
   124  H   -0.031580
   125  H   -0.007506
   126  H    0.006000
   127  H    0.009437
   128  H   -0.017975
   129  H   -0.076918
   130  H   -0.015829
   131  H    0.000302
   132  H    0.001878
   133  H    0.026605
   134  H    0.017701
   135  H    0.033960
   136  H    0.055641
   137  H    0.190541
   138  H    0.065113
 Sum of Mulliken charges =   0.00000

 Dipole moment (field-independent basis, Debye):
    X=              2.5911    Y=              3.9996    Z=              0.8227  Tot=              4.8361
 Quadrupole moment (field-independent basis, Debye-Ang):
   XX=           -351.0573   YY=           -388.8810   ZZ=           -396.3017
   XY=            -16.0493   XZ=             10.5434   YZ=             -6.0960

 Normal termination of Gaussian 09 at Thu Aug  1 19:04:17 2019.
