 Gaussian 09, Revision D.01,
 Gaussian 09:  ES64L-G09RevD.01 24-Apr-2013

 --------------------------
 # td=(NStates=1) B3LYP/SVP
 --------------------------

 --
 TD
 --
 Symbolic Z-matrix:
 Charge =  0 Multiplicity = 1

                         Standard orientation:
 ---------------------------------------------------------------------
 Center     Atomic      Atomic             Coordinates (Angstroms)
 Number     Number       Type             X           Y           Z
 ---------------------------------------------------------------------
      1          6           0       -5.107341   -2.016889    0.374278
      2          6           0       -4.552124    2.663712    1.353004
      3          6           0       -9.123439    3.453715   -0.314363
      4          6           0       -9.874538   -1.222885   -0.981925
      5          7           0       -5.173858    0.351272    0.678659
      6          6           0       -4.525923   -0.765786    0.806762
      7          6           0       -3.125881   -0.706782    1.164265
      8          6           0       -3.001043    0.719350    1.673803
      9          6           0       -4.356896    1.304558    1.183201
     10          6           0       -2.910413    0.870470    3.287041
     11          6           0       -2.091135   -0.918953   -0.149529
     12          6           0       -0.546417   -0.941202    0.441242
     13          6           0        0.445689   -1.243735   -0.605320
     14          8           0        0.166079   -1.957582   -1.548514
     15          8           0        1.669850   -0.929608   -0.303476
     16          7           0       -6.878803    2.829091    0.298208
     17          6           0       -5.798068    3.462195    0.957143
     18          6           0       -6.079227    4.831685    0.994759
     19          6           0       -7.327548    5.039609    0.552761
     20          6           0       -7.881505    3.755732    0.238000
     21          6           0       -4.997532    5.884921    1.616037
     22          6           0       -7.960603    6.341554    0.590915
     23          6           0       -8.860849    6.867099   -0.314858
     24          7           0       -9.150456    1.013475   -0.536050
     25          6           0       -9.742688    2.237563   -0.618842
     26          6           0      -11.122041    2.131439   -0.981953
     27          6           0      -11.354443    0.777232   -1.185240
     28          6           0      -10.089243    0.130357   -0.887829
     29          6           0      -12.077079    3.194247   -0.907144
     30          6           0      -12.603412    0.072123   -1.520589
     31          6           0      -12.968037    0.030737   -2.984661
     32          7           0       -7.457653   -1.209598   -0.271215
     33          6           0       -8.621200   -1.908444   -0.702644
     34          6           0       -8.379498   -3.363637   -0.695705
     35          6           0       -6.994400   -3.358542   -0.242856
     36          6           0       -6.483177   -2.055015    0.075080
     37          6           0       -9.441052   -4.431669   -1.093648
     38          6           0       -5.900009   -4.316795   -0.018847
     39          8           0       -5.850850   -5.494807   -0.111615
     40          6           0       -4.655989   -3.496162    0.494952
     41          6           0       -4.177272   -3.924481    1.822320
     42          8           0       -4.460625   -3.417852    2.866273
     43          8           0       -3.485095   -5.042728    1.676477
     44          6           0       -3.054136   -5.543447    2.898214
     45          6           0        2.834819   -1.442821   -1.075105
     46          6           0        4.052690   -1.021691   -0.526932
     47          6           0        4.939069   -0.212837   -1.228709
     48          6           0        4.916830    0.141612   -2.686499
     49          6           0        6.286293    0.092750   -0.427426
     50          6           0        7.567312   -0.407081   -0.978487
     51          6           0        8.834416   -0.393298   -0.218923
     52          6           0       10.153626   -0.901965   -0.831345
     53          6           0       10.058451   -2.398626   -0.876851
     54          6           0       11.347511   -0.309191   -0.039296
     55          6           0       12.738988   -0.612848   -0.658487
     56          6           0       13.927686    0.084704    0.131032
     57          6           0       15.294721   -0.177986   -0.382117
     58          6           0       15.681280   -1.702679   -0.195942
     59          6           0       16.238777    0.768533    0.425926
     60          6           0       17.783263    0.877415   -0.214663
     61          6           0       18.541514    1.959138    0.613860
     62          6           0       20.075163    1.835023    0.322538
     63          6           0       20.258069    2.262536   -1.227604
     64          6           0       20.861534    2.710102    1.285403
     65          1           0       -3.879269    3.337397    1.785629
     66          1           0       -9.756311    4.403258   -0.070017
     67          1           0      -10.595675   -1.901391   -1.219384
     68          1           0       -2.898712   -1.523074    1.794518
     69          1           0       -2.183044    1.357257    1.215680
     70          1           0       -2.117767    0.215048    3.665785
     71          1           0       -2.754045    1.962149    3.659467
     72          1           0       -3.947923    0.409532    3.701874
     73          1           0       -2.210385   -1.822999   -0.573877
     74          1           0       -2.040681   -0.034099   -0.725082
     75          1           0       -0.414537   -0.036353    0.845528
     76          1           0       -0.529117   -1.880314    1.137116
     77          1           0       -3.853735    5.507699    1.041989
     78          1           0       -5.245884    6.958327    0.939427
     79          1           0       -4.938877    5.955531    2.774774
     80          1           0       -7.805693    7.000442    1.450815
     81          1           0       -9.323244    6.432236   -1.345698
     82          1           0       -9.312760    7.915936   -0.186978
     83          1           0      -12.349734    3.579307    0.003708
     84          1           0      -11.739783    4.040029   -1.455811
     85          1           0      -13.126859    2.890097   -1.414292
     86          1           0      -12.664781   -0.976163   -1.003832
     87          1           0      -13.523852    0.584096   -0.971682
     88          1           0      -13.098626    0.956981   -3.511667
     89          1           0      -12.170876   -0.675214   -3.391200
     90          1           0      -13.973394   -0.483230   -3.129446
     91          1           0      -10.407795   -4.083514   -0.548468
     92          1           0       -9.507598   -4.307098   -2.253833
     93          1           0       -8.952307   -5.464732   -0.764637
     94          1           0       -3.898224   -3.627159   -0.291321
     95          1           0       -2.156012   -6.245679    2.835587
     96          1           0       -2.703018   -4.628827    3.667477
     97          1           0       -3.829283   -6.112744    3.674903
     98          1           0        2.706545   -2.376248   -1.107125
     99          1           0        2.743725   -0.819611   -2.046520
    100          1           0        4.379685   -1.323856    0.603544
    101          1           0        5.260007    1.154681   -2.822498
    102          1           0        5.426854   -0.303640   -3.535792
    103          1           0        3.846847    0.070148   -3.144840
    104          1           0        6.278226    1.373171   -0.358758
    105          1           0        6.149763   -0.212091    0.721968
    106          1           0        7.426679   -1.524961   -1.342518
    107          1           0        7.768607   -0.028165   -2.064348
    108          1           0        8.825267    0.612020    0.039049
    109          1           0        8.464362   -0.958159    0.652366
    110          1           0        9.895981   -0.431054   -1.866258
    111          1           0        9.231552   -2.705504   -1.564719
    112          1           0       11.031920   -2.769624   -1.252504
    113          1           0       10.256800   -2.566935    0.245559
    114          1           0       11.236028    0.905480    0.056760
    115          1           0       11.428852   -0.750632    1.032721
    116          1           0       12.696581   -1.752878   -0.722867
    117          1           0       12.859923   -0.006653   -1.623081
    118          1           0       13.667620    1.142605   -0.168565
    119          1           0       13.869067   -0.189947    1.160861
    120          1           0       15.397038    0.035886   -1.394412
    121          1           0       14.972937   -2.372290   -0.553936
    122          1           0       16.636053   -1.957486   -0.731849
    123          1           0       15.850612   -1.862225    0.958662
    124          1           0       15.699828    1.758017    0.567985
    125          1           0       16.371347    0.340076    1.385401
    126          1           0       18.187973   -0.112081   -0.347383
    127          1           0       17.370200    1.146813   -1.219380
    128          1           0       18.293974    3.007980    0.309418
    129          1           0       18.237525    1.832064    1.678501
    130          1           0       20.353991    0.776335    0.361541
    131          1           0       19.891839    3.208227   -1.398139
    132          1           0       21.322668    2.200520   -1.653079
    133          1           0       19.646654    1.439088   -1.864447
    134          1           0       20.598893    2.263682    2.200893
    135          1           0       21.862558    2.525086    1.177063
    136          1           0       20.467819    3.749589    1.218878
    137          1           0       -7.115118    1.660486    0.431688
    138          1           0       -7.598610   -0.257718   -0.346456
 ---------------------------------------------------------------------

 SCF Done:  E(RB3LYP) =  -2733.03719106     A.U. after   17 cycles

 Excitation energies and oscillator strengths:

 Excited State   1:      Singlet-A      2.0205 eV  613.64 nm  f=0.2075  <S**2>=0.000
     235 -> 237       -0.23827
     235 -> 238       -0.25833
     236 -> 237        0.59013
     236 -> 238       -0.16221
 This state for optimization and/or second-order correction.
 Total Energy, E(TD-HF/TD-KS) =  -2732.96294045
 Copying the excited state density for this state as the 1-particle RhoCI density.

 The electronic state is 1-A.
 Alpha  occ. eigenvalues --  -19.19155 -19.16611 -19.12517 -19.11928 -19.10042
 Alpha  occ. eigenvalues --  -14.36761 -14.36167 -14.32231 -14.29552 -10.31321
 Alpha  occ. eigenvalues --  -10.29967 -10.27290 -10.26206 -10.24700 -10.23880
 Alpha  occ. eigenvalues --  -10.23759 -10.23636 -10.23276 -10.22838 -10.22829
 Alpha  occ. eigenvalues --  -10.22758 -10.22747 -10.22671 -10.22618 -10.22374
 Alpha  occ. eigenvalues --  -10.21754 -10.21401 -10.20850 -10.20766 -10.20642
 Alpha  occ. eigenvalues --  -10.20603 -10.20553 -10.20538 -10.20526 -10.20493
 Alpha  occ. eigenvalues --  -10.20268 -10.20164 -10.20037 -10.20033 -10.20016
 Alpha  occ. eigenvalues --  -10.19899 -10.19703 -10.19695 -10.19671 -10.19662
 Alpha  occ. eigenvalues --  -10.19525 -10.19518 -10.19420 -10.19262 -10.19072
 Alpha  occ. eigenvalues --  -10.18965 -10.18836 -10.18683 -10.18583 -10.18282
 Alpha  occ. eigenvalues --  -10.18232 -10.18219 -10.18144 -10.18103 -10.18057
 Alpha  occ. eigenvalues --  -10.17834 -10.17789 -10.17235 -10.16589  -1.12163
 Alpha  occ. eigenvalues --   -1.09166  -1.04210  -1.02160  -0.98804  -0.97822
 Alpha  occ. eigenvalues --   -0.97097  -0.96271  -0.94076  -0.84113  -0.83381
 Alpha  occ. eigenvalues --   -0.82349  -0.81484  -0.81194  -0.80377  -0.80007
 Alpha  occ. eigenvalues --   -0.79712  -0.79619  -0.79076  -0.78495  -0.78094
 Alpha  occ. eigenvalues --   -0.76673  -0.75995  -0.75677  -0.74535  -0.74146
 Alpha  occ. eigenvalues --   -0.73674  -0.73290  -0.71948  -0.71776  -0.69731
 Alpha  occ. eigenvalues --   -0.69304  -0.68974  -0.68241  -0.67870  -0.67530
 Alpha  occ. eigenvalues --   -0.67026  -0.66813  -0.66006  -0.65319  -0.64942
 Alpha  occ. eigenvalues --   -0.63806  -0.63089  -0.62642  -0.61147  -0.61022
 Alpha  occ. eigenvalues --   -0.60885  -0.58556  -0.58063  -0.57589  -0.57469
 Alpha  occ. eigenvalues --   -0.56658  -0.56025  -0.55951  -0.55723  -0.55131
 Alpha  occ. eigenvalues --   -0.54939  -0.54336  -0.54223  -0.53417  -0.52941
 Alpha  occ. eigenvalues --   -0.52597  -0.52140  -0.51810  -0.51635  -0.51061
 Alpha  occ. eigenvalues --   -0.50735  -0.49570  -0.49177  -0.48869  -0.48660
 Alpha  occ. eigenvalues --   -0.48224  -0.48137  -0.47566  -0.47222  -0.46938
 Alpha  occ. eigenvalues --   -0.46806  -0.46174  -0.45999  -0.45728  -0.45522
 Alpha  occ. eigenvalues --   -0.45231  -0.45070  -0.44839  -0.44614  -0.44506
 Alpha  occ. eigenvalues --   -0.44050  -0.43739  -0.43463  -0.43346  -0.43197
 Alpha  occ. eigenvalues --   -0.43077  -0.42873  -0.42665  -0.42626  -0.42455
 Alpha  occ. eigenvalues --   -0.42320  -0.42006  -0.41863  -0.41708  -0.41581
 Alpha  occ. eigenvalues --   -0.41027  -0.40927  -0.40675  -0.40588  -0.40459
 Alpha  occ. eigenvalues --   -0.40265  -0.39930  -0.39767  -0.39474  -0.39286
 Alpha  occ. eigenvalues --   -0.39087  -0.38895  -0.38840  -0.38390  -0.38060
 Alpha  occ. eigenvalues --   -0.37883  -0.37864  -0.37809  -0.37714  -0.37421
 Alpha  occ. eigenvalues --   -0.37297  -0.37168  -0.37052  -0.36938  -0.36805
 Alpha  occ. eigenvalues --   -0.36500  -0.36024  -0.35811  -0.35760  -0.35398
 Alpha  occ. eigenvalues --   -0.35263  -0.35098  -0.34983  -0.34873  -0.34609
 Alpha  occ. eigenvalues --   -0.34291  -0.34224  -0.33927  -0.33746  -0.33516
 Alpha  occ. eigenvalues --   -0.33453  -0.33204  -0.32875  -0.32467  -0.32430
 Alpha  occ. eigenvalues --   -0.32342  -0.32188  -0.31914  -0.31542  -0.31178
 Alpha  occ. eigenvalues --   -0.31021  -0.30454  -0.30320  -0.30250  -0.29727
 Alpha  occ. eigenvalues --   -0.29573  -0.29150  -0.28513  -0.27813  -0.27730
 Alpha  occ. eigenvalues --   -0.27442  -0.26745  -0.26674  -0.25972  -0.25714
 Alpha  occ. eigenvalues --   -0.25250  -0.24795  -0.24629  -0.22222  -0.19805
 Alpha  occ. eigenvalues --   -0.18665
 Alpha virt. eigenvalues --   -0.10464  -0.07618  -0.03792  -0.02740  -0.02022
 Alpha virt. eigenvalues --   -0.00035   0.00516   0.00911   0.02101   0.03236
 Alpha virt. eigenvalues --    0.03685   0.03870   0.04029   0.04475   0.04890

 Mulliken charges:
               1
     1  C   -0.080309
     2  C   -0.034699
     3  C   -0.108330
     4  C   -0.030705
     5  N   -0.117124
     6  C   -0.042665
     7  C    0.019947
     8  C   -0.079872
     9  C    0.072464
    10  C   -0.000290
    11  C    0.100335
    12  C    0.044914
    13  C    0.143679
    14  O   -0.270522
    15  O   -0.317580
    16  N   -0.172596
    17  C    0.031248
    18  C   -0.095549
    19  C    0.088257
    20  C    0.023818
    21  C   -0.080042
    22  C   -0.074018
    23  C   -0.113220
    24  N   -0.223405
    25  C    0.090524
    26  C   -0.110029
    27  C   -0.047165
    28  C    0.111251
    29  C    0.114239
    30  C   -0.029278
    31  C    0.028152
    32  N    0.004399
    33  C   -0.017407
    34  C   -0.117173
    35  C   -0.083484
    36  C    0.126606
    37  C    0.028736
    38  C    0.035262
    39  O   -0.128779
    40  C    0.006601
    41  C    0.194858
    42  O   -0.208606
    43  O   -0.226095
    44  C    0.064094
    45  C    0.432114
    46  C   -0.154848
    47  C   -0.099308
    48  C    0.047704
    49  C   -0.016282
    50  C   -0.035676
    51  C    0.094302
    52  C   -0.081426
    53  C    0.062384
    54  C   -0.042357
    55  C   -0.004389
    56  C    0.038680
    57  C   -0.025195
    58  C    0.015406
    59  C   -0.009625
    60  C    0.009010
    61  C    0.040451
    62  C   -0.145797
    63  C   -0.014386
    64  C    0.153962
    65  H   -0.055394
    66  H    0.020202
    67  H   -0.086574
    68  H   -0.027423
    69  H    0.018229
    70  H    0.020866
    71  H    0.038977
    72  H    0.044123
    73  H   -0.005676
    74  H    0.006643
    75  H   -0.019115
    76  H    0.054180
    77  H    0.056864
    78  H    0.061897
    79  H    0.081794
    80  H    0.021760
    81  H    0.059799
    82  H    0.036283
    83  H    0.003562
    84  H   -0.002158
    85  H    0.012515
    86  H    0.016071
    87  H    0.004879
    88  H    0.018143
    89  H    0.015711
    90  H    0.008585
    91  H    0.065235
    92  H    0.066234
    93  H    0.080017
    94  H    0.048198
    95  H    0.043411
    96  H    0.045683
    97  H    0.050175
    98  H   -0.047370
    99  H    0.027668
   100  H    0.032263
   101  H    0.009560
   102  H    0.036484
   103  H    0.016121
   104  H    0.021015
   105  H    0.021658
   106  H   -0.013805
   107  H   -0.011764
   108  H   -0.033583
   109  H   -0.024144
   110  H   -0.005774
   111  H    0.038112
   112  H    0.001352
   113  H    0.009381
   114  H    0.012548
   115  H    0.012530
   116  H    0.016498
   117  H    0.001861
   118  H    0.001972
   119  H   -0.015746
   120  H   -0.040202
   121  H   -0.006510
   122  H    0.011906
   123  H    0.012992
   124  H    0.003726
   125  H   -0.021593
   126  H    0.001997
   127  H    0.008547
   128  H    0.001282
   129  H    0.005678
   130  H   -0.007954
   131  H   -0.008171
   132  H    0.014670
   133  H    0.023214
   134  H   -0.019210
   135  H   -0.016481
   136  H    0.010344
   137  H    0.246396
   138  H    0.083667
 Sum of Mulliken charges =   0.00000

 Dipole moment (field-independent basis, Debye):
    X=              3.3311    Y=              4.1403    Z=              0.8376  Tot=              5.3796
 Quadrupole moment (field-independent basis, Debye-Ang):
   XX=           -341.7202   YY=           -386.3868   ZZ=           -393.8014
   XY=            -26.7365   XZ=              2.2231   YZ=             -0.6658

 Normal termination of Gaussian 09 at Fri Aug  2 06:33:16 2019.
