 Gaussian 09, Revision D.01,
 Gaussian 09:  ES64L-G09RevD.01 24-Apr-2013

 --------------------------
 # td=(NStates=1) B3LYP/SVP
 --------------------------

 --
 TD
 --
 Symbolic Z-matrix:
 Charge =  0 Multiplicity = 1

                         Standard orientation:
 ---------------------------------------------------------------------
 Center     Atomic      Atomic             Coordinates (Angstroms)
 Number     Number       Type             X           Y           Z
 ---------------------------------------------------------------------
      1          6           0       -5.123038   -1.890018    0.458040
      2          6           0       -4.652974    2.836122    1.311104
      3          6           0       -9.404281    3.340343   -0.137889
      4          6           0       -9.782061   -1.446832   -0.799011
      5          7           0       -5.153886    0.482537    0.641902
      6          6           0       -4.501870   -0.720877    0.643389
      7          6           0       -3.017867   -0.582974    1.114729
      8          6           0       -2.986763    0.921501    1.657058
      9          6           0       -4.345001    1.488624    1.156051
     10          6           0       -2.973591    0.965885    3.203240
     11          6           0       -1.996615   -0.777776   -0.000956
     12          6           0       -0.499598   -0.830539    0.493474
     13          6           0        0.438280   -1.070611   -0.622810
     14          8           0        0.149896   -1.341815   -1.795588
     15          8           0        1.742950   -0.796919   -0.174475
     16          7           0       -7.102762    2.762367    0.520128
     17          6           0       -6.028453    3.421123    0.906023
     18          6           0       -6.267670    4.719285    1.012282
     19          6           0       -7.600924    4.947362    0.510748
     20          6           0       -8.171393    3.595648    0.249694
     21          6           0       -5.354092    5.807213    1.354975
     22          6           0       -8.334775    6.287334    0.384831
     23          6           0       -9.098897    6.630091   -0.701172
     24          7           0       -9.234761    0.907751   -0.441769
     25          6           0       -9.990012    1.994229   -0.442424
     26          6           0      -11.412317    1.823111   -0.893744
     27          6           0      -11.448556    0.428187   -0.945373
     28          6           0      -10.145563   -0.137482   -0.790860
     29          6           0      -12.408763    2.887614   -0.948972
     30          6           0      -12.668235   -0.394219   -1.462084
     31          6           0      -12.825348   -0.519384   -2.963481
     32          7           0       -7.477562   -1.242067   -0.248475
     33          6           0       -8.505259   -1.912335   -0.635563
     34          6           0       -8.197672   -3.418083   -0.558029
     35          6           0       -6.860487   -3.369948   -0.181051
     36          6           0       -6.408189   -2.045741    0.032454
     37          6           0       -9.087364   -4.519525   -0.897009
     38          6           0       -5.685413   -4.243928    0.049763
     39          8           0       -5.609430   -5.497308    0.034001
     40          6           0       -4.463951   -3.346174    0.474539
     41          6           0       -3.872044   -3.880615    1.770959
     42          8           0       -4.128145   -3.328333    2.830734
     43          8           0       -3.050918   -4.927117    1.553380
     44          6           0       -2.594937   -5.419325    2.682280
     45          6           0        2.679919   -0.981346   -1.261114
     46          6           0        4.035385   -0.892107   -0.697687
     47          6           0        4.995284    0.076264   -1.065116
     48          6           0        4.919803    0.991859   -2.373974
     49          6           0        6.281261    0.187773   -0.251288
     50          6           0        7.524275   -0.423637   -1.067449
     51          6           0        8.830546   -0.462607   -0.241165
     52          6           0       10.098927   -0.760690   -0.893029
     53          6           0       10.175748   -2.166846   -1.242484
     54          6           0       11.355116   -0.420160   -0.017745
     55          6           0       12.603964   -0.636391   -0.716857
     56          6           0       13.816598   -0.065352    0.243516
     57          6           0       15.254191   -0.227281   -0.362446
     58          6           0       15.762877   -1.571404   -0.522938
     59          6           0       16.181453    0.684814    0.341445
     60          6           0       17.714908    0.626845   -0.060465
     61          6           0       18.567691    1.747218    0.672494
     62          6           0       20.074085    1.723997    0.373969
     63          6           0       20.392232    2.089652   -1.070879
     64          6           0       20.769109    2.566771    1.385087
     65          1           0       -3.747435    3.432393    1.641458
     66          1           0      -10.031137    4.179504   -0.282897
     67          1           0      -10.610017   -2.185962   -0.962366
     68          1           0       -2.814423   -1.276069    1.599051
     69          1           0       -2.048868    1.455650    1.339752
     70          1           0       -1.852054    0.619385    3.496184
     71          1           0       -3.060291    2.028563    3.778381
     72          1           0       -3.625372    0.362082    3.809667
     73          1           0       -2.520652   -1.684691   -0.321544
     74          1           0       -1.988443    0.033651   -0.727440
     75          1           0       -0.203616    0.059126    1.135873
     76          1           0       -0.379846   -1.568777    1.245400
     77          1           0       -4.562936    5.836905    0.549902
     78          1           0       -5.711126    6.765426    1.433256
     79          1           0       -5.208910    5.539543    2.483219
     80          1           0       -7.944791    7.149650    1.022783
     81          1           0       -9.401716    5.884234   -1.501457
     82          1           0       -9.282834    7.690820   -0.786354
     83          1           0      -12.487235    3.598451   -0.071024
     84          1           0      -12.395018    3.552046   -1.909215
     85          1           0      -13.494166    2.509650   -0.866642
     86          1           0      -12.688577   -1.420260   -0.957447
     87          1           0      -13.554298    0.173491   -1.051431
     88          1           0      -13.208205    0.557829   -3.566886
     89          1           0      -11.748874   -0.727828   -3.505055
     90          1           0      -13.543571   -1.384181   -3.049575
     91          1           0      -10.148956   -4.659630   -0.467056
     92          1           0       -9.266113   -4.576184   -2.050738
     93          1           0       -8.433358   -5.488283   -0.592303
     94          1           0       -3.710443   -3.520266   -0.409616
     95          1           0       -2.299993   -6.621641    2.362600
     96          1           0       -1.581836   -4.768298    2.922182
     97          1           0       -3.215018   -5.404833    3.790229
     98          1           0        2.361670   -2.096360   -1.627307
     99          1           0        2.515997   -0.239631   -2.081563
    100          1           0        4.340179   -1.465048    0.284448
    101          1           0        4.995201    2.087623   -2.003020
    102          1           0        5.690435    0.591425   -3.337233
    103          1           0        3.768493    0.988160   -2.782179
    104          1           0        6.641900    1.196362    0.043975
    105          1           0        6.106694   -0.570879    0.616110
    106          1           0        7.291494   -1.436414   -1.333058
    107          1           0        7.633935    0.004180   -2.037413
    108          1           0        8.821657    0.615009    0.265007
    109          1           0        8.995641   -0.969191    0.823799
    110          1           0       10.189972   -0.043997   -1.770317
    111          1           0        9.257900   -2.318990   -1.860276
    112          1           0       11.114256   -2.542193   -1.781901
    113          1           0       10.140173   -2.850973   -0.485215
    114          1           0       11.259151    0.605089    0.238727
    115          1           0       11.067400   -0.881626    1.044231
    116          1           0       12.748960   -1.714276   -1.160216
    117          1           0       12.557896    0.091045   -1.668781
    118          1           0       13.655356    1.122410    0.273997
    119          1           0       13.892617   -0.492496    1.164457
    120          1           0       15.042716    0.376337   -1.341040
    121          1           0       14.795857   -2.060977   -0.932844
    122          1           0       16.588363   -1.692215   -1.249855
    123          1           0       16.287799   -1.969583    0.517938
    124          1           0       15.957001    1.841229    0.266820
    125          1           0       16.287672    0.195473    1.377296
    126          1           0       18.082417   -0.375669    0.096856
    127          1           0       17.972585    0.910471   -1.314271
    128          1           0       18.194062    2.798529    0.521278
    129          1           0       18.514354    1.582874    1.850587
    130          1           0       20.427789    0.826430    0.574877
    131          1           0       19.986645    3.113671   -1.333756
    132          1           0       21.476212    2.061770   -1.220694
    133          1           0       19.747773    1.546235   -1.797026
    134          1           0       20.363476    1.991176    2.242271
    135          1           0       21.978042    2.673016    1.243083
    136          1           0       20.150617    3.546815    1.540484
    137          1           0       -7.114855    1.817702    0.036836
    138          1           0       -7.613475   -0.174133   -0.265421
 ---------------------------------------------------------------------

 SCF Done:  E(RB3LYP) =  -2732.96384166     A.U. after   17 cycles

 Excitation energies and oscillator strengths:

 Excited State   1:      Singlet-A      2.0158 eV  615.06 nm  f=0.2152  <S**2>=0.000
     235 -> 237       -0.17718
     235 -> 238        0.24867
     236 -> 237        0.62184
     236 -> 238        0.14474
 This state for optimization and/or second-order correction.
 Total Energy, E(TD-HF/TD-KS) =  -2732.88976180
 Copying the excited state density for this state as the 1-particle RhoCI density.

 The electronic state is 1-A.
 Alpha  occ. eigenvalues --  -19.20162 -19.17455 -19.13557 -19.13377 -19.12241
 Alpha  occ. eigenvalues --  -14.37629 -14.36969 -14.31755 -14.30730 -10.32852
 Alpha  occ. eigenvalues --  -10.32001 -10.28373 -10.27452 -10.25183 -10.24121
 Alpha  occ. eigenvalues --  -10.23479 -10.23121 -10.23109 -10.22999 -10.22915
 Alpha  occ. eigenvalues --  -10.22833 -10.22413 -10.22213 -10.22184 -10.22171
 Alpha  occ. eigenvalues --  -10.21823 -10.21639 -10.21479 -10.21332 -10.20963
 Alpha  occ. eigenvalues --  -10.20955 -10.20941 -10.20895 -10.20795 -10.20501
 Alpha  occ. eigenvalues --  -10.20438 -10.20402 -10.20169 -10.20163 -10.20109
 Alpha  occ. eigenvalues --  -10.20084 -10.20026 -10.19958 -10.19940 -10.19876
 Alpha  occ. eigenvalues --  -10.19520 -10.19413 -10.19374 -10.19366 -10.19354
 Alpha  occ. eigenvalues --  -10.19342 -10.19321 -10.19168 -10.19065 -10.19038
 Alpha  occ. eigenvalues --  -10.18893 -10.18792 -10.18435 -10.18160 -10.18034
 Alpha  occ. eigenvalues --  -10.17969 -10.17390 -10.17005 -10.16922  -1.13620
 Alpha  occ. eigenvalues --   -1.07740  -1.02567  -1.00896  -1.00134  -0.99859
 Alpha  occ. eigenvalues --   -0.99527  -0.93419  -0.92503  -0.85405  -0.83250
 Alpha  occ. eigenvalues --   -0.82022  -0.81900  -0.81819  -0.81048  -0.80932
 Alpha  occ. eigenvalues --   -0.80383  -0.80228  -0.79292  -0.79036  -0.77435
 Alpha  occ. eigenvalues --   -0.77037  -0.76158  -0.75887  -0.75182  -0.74297
 Alpha  occ. eigenvalues --   -0.73894  -0.72439  -0.72294  -0.71517  -0.70840
 Alpha  occ. eigenvalues --   -0.70080  -0.69756  -0.68755  -0.67570  -0.67525
 Alpha  occ. eigenvalues --   -0.67323  -0.66842  -0.66052  -0.65514  -0.64329
 Alpha  occ. eigenvalues --   -0.63605  -0.62686  -0.62224  -0.61321  -0.60324
 Alpha  occ. eigenvalues --   -0.59969  -0.59049  -0.58534  -0.58278  -0.56980
 Alpha  occ. eigenvalues --   -0.56611  -0.56131  -0.55986  -0.55714  -0.55635
 Alpha  occ. eigenvalues --   -0.55522  -0.55252  -0.53453  -0.53195  -0.52912
 Alpha  occ. eigenvalues --   -0.52724  -0.51638  -0.51580  -0.51085  -0.50466
 Alpha  occ. eigenvalues --   -0.50116  -0.49517  -0.49327  -0.49125  -0.48691
 Alpha  occ. eigenvalues --   -0.48409  -0.47900  -0.47557  -0.47480  -0.47254
 Alpha  occ. eigenvalues --   -0.46742  -0.46583  -0.46419  -0.45980  -0.45806
 Alpha  occ. eigenvalues --   -0.45703  -0.45387  -0.45148  -0.44643  -0.44587
 Alpha  occ. eigenvalues --   -0.44340  -0.44000  -0.43878  -0.43783  -0.43613
 Alpha  occ. eigenvalues --   -0.43339  -0.43169  -0.42949  -0.42651  -0.42443
 Alpha  occ. eigenvalues --   -0.42255  -0.42111  -0.41999  -0.41436  -0.41403
 Alpha  occ. eigenvalues --   -0.41250  -0.41078  -0.40895  -0.40538  -0.40422
 Alpha  occ. eigenvalues --   -0.40238  -0.40099  -0.39768  -0.39235  -0.39050
 Alpha  occ. eigenvalues --   -0.38961  -0.38857  -0.38662  -0.38533  -0.38316
 Alpha  occ. eigenvalues --   -0.38140  -0.37985  -0.37674  -0.37601  -0.37523
 Alpha  occ. eigenvalues --   -0.37273  -0.37048  -0.36821  -0.36592  -0.36366
 Alpha  occ. eigenvalues --   -0.36296  -0.35991  -0.35872  -0.35627  -0.35468
 Alpha  occ. eigenvalues --   -0.35353  -0.35240  -0.34851  -0.34797  -0.34592
 Alpha  occ. eigenvalues --   -0.34465  -0.34046  -0.33886  -0.33775  -0.33327
 Alpha  occ. eigenvalues --   -0.33105  -0.32653  -0.32606  -0.32555  -0.32430
 Alpha  occ. eigenvalues --   -0.32302  -0.31870  -0.31755  -0.31122  -0.30895
 Alpha  occ. eigenvalues --   -0.30686  -0.30463  -0.30178  -0.30115  -0.30055
 Alpha  occ. eigenvalues --   -0.29506  -0.28923  -0.28821  -0.28581  -0.28300
 Alpha  occ. eigenvalues --   -0.27741  -0.27628  -0.26941  -0.26318  -0.25969
 Alpha  occ. eigenvalues --   -0.24980  -0.24108  -0.24079  -0.23170  -0.20533
 Alpha  occ. eigenvalues --   -0.18476
 Alpha virt. eigenvalues --   -0.10359  -0.08246  -0.04769  -0.02274  -0.01986
 Alpha virt. eigenvalues --   -0.01479  -0.01264   0.00476   0.02458   0.03124
 Alpha virt. eigenvalues --    0.03424   0.03617   0.03703   0.04281   0.04353

 Mulliken charges:
               1
     1  C    0.062570
     2  C   -0.082350
     3  C   -0.078326
     4  C   -0.092491
     5  N   -0.214532
     6  C   -0.155048
     7  C    0.239748
     8  C   -0.034060
     9  C    0.035126
    10  C   -0.018530
    11  C    0.048163
    12  C    0.048178
    13  C    0.216975
    14  O   -0.245864
    15  O   -0.348690
    16  N   -0.028298
    17  C    0.073574
    18  C   -0.164791
    19  C   -0.004227
    20  C    0.125442
    21  C    0.134236
    22  C   -0.050456
    23  C   -0.037946
    24  N   -0.269320
    25  C    0.011396
    26  C   -0.077351
    27  C   -0.103211
    28  C    0.100795
    29  C    0.015912
    30  C    0.035801
    31  C   -0.064875
    32  N    0.022947
    33  C    0.020624
    34  C   -0.123081
    35  C    0.038147
    36  C    0.102158
    37  C   -0.030885
    38  C    0.054926
    39  O   -0.212416
    40  C   -0.075712
    41  C    0.220322
    42  O   -0.222395
    43  O   -0.189926
    44  C    0.017256
    45  C    0.236148
    46  C   -0.070677
    47  C   -0.151996
    48  C   -0.055709
    49  C    0.053294
    50  C    0.063381
    51  C   -0.033580
    52  C   -0.062602
    53  C    0.090980
    54  C    0.019630
    55  C   -0.008161
    56  C    0.018704
    57  C   -0.057714
    58  C    0.021582
    59  C   -0.003628
    60  C   -0.029279
    61  C   -0.068644
    62  C    0.005381
    63  C    0.047605
    64  C   -0.000818
    65  H    0.006150
    66  H   -0.046351
    67  H   -0.011335
    68  H   -0.211150
    69  H    0.008724
    70  H    0.008360
    71  H    0.021674
    72  H    0.031455
    73  H    0.005648
    74  H    0.005792
    75  H    0.040648
    76  H    0.010085
    77  H    0.049098
    78  H   -0.029656
    79  H    0.039904
    80  H    0.023449
    81  H    0.055175
    82  H    0.029887
    83  H    0.034289
    84  H    0.037784
    85  H    0.013909
    86  H    0.012746
    87  H    0.007126
    88  H    0.037670
    89  H    0.038934
    90  H    0.033886
    91  H    0.052360
    92  H    0.050954
    93  H    0.068666
    94  H    0.092793
    95  H    0.056808
    96  H    0.027762
    97  H    0.078296
    98  H    0.039712
    99  H    0.024418
   100  H    0.019745
   101  H    0.044744
   102  H    0.081351
   103  H    0.029220
   104  H    0.020674
   105  H    0.016772
   106  H   -0.009553
   107  H   -0.013189
   108  H   -0.022183
   109  H   -0.006446
   110  H   -0.016396
   111  H   -0.005135
   112  H    0.011330
   113  H   -0.030712
   114  H   -0.032460
   115  H   -0.004742
   116  H    0.037784
   117  H    0.012018
   118  H    0.018600
   119  H   -0.025950
   120  H   -0.015495
   121  H    0.018847
   122  H    0.026313
   123  H    0.021950
   124  H    0.019474
   125  H   -0.004846
   126  H   -0.001993
   127  H    0.007868
   128  H    0.008337
   129  H   -0.002504
   130  H   -0.054501
   131  H   -0.010838
   132  H    0.010331
   133  H    0.001243
   134  H   -0.005744
   135  H    0.041062
   136  H    0.003378
   137  H    0.179419
   138  H    0.173140
 Sum of Mulliken charges =   0.00000

 Dipole moment (field-independent basis, Debye):
    X=             -0.1040    Y=              4.9645    Z=             -0.2182  Tot=              4.9704
 Quadrupole moment (field-independent basis, Debye-Ang):
   XX=           -357.4639   YY=           -381.5287   ZZ=           -402.8490
   XY=            -33.5760   XZ=             10.3789   YZ=             -2.9379

 Normal termination of Gaussian 09 at Fri Aug  2 16:08:04 2019.
