 Gaussian 09, Revision D.01,
 Gaussian 09:  ES64L-G09RevD.01 24-Apr-2013

 --------------------------
 # td=(NStates=1) B3LYP/SVP
 --------------------------

 --
 TD
 --
 Symbolic Z-matrix:
 Charge =  0 Multiplicity = 1

                         Standard orientation:
 ---------------------------------------------------------------------
 Center     Atomic      Atomic             Coordinates (Angstroms)
 Number     Number       Type             X           Y           Z
 ---------------------------------------------------------------------
      1          6           0       -5.160506   -1.924834    0.402178
      2          6           0       -4.644598    2.783628    1.271866
      3          6           0       -9.436874    3.383834   -0.165737
      4          6           0       -9.844400   -1.437210   -0.836222
      5          7           0       -5.214847    0.487445    0.778479
      6          6           0       -4.561033   -0.716188    0.800141
      7          6           0       -3.151272   -0.542843    1.276275
      8          6           0       -3.084221    0.882311    1.781057
      9          6           0       -4.438321    1.441181    1.294207
     10          6           0       -2.881097    1.077665    3.288317
     11          6           0       -2.152423   -0.787851    0.130132
     12          6           0       -0.596318   -0.800283    0.634056
     13          6           0        0.322017   -1.146609   -0.524305
     14          8           0        0.007544   -1.515865   -1.615127
     15          8           0        1.642933   -0.828250   -0.157528
     16          7           0       -7.112341    2.779389    0.513970
     17          6           0       -5.942665    3.370813    0.904775
     18          6           0       -6.135845    4.809359    0.984324
     19          6           0       -7.512852    5.052420    0.463287
     20          6           0       -8.107274    3.756109    0.217521
     21          6           0       -5.199097    5.900294    1.346447
     22          6           0       -8.193644    6.369411    0.225003
     23          6           0       -9.107373    6.648186   -0.701197
     24          7           0       -9.242663    0.892794   -0.413772
     25          6           0       -9.929045    2.091214   -0.484816
     26          6           0      -11.340234    1.804805   -0.836317
     27          6           0      -11.478934    0.490431   -0.953229
     28          6           0      -10.192338   -0.137342   -0.765807
     29          6           0      -12.271897    2.924389   -1.122747
     30          6           0      -12.711825   -0.268423   -1.578254
     31          6           0      -12.588670   -0.505597   -3.047086
     32          7           0       -7.476772   -1.244084   -0.194379
     33          6           0       -8.593811   -1.994599   -0.605842
     34          6           0       -8.291346   -3.368014   -0.571768
     35          6           0       -6.921141   -3.400945   -0.232626
     36          6           0       -6.437921   -2.101840   -0.039615
     37          6           0       -9.099410   -4.567860   -0.979454
     38          6           0       -5.773651   -4.267209    0.044900
     39          8           0       -5.666699   -5.519948   -0.067839
     40          6           0       -4.483054   -3.313765    0.370701
     41          6           0       -3.924764   -3.781493    1.669174
     42          8           0       -3.992855   -3.392752    2.833926
     43          8           0       -3.008543   -4.755558    1.421017
     44          6           0       -2.299639   -5.380347    2.432572
     45          6           0        2.563967   -1.230270   -1.049836
     46          6           0        4.022053   -0.812111   -0.511847
     47          6           0        5.000145   -0.080907   -1.071657
     48          6           0        4.985129    0.467808   -2.456184
     49          6           0        6.218039    0.242226   -0.257061
     50          6           0        7.531397   -0.437056   -0.953151
     51          6           0        8.775106   -0.301630   -0.096470
     52          6           0       10.061666   -0.727494   -0.773300
     53          6           0       10.011181   -2.235139   -0.973725
     54          6           0       11.359357   -0.410535   -0.040148
     55          6           0       12.735404   -0.602531   -0.566332
     56          6           0       13.873684    0.065449    0.300924
     57          6           0       15.294999   -0.194723   -0.278219
     58          6           0       15.632027   -1.622089   -0.438170
     59          6           0       16.340229    0.568594    0.612260
     60          6           0       17.752378    0.596456   -0.088513
     61          6           0       18.697006    1.673316    0.634121
     62          6           0       20.174839    1.790678   -0.023329
     63          6           0       20.117727    2.443156   -1.407515
     64          6           0       20.957422    2.518926    0.953683
     65          1           0       -3.791141    3.509332    1.485891
     66          1           0       -9.857643    4.114401   -0.465259
     67          1           0      -10.710355   -2.153232   -0.965880
     68          1           0       -3.047922   -1.131431    2.269187
     69          1           0       -2.160958    1.242401    1.228645
     70          1           0       -2.008764    0.711572    3.731403
     71          1           0       -3.048704    2.050244    3.550590
     72          1           0       -3.765830    0.510966    3.657279
     73          1           0       -2.342412   -1.744759   -0.332627
     74          1           0       -2.228083    0.005172   -0.623207
     75          1           0       -0.461083    0.079155    1.228551
     76          1           0       -0.772672   -1.740280    1.416124
     77          1           0       -4.417620    6.003926    0.700429
     78          1           0       -5.898870    6.887853    1.465301
     79          1           0       -4.968466    5.533739    2.342289
     80          1           0       -7.773666    7.072956    0.897370
     81          1           0       -9.525347    5.817995   -1.356614
     82          1           0       -9.596336    7.658516   -0.845910
     83          1           0      -12.229890    3.768394   -0.221973
     84          1           0      -12.059609    3.351000   -2.069140
     85          1           0      -13.364902    2.700323   -1.063272
     86          1           0      -12.876737   -1.219482   -1.163705
     87          1           0      -13.711228    0.217721   -1.190064
     88          1           0      -12.761708    0.343340   -3.663414
     89          1           0      -11.772697   -1.156395   -3.389002
     90          1           0      -13.449777   -1.204052   -3.354362
     91          1           0      -10.107327   -4.643639   -0.469585
     92          1           0       -9.373129   -4.612256   -2.016092
     93          1           0       -8.427705   -5.423537   -0.773451
     94          1           0       -3.879897   -3.467162   -0.418005
     95          1           0       -1.854653   -6.386480    1.719397
     96          1           0       -1.461796   -4.841611    2.981786
     97          1           0       -3.173380   -5.667327    3.204087
     98          1           0        2.547213   -2.422298   -1.194557
     99          1           0        2.422475   -0.743997   -1.970721
    100          1           0        4.113869   -1.187556    0.535139
    101          1           0        5.270617    1.629571   -2.537032
    102          1           0        5.642559    0.156346   -3.334946
    103          1           0        3.962051    0.546293   -2.774925
    104          1           0        6.221843    1.158454   -0.300384
    105          1           0        6.109502   -0.057619    0.655819
    106          1           0        7.354288   -1.393509   -1.265935
    107          1           0        7.601979    0.400104   -1.782645
    108          1           0        8.739653    0.857718    0.251397
    109          1           0        8.728132   -0.825949    0.958099
    110          1           0       10.012915   -0.379068   -1.899446
    111          1           0        9.007401   -2.633644   -1.302928
    112          1           0       11.024291   -2.560401   -1.445734
    113          1           0       10.123917   -2.797695   -0.026076
    114          1           0       11.361206    0.743787    0.156730
    115          1           0       11.299764   -0.778614    0.937132
    116          1           0       12.752138   -1.755203   -0.642122
    117          1           0       12.950697    0.025584   -1.408749
    118          1           0       13.700798    1.163904    0.484460
    119          1           0       13.845072   -0.334954    1.256235
    120          1           0       15.196054    0.248038   -1.260709
    121          1           0       15.070728   -2.053529   -1.254991
    122          1           0       16.654942   -1.799588   -0.803211
    123          1           0       15.497120   -1.972979    0.729307
    124          1           0       16.057763    1.610022    0.746245
    125          1           0       16.532958    0.217134    1.558649
    126          1           0       18.190774   -0.396253   -0.198286
    127          1           0       17.635279    0.582106   -1.321154
    128          1           0       18.221378    2.565950    0.890918
    129          1           0       18.917860    1.352484    1.751841
    130          1           0       20.621752    0.715156   -0.190360
    131          1           0       19.810361    3.483784   -1.114378
    132          1           0       21.041561    2.390875   -1.907477
    133          1           0       19.509126    1.951213   -2.181900
    134          1           0       21.072006    1.848134    1.812198
    135          1           0       21.978041    2.454601    0.604477
    136          1           0       20.569076    3.471047    1.100322
    137          1           0       -7.114765    1.912177    0.496240
    138          1           0       -7.536473   -0.218345   -0.053649
 ---------------------------------------------------------------------

 SCF Done:  E(RB3LYP) =  -2733.05133300     A.U. after   17 cycles

 Excitation energies and oscillator strengths:

 Excited State   1:      Singlet-A      2.0363 eV  608.88 nm  f=0.2158  <S**2>=0.000
     235 -> 237       -0.23297
     235 -> 238        0.25664
     236 -> 237        0.60028
     236 -> 238        0.13359
 This state for optimization and/or second-order correction.
 Total Energy, E(TD-HF/TD-KS) =  -2732.97650196
 Copying the excited state density for this state as the 1-particle RhoCI density.

 The electronic state is 1-A.
 Alpha  occ. eigenvalues --  -19.17529 -19.16550 -19.14393 -19.12319 -19.12286
 Alpha  occ. eigenvalues --  -14.36791 -14.36448 -14.32609 -14.30599 -10.32808
 Alpha  occ. eigenvalues --  -10.31779 -10.28551 -10.26368 -10.24922 -10.24820
 Alpha  occ. eigenvalues --  -10.24512 -10.23485 -10.23462 -10.23118 -10.22771
 Alpha  occ. eigenvalues --  -10.22168 -10.22127 -10.21852 -10.21758 -10.21706
 Alpha  occ. eigenvalues --  -10.21664 -10.21402 -10.21113 -10.20801 -10.20787
 Alpha  occ. eigenvalues --  -10.20665 -10.20602 -10.20469 -10.20157 -10.20000
 Alpha  occ. eigenvalues --  -10.19977 -10.19949 -10.19851 -10.19798 -10.19711
 Alpha  occ. eigenvalues --  -10.19701 -10.19596 -10.19376 -10.19354 -10.19329
 Alpha  occ. eigenvalues --  -10.19112 -10.19100 -10.18964 -10.18799 -10.18766
 Alpha  occ. eigenvalues --  -10.18717 -10.18631 -10.18538 -10.18305 -10.18263
 Alpha  occ. eigenvalues --  -10.18223 -10.18134 -10.17842 -10.17628 -10.17538
 Alpha  occ. eigenvalues --  -10.17365 -10.17140 -10.16468 -10.15819  -1.10499
 Alpha  occ. eigenvalues --   -1.09365  -1.03099  -1.00183  -0.99321  -0.98352
 Alpha  occ. eigenvalues --   -0.98179  -0.95032  -0.92051  -0.85433  -0.82600
 Alpha  occ. eigenvalues --   -0.82309  -0.81761  -0.81506  -0.81318  -0.80721
 Alpha  occ. eigenvalues --   -0.80595  -0.80077  -0.79754  -0.79196  -0.77810
 Alpha  occ. eigenvalues --   -0.76906  -0.76684  -0.76197  -0.75507  -0.74412
 Alpha  occ. eigenvalues --   -0.74087  -0.73273  -0.72643  -0.72172  -0.71812
 Alpha  occ. eigenvalues --   -0.70279  -0.69571  -0.68700  -0.68411  -0.68366
 Alpha  occ. eigenvalues --   -0.67869  -0.66902  -0.66746  -0.65900  -0.65645
 Alpha  occ. eigenvalues --   -0.64233  -0.63259  -0.62424  -0.62375  -0.61809
 Alpha  occ. eigenvalues --   -0.61454  -0.59077  -0.58981  -0.58173  -0.57208
 Alpha  occ. eigenvalues --   -0.57019  -0.56268  -0.56025  -0.55680  -0.55602
 Alpha  occ. eigenvalues --   -0.55401  -0.54736  -0.54589  -0.54363  -0.53724
 Alpha  occ. eigenvalues --   -0.53012  -0.52464  -0.52265  -0.51570  -0.51456
 Alpha  occ. eigenvalues --   -0.50144  -0.49819  -0.49570  -0.49099  -0.48878
 Alpha  occ. eigenvalues --   -0.48552  -0.48190  -0.48126  -0.47457  -0.47266
 Alpha  occ. eigenvalues --   -0.46891  -0.46679  -0.46560  -0.46396  -0.46365
 Alpha  occ. eigenvalues --   -0.46235  -0.45431  -0.45400  -0.45222  -0.45083
 Alpha  occ. eigenvalues --   -0.44918  -0.44843  -0.44277  -0.44199  -0.44087
 Alpha  occ. eigenvalues --   -0.43780  -0.43281  -0.43101  -0.42776  -0.42727
 Alpha  occ. eigenvalues --   -0.42467  -0.42407  -0.42252  -0.41887  -0.41762
 Alpha  occ. eigenvalues --   -0.41466  -0.41164  -0.40951  -0.40786  -0.40539
 Alpha  occ. eigenvalues --   -0.40486  -0.40363  -0.40170  -0.39784  -0.39744
 Alpha  occ. eigenvalues --   -0.39572  -0.39371  -0.39311  -0.39074  -0.38839
 Alpha  occ. eigenvalues --   -0.38546  -0.38440  -0.38227  -0.37999  -0.37841
 Alpha  occ. eigenvalues --   -0.37758  -0.37484  -0.37210  -0.36948  -0.36735
 Alpha  occ. eigenvalues --   -0.36554  -0.36421  -0.36244  -0.35970  -0.35685
 Alpha  occ. eigenvalues --   -0.35529  -0.35453  -0.35134  -0.34643  -0.34566
 Alpha  occ. eigenvalues --   -0.34240  -0.34100  -0.34021  -0.34006  -0.33476
 Alpha  occ. eigenvalues --   -0.33328  -0.32846  -0.32718  -0.32621  -0.32343
 Alpha  occ. eigenvalues --   -0.32118  -0.31860  -0.31611  -0.31356  -0.31266
 Alpha  occ. eigenvalues --   -0.30991  -0.30578  -0.30458  -0.30033  -0.29420
 Alpha  occ. eigenvalues --   -0.29280  -0.29184  -0.28767  -0.28405  -0.27613
 Alpha  occ. eigenvalues --   -0.27596  -0.27394  -0.27103  -0.26514  -0.26368
 Alpha  occ. eigenvalues --   -0.24954  -0.24359  -0.24102  -0.23493  -0.20468
 Alpha  occ. eigenvalues --   -0.19573
 Alpha virt. eigenvalues --   -0.11357  -0.07961  -0.04978  -0.02023  -0.01847
 Alpha virt. eigenvalues --   -0.01095   0.00192   0.00675   0.01885   0.03692
 Alpha virt. eigenvalues --    0.04002   0.04217   0.04304   0.04771   0.05151

 Mulliken charges:
               1
     1  C    0.040325
     2  C   -0.090716
     3  C    0.155887
     4  C   -0.103910
     5  N   -0.165017
     6  C   -0.095983
     7  C   -0.033323
     8  C   -0.085670
     9  C    0.015369
    10  C    0.143617
    11  C    0.047507
    12  C   -0.040946
    13  C    0.234761
    14  O   -0.191012
    15  O   -0.302204
    16  N    0.054592
    17  C    0.069145
    18  C   -0.195712
    19  C    0.000600
    20  C    0.053047
    21  C    0.121629
    22  C    0.012106
    23  C   -0.052579
    24  N   -0.297975
    25  C    0.078018
    26  C   -0.109421
    27  C   -0.062503
    28  C    0.069068
    29  C    0.065266
    30  C    0.072780
    31  C    0.029609
    32  N   -0.060003
    33  C    0.120446
    34  C   -0.151864
    35  C    0.050069
    36  C    0.051127
    37  C    0.100258
    38  C    0.024397
    39  O   -0.218108
    40  C    0.016497
    41  C    0.231561
    42  O   -0.240186
    43  O   -0.286657
    44  C    0.078312
    45  C    0.251155
    46  C   -0.125329
    47  C   -0.137746
    48  C    0.017901
    49  C    0.307199
    50  C   -0.018952
    51  C   -0.017198
    52  C   -0.023615
    53  C   -0.005161
    54  C    0.033193
    55  C    0.053852
    56  C    0.022300
    57  C   -0.068334
    58  C    0.040568
    59  C    0.100093
    60  C   -0.026498
    61  C    0.024873
    62  C   -0.152126
    63  C    0.070604
    64  C    0.132092
    65  H    0.012419
    66  H   -0.219959
    67  H   -0.007379
    68  H    0.035742
    69  H   -0.004135
    70  H    0.007101
    71  H   -0.024729
    72  H    0.014747
    73  H    0.016162
    74  H    0.017299
    75  H    0.032105
    76  H    0.067316
    77  H    0.028995
    78  H    0.036397
    79  H    0.032332
    80  H   -0.020064
    81  H    0.051670
    82  H    0.042082
    83  H    0.034831
    84  H    0.025238
    85  H    0.011691
    86  H   -0.027622
    87  H    0.009389
    88  H    0.008860
    89  H    0.015060
    90  H   -0.003579
    91  H    0.027425
    92  H    0.022102
    93  H    0.047527
    94  H    0.028498
    95  H    0.059161
    96  H    0.048793
    97  H    0.052442
    98  H    0.025749
    99  H   -0.018987
   100  H   -0.003140
   101  H    0.005104
   102  H    0.048053
   103  H   -0.001057
   104  H   -0.078847
   105  H   -0.073000
   106  H   -0.004951
   107  H    0.023452
   108  H   -0.001931
   109  H    0.003416
   110  H   -0.000861
   111  H    0.017222
   112  H    0.019795
   113  H   -0.021063
   114  H   -0.023676
   115  H   -0.030763
   116  H    0.022001
   117  H   -0.012062
   118  H   -0.001215
   119  H   -0.044967
   120  H   -0.025445
   121  H    0.008093
   122  H   -0.001175
   123  H    0.023011
   124  H   -0.015020
   125  H   -0.026666
   126  H   -0.010646
   127  H   -0.005648
   128  H   -0.026570
   129  H   -0.010425
   130  H   -0.005179
   131  H    0.004836
   132  H   -0.014713
   133  H    0.005487
   134  H   -0.001055
   135  H   -0.018896
   136  H   -0.001495
   137  H    0.007184
   138  H    0.157070
 Sum of Mulliken charges =   0.00000

 Dipole moment (field-independent basis, Debye):
    X=              0.3240    Y=              5.6192    Z=             -0.1562  Tot=              5.6307
 Quadrupole moment (field-independent basis, Debye-Ang):
   XX=           -330.0067   YY=           -388.0204   ZZ=           -396.6663
   XY=            -26.0941   XZ=             17.3847   YZ=              3.9762

 Normal termination of Gaussian 09 at Fri Aug  2 20:52:05 2019.
