 Gaussian 09, Revision D.01,
 Gaussian 09:  ES64L-G09RevD.01 24-Apr-2013

 --------------------------
 # td=(NStates=1) B3LYP/SVP
 --------------------------

 --
 TD
 --
 Symbolic Z-matrix:
 Charge =  0 Multiplicity = 1

                         Standard orientation:
 ---------------------------------------------------------------------
 Center     Atomic      Atomic             Coordinates (Angstroms)
 Number     Number       Type             X           Y           Z
 ---------------------------------------------------------------------
      1          6           0       -5.234083   -1.993517    0.447139
      2          6           0       -4.683040    2.725507    1.299807
      3          6           0       -9.292826    3.355775   -0.145257
      4          6           0       -9.881120   -1.428037   -0.899883
      5          7           0       -5.112740    0.401541    0.644049
      6          6           0       -4.457781   -0.791814    0.613633
      7          6           0       -3.006064   -0.611689    1.109812
      8          6           0       -3.000369    0.841039    1.712519
      9          6           0       -4.395573    1.398325    1.233701
     10          6           0       -3.005207    0.897987    3.216013
     11          6           0       -2.041672   -0.785382   -0.047917
     12          6           0       -0.617296   -0.899481    0.452310
     13          6           0        0.329548   -1.200093   -0.579022
     14          8           0        0.058578   -1.515317   -1.686473
     15          8           0        1.506458   -0.919652   -0.109411
     16          7           0       -7.051636    2.795444    0.399396
     17          6           0       -5.899979    3.344728    0.816570
     18          6           0       -6.146711    4.791311    0.923933
     19          6           0       -7.442897    5.001135    0.476655
     20          6           0       -7.950181    3.701475    0.087158
     21          6           0       -5.266724    5.754477    1.457663
     22          6           0       -8.195767    6.274582    0.425837
     23          6           0       -9.127838    6.563343   -0.501034
     24          7           0       -9.207134    0.906619   -0.363319
     25          6           0       -9.891178    2.095260   -0.499592
     26          6           0      -11.323707    1.940545   -0.766316
     27          6           0      -11.502567    0.581639   -0.984596
     28          6           0      -10.117252    0.010316   -0.767464
     29          6           0      -12.234974    3.070305   -0.952184
     30          6           0      -12.772040   -0.114188   -1.424963
     31          6           0      -12.861042   -0.119809   -3.062741
     32          7           0       -7.512314   -1.271775   -0.116636
     33          6           0       -8.642794   -1.929442   -0.542553
     34          6           0       -8.232868   -3.394998   -0.640875
     35          6           0       -6.841032   -3.425398   -0.261930
     36          6           0       -6.502046   -2.103407    0.036567
     37          6           0       -9.075753   -4.423542   -1.190737
     38          6           0       -5.736739   -4.402633   -0.056679
     39          8           0       -5.688323   -5.529818   -0.217535
     40          6           0       -4.617639   -3.313402    0.429450
     41          6           0       -3.957726   -3.858120    1.698270
     42          8           0       -4.178824   -3.464313    2.810505
     43          8           0       -3.120694   -4.926012    1.484647
     44          6           0       -2.638361   -5.555817    2.631021
     45          6           0        2.543261   -1.059367   -1.003803
     46          6           0        4.081977   -0.863548   -0.456400
     47          6           0        4.992706   -0.041332   -0.905286
     48          6           0        4.989973    0.838633   -2.111116
     49          6           0        6.371324    0.168554   -0.206339
     50          6           0        7.534010   -0.488923   -0.926286
     51          6           0        8.940302   -0.316412   -0.168666
     52          6           0       10.216897   -0.892416   -0.807484
     53          6           0       10.143080   -2.311077   -1.162141
     54          6           0       11.315462   -0.429439    0.038786
     55          6           0       12.700892   -0.481350   -0.692938
     56          6           0       13.879826   -0.064912    0.178446
     57          6           0       15.321946   -0.133841   -0.424341
     58          6           0       15.703324   -1.604243   -0.648176
     59          6           0       16.256342    0.668744    0.393280
     60          6           0       17.642028    0.856922   -0.198733
     61          6           0       18.684653    1.663522    0.739276
     62          6           0       20.119297    1.679122    0.141265
     63          6           0       20.184799    2.723237   -1.156741
     64          6           0       21.127737    2.144676    1.250675
     65          1           0       -3.962372    3.237572    1.836809
     66          1           0       -9.874435    4.190462   -0.041611
     67          1           0      -10.878707   -1.890926   -0.969441
     68          1           0       -2.611384   -1.304841    1.871581
     69          1           0       -2.089798    1.501169    1.354620
     70          1           0       -2.138230    0.580844    3.811941
     71          1           0       -3.309422    1.900373    3.798134
     72          1           0       -3.836710    0.356762    3.382624
     73          1           0       -2.498283   -1.555498   -0.679103
     74          1           0       -1.973187    0.292971   -0.506115
     75          1           0       -0.140780   -0.094538    0.956302
     76          1           0       -0.725636   -1.701344    1.292800
     77          1           0       -4.264359    5.707557    0.926557
     78          1           0       -5.624961    6.858817    1.001078
     79          1           0       -5.281624    5.919040    2.532738
     80          1           0       -8.137372    6.800618    1.226362
     81          1           0       -9.276374    5.783039   -1.367422
     82          1           0       -9.653977    7.490546   -0.450825
     83          1           0      -12.515156    3.626954    0.121683
     84          1           0      -11.746929    3.874044   -1.641103
     85          1           0      -13.190960    2.632169   -1.486076
     86          1           0      -12.682590   -1.274484   -1.206255
     87          1           0      -13.595313    0.372142   -0.921825
     88          1           0      -12.966536    0.918785   -3.565430
     89          1           0      -12.035115   -0.739995   -3.543565
     90          1           0      -13.790515   -0.610237   -3.240623
     91          1           0       -9.940417   -4.548663   -0.290332
     92          1           0       -9.786111   -4.076288   -2.061345
     93          1           0       -8.671404   -5.446093   -1.137863
     94          1           0       -3.766036   -3.399820   -0.313945
     95          1           0       -2.041429   -6.465377    2.275317
     96          1           0       -2.266928   -4.882184    3.352537
     97          1           0       -3.559022   -5.925444    3.088394
     98          1           0        2.415685   -2.089443   -1.394797
     99          1           0        2.539641   -0.282001   -1.989684
    100          1           0        4.196867   -1.275650    0.689231
    101          1           0        5.056733    1.862574   -1.907564
    102          1           0        5.836392    0.604500   -2.744722
    103          1           0        3.924074    0.777488   -2.703494
    104          1           0        6.165030    1.225375   -0.158472
    105          1           0        6.098556   -0.242892    0.740859
    106          1           0        7.502801   -1.545690   -1.153333
    107          1           0        7.750672   -0.187205   -2.002333
    108          1           0        9.148635    0.721405   -0.079259
    109          1           0        8.676576   -0.659744    0.868282
    110          1           0       10.231249   -0.324355   -1.765735
    111          1           0        9.175827   -2.547141   -1.801648
    112          1           0       11.080448   -2.647335   -1.747038
    113          1           0       10.002697   -2.853400   -0.255293
    114          1           0       11.237898    0.645830    0.347057
    115          1           0       11.481283   -0.867259    1.000592
    116          1           0       12.708514   -1.615188   -1.004716
    117          1           0       12.715386    0.190281   -1.557984
    118          1           0       13.529455    1.018266    0.642247
    119          1           0       13.852098   -0.792569    1.129476
    120          1           0       15.192234    0.196198   -1.546724
    121          1           0       15.012670   -2.198796   -1.350148
    122          1           0       16.634964   -1.544586   -1.077238
    123          1           0       15.811464   -2.245736    0.297591
    124          1           0       15.950943    1.696884    0.573052
    125          1           0       16.362472    0.331647    1.409458
    126          1           0       18.033253   -0.093251   -0.421704
    127          1           0       17.498377    1.439446   -1.067989
    128          1           0       18.216430    2.686662    0.946235
    129          1           0       18.488664    1.070514    1.740627
    130          1           0       20.383281    0.608814   -0.181794
    131          1           0       19.738682    3.640805   -0.908340
    132          1           0       21.213597    2.987983   -1.593775
    133          1           0       19.669522    2.357463   -2.186590
    134          1           0       21.396257    1.302240    2.097410
    135          1           0       22.158211    2.540885    0.985129
    136          1           0       20.834049    3.158846    1.756551
    137          1           0       -6.983330    1.785564    0.124905
    138          1           0       -7.456229   -0.268660   -0.058779
 ---------------------------------------------------------------------

 SCF Done:  E(RB3LYP) =  -2733.11337394     A.U. after   16 cycles

 Excitation energies and oscillator strengths:

 Excited State   1:      Singlet-A      2.0441 eV  606.55 nm  f=0.1376  <S**2>=0.000
     235 -> 238        0.33109
     236 -> 237        0.61840
 This state for optimization and/or second-order correction.
 Total Energy, E(TD-HF/TD-KS) =  -2733.03825517
 Copying the excited state density for this state as the 1-particle RhoCI density.

 The electronic state is 1-A.
 Alpha  occ. eigenvalues --  -19.18621 -19.16758 -19.13969 -19.11998 -19.11762
 Alpha  occ. eigenvalues --  -14.37486 -14.37126 -14.32202 -14.30015 -10.31085
 Alpha  occ. eigenvalues --  -10.30294 -10.28680 -10.26174 -10.24176 -10.23620
 Alpha  occ. eigenvalues --  -10.23595 -10.23451 -10.22793 -10.22585 -10.22482
 Alpha  occ. eigenvalues --  -10.22200 -10.21806 -10.21657 -10.21466 -10.21230
 Alpha  occ. eigenvalues --  -10.21224 -10.21132 -10.21132 -10.20748 -10.20396
 Alpha  occ. eigenvalues --  -10.20168 -10.20157 -10.20146 -10.20060 -10.19990
 Alpha  occ. eigenvalues --  -10.19880 -10.19792 -10.19789 -10.19728 -10.19726
 Alpha  occ. eigenvalues --  -10.19679 -10.19658 -10.19652 -10.19541 -10.19449
 Alpha  occ. eigenvalues --  -10.19399 -10.19388 -10.19348 -10.19312 -10.19185
 Alpha  occ. eigenvalues --  -10.19106 -10.19019 -10.18963 -10.18724 -10.18714
 Alpha  occ. eigenvalues --  -10.18470 -10.18408 -10.18269 -10.17956 -10.17931
 Alpha  occ. eigenvalues --  -10.17910 -10.17603 -10.17237 -10.16957  -1.13096
 Alpha  occ. eigenvalues --   -1.09304  -1.08079  -1.02552  -1.00506  -1.00167
 Alpha  occ. eigenvalues --   -0.99587  -0.93494  -0.93146  -0.86091  -0.83137
 Alpha  occ. eigenvalues --   -0.82412  -0.82318  -0.81943  -0.81352  -0.81062
 Alpha  occ. eigenvalues --   -0.80200  -0.79157  -0.78690  -0.78172  -0.78055
 Alpha  occ. eigenvalues --   -0.77004  -0.75902  -0.75656  -0.74819  -0.74050
 Alpha  occ. eigenvalues --   -0.73308  -0.73245  -0.72242  -0.71935  -0.70836
 Alpha  occ. eigenvalues --   -0.70160  -0.68974  -0.68574  -0.68185  -0.67416
 Alpha  occ. eigenvalues --   -0.66982  -0.66559  -0.66146  -0.65863  -0.65497
 Alpha  occ. eigenvalues --   -0.63762  -0.62585  -0.62347  -0.62136  -0.61827
 Alpha  occ. eigenvalues --   -0.60908  -0.59643  -0.59040  -0.57566  -0.56865
 Alpha  occ. eigenvalues --   -0.56478  -0.56235  -0.55924  -0.55869  -0.55626
 Alpha  occ. eigenvalues --   -0.55418  -0.55189  -0.55065  -0.53973  -0.52940
 Alpha  occ. eigenvalues --   -0.52337  -0.51993  -0.51315  -0.51250  -0.50696
 Alpha  occ. eigenvalues --   -0.50654  -0.49839  -0.48653  -0.48526  -0.48334
 Alpha  occ. eigenvalues --   -0.47949  -0.47901  -0.47506  -0.47347  -0.46917
 Alpha  occ. eigenvalues --   -0.46867  -0.46427  -0.46242  -0.46090  -0.45816
 Alpha  occ. eigenvalues --   -0.45745  -0.45660  -0.45374  -0.45251  -0.45168
 Alpha  occ. eigenvalues --   -0.44897  -0.44538  -0.44419  -0.44123  -0.43998
 Alpha  occ. eigenvalues --   -0.43771  -0.43233  -0.42976  -0.42886  -0.42491
 Alpha  occ. eigenvalues --   -0.42458  -0.42161  -0.41972  -0.41796  -0.41411
 Alpha  occ. eigenvalues --   -0.41367  -0.41079  -0.41001  -0.40978  -0.40862
 Alpha  occ. eigenvalues --   -0.40527  -0.40299  -0.39980  -0.39909  -0.39782
 Alpha  occ. eigenvalues --   -0.39311  -0.39023  -0.38969  -0.38838  -0.38623
 Alpha  occ. eigenvalues --   -0.38329  -0.38238  -0.38033  -0.37783  -0.37712
 Alpha  occ. eigenvalues --   -0.37580  -0.37353  -0.37277  -0.37010  -0.36683
 Alpha  occ. eigenvalues --   -0.36504  -0.36277  -0.36235  -0.35872  -0.35552
 Alpha  occ. eigenvalues --   -0.35409  -0.35226  -0.34917  -0.34832  -0.34224
 Alpha  occ. eigenvalues --   -0.34108  -0.34030  -0.33977  -0.33605  -0.33368
 Alpha  occ. eigenvalues --   -0.33118  -0.32984  -0.32752  -0.32346  -0.32308
 Alpha  occ. eigenvalues --   -0.32123  -0.31856  -0.31607  -0.31366  -0.31195
 Alpha  occ. eigenvalues --   -0.31037  -0.30689  -0.30546  -0.30344  -0.29941
 Alpha  occ. eigenvalues --   -0.29657  -0.29364  -0.28155  -0.28070  -0.27906
 Alpha  occ. eigenvalues --   -0.27587  -0.27288  -0.26425  -0.26176  -0.25650
 Alpha  occ. eigenvalues --   -0.25498  -0.25330  -0.24462  -0.22410  -0.19616
 Alpha  occ. eigenvalues --   -0.18647
 Alpha virt. eigenvalues --   -0.09847  -0.07788  -0.04221  -0.02022  -0.00001
 Alpha virt. eigenvalues --    0.00310   0.00981   0.01149   0.02141   0.03399
 Alpha virt. eigenvalues --    0.03918   0.04470   0.04503   0.04737   0.05065

 Mulliken charges:
               1
     1  C    0.066706
     2  C   -0.009382
     3  C   -0.045024
     4  C   -0.091896
     5  N   -0.202496
     6  C   -0.044049
     7  C   -0.028120
     8  C   -0.061372
     9  C   -0.047185
    10  C    0.055076
    11  C    0.050913
    12  C    0.016512
    13  C    0.147817
    14  O   -0.203228
    15  O   -0.237376
    16  N    0.015990
    17  C    0.083579
    18  C   -0.134958
    19  C    0.021621
    20  C    0.035050
    21  C    0.034537
    22  C    0.015914
    23  C   -0.025823
    24  N   -0.235503
    25  C    0.077234
    26  C   -0.103940
    27  C   -0.093136
    28  C   -0.022955
    29  C   -0.006768
    30  C    0.019076
    31  C   -0.019845
    32  N    0.042287
    33  C    0.156335
    34  C   -0.140721
    35  C   -0.073257
    36  C    0.087400
    37  C    0.040953
    38  C    0.100658
    39  O   -0.059659
    40  C   -0.164197
    41  C    0.171768
    42  O   -0.218654
    43  O   -0.311627
    44  C    0.212303
    45  C    0.167651
    46  C   -0.100116
    47  C   -0.184854
    48  C    0.075626
    49  C    0.140383
    50  C    0.041928
    51  C   -0.010356
    52  C   -0.009725
    53  C    0.035075
    54  C    0.031565
    55  C   -0.001682
    56  C   -0.039408
    57  C   -0.052847
    58  C    0.031684
    59  C    0.082222
    60  C    0.042188
    61  C   -0.029089
    62  C   -0.041088
    63  C   -0.033376
    64  C   -0.040062
    65  H   -0.055229
    66  H   -0.063347
    67  H   -0.010754
    68  H    0.007068
    69  H    0.013322
    70  H    0.016527
    71  H    0.014307
    72  H   -0.006070
    73  H    0.031811
    74  H    0.014400
    75  H    0.017962
    76  H    0.029421
    77  H    0.035419
    78  H    0.018025
    79  H    0.042550
    80  H   -0.056022
    81  H    0.056694
    82  H    0.018841
    83  H    0.048655
    84  H    0.043251
    85  H    0.029731
    86  H    0.018273
    87  H    0.021321
    88  H    0.032734
    89  H    0.032635
    90  H    0.005654
    91  H    0.035827
    92  H    0.059437
    93  H    0.041693
    94  H    0.059557
    95  H    0.046434
    96  H    0.012871
    97  H    0.002474
    98  H    0.021757
    99  H    0.036965
   100  H    0.018718
   101  H    0.004969
   102  H    0.021468
   103  H    0.017431
   104  H    0.001437
   105  H   -0.023157
   106  H   -0.010521
   107  H   -0.010175
   108  H   -0.017866
   109  H   -0.007053
   110  H   -0.021493
   111  H    0.020732
   112  H    0.030610
   113  H   -0.004651
   114  H   -0.020194
   115  H   -0.025279
   116  H    0.006252
   117  H   -0.004805
   118  H    0.005098
   119  H   -0.001660
   120  H   -0.002052
   121  H    0.022777
   122  H   -0.018415
   123  H    0.007799
   124  H   -0.025224
   125  H   -0.026487
   126  H   -0.016253
   127  H   -0.017897
   128  H    0.007636
   129  H    0.011047
   130  H    0.020925
   131  H    0.005626
   132  H    0.020967
   133  H    0.027496
   134  H    0.033531
   135  H    0.008113
   136  H    0.012312
   137  H    0.171553
   138  H    0.126216
 Sum of Mulliken charges =   0.00000

 Dipole moment (field-independent basis, Debye):
    X=              1.3498    Y=              3.9703    Z=              0.3995  Tot=              4.2125
 Quadrupole moment (field-independent basis, Debye-Ang):
   XX=           -332.6270   YY=           -379.9298   ZZ=           -399.1207
   XY=            -11.5270   XZ=              5.2211   YZ=              0.4610

 Normal termination of Gaussian 09 at Sun Aug  4 16:01:45 2019.
