 Gaussian 09, Revision D.01,
 Gaussian 09:  ES64L-G09RevD.01 24-Apr-2013

 --------------------------
 # td=(NStates=1) B3LYP/SVP
 --------------------------

 --
 TD
 --
 Symbolic Z-matrix:
 Charge =  0 Multiplicity = 1

                         Standard orientation:
 ---------------------------------------------------------------------
 Center     Atomic      Atomic             Coordinates (Angstroms)
 Number     Number       Type             X           Y           Z
 ---------------------------------------------------------------------
      1          6           0       -5.160422   -1.922986    0.247443
      2          6           0       -4.775638    2.744285    1.230240
      3          6           0       -9.353319    3.293206   -0.122629
      4          6           0       -9.938738   -1.530953   -0.977816
      5          7           0       -5.205470    0.464379    0.762776
      6          6           0       -4.510976   -0.731818    0.667468
      7          6           0       -3.052872   -0.575291    1.101458
      8          6           0       -3.058460    0.874826    1.694893
      9          6           0       -4.456520    1.381405    1.167031
     10          6           0       -2.944230    0.861085    3.168792
     11          6           0       -2.018445   -0.712309   -0.035079
     12          6           0       -0.675900   -0.720274    0.331981
     13          6           0        0.430893   -0.872124   -0.679754
     14          8           0        0.186177   -1.128894   -1.798836
     15          8           0        1.625374   -0.709610   -0.333391
     16          7           0       -7.027694    2.717754    0.397880
     17          6           0       -5.946779    3.343318    0.950996
     18          6           0       -6.283779    4.785137    1.116042
     19          6           0       -7.679456    4.946954    0.628752
     20          6           0       -8.066311    3.593995    0.303582
     21          6           0       -5.310483    5.805788    1.570383
     22          6           0       -8.218100    6.273290    0.456839
     23          6           0       -9.102091    6.504048   -0.627265
     24          7           0       -9.270648    0.803330   -0.470875
     25          6           0       -9.863436    2.100869   -0.493693
     26          6           0      -11.288363    1.813212   -0.968059
     27          6           0      -11.503727    0.461263   -0.954832
     28          6           0      -10.223035   -0.120418   -0.782122
     29          6           0      -12.332052    2.916362   -1.010297
     30          6           0      -12.780326   -0.246016   -1.431577
     31          6           0      -12.801505   -0.575049   -2.855815
     32          7           0       -7.531298   -1.261517   -0.422440
     33          6           0       -8.631125   -2.107322   -0.728477
     34          6           0       -8.253904   -3.460193   -0.737421
     35          6           0       -6.886867   -3.468244   -0.301549
     36          6           0       -6.498410   -2.144792   -0.197308
     37          6           0       -9.171819   -4.655405   -1.045336
     38          6           0       -5.717887   -4.351604    0.020118
     39          8           0       -5.620901   -5.547242    0.086317
     40          6           0       -4.562629   -3.370506    0.311246
     41          6           0       -3.855985   -3.770550    1.635861
     42          8           0       -4.225582   -3.413663    2.753389
     43          8           0       -2.804834   -4.679801    1.481735
     44          6           0       -2.256008   -5.098712    2.723127
     45          6           0        2.717613   -0.921992   -1.194709
     46          6           0        4.055858   -0.615655   -0.529812
     47          6           0        4.988377    0.138263   -1.000770
     48          6           0        4.940169    0.835399   -2.357044
     49          6           0        6.242401    0.316177   -0.200561
     50          6           0        7.497935   -0.326448   -0.861899
     51          6           0        8.672600   -0.165470    0.024462
     52          6           0       10.066265   -0.807062   -0.370664
     53          6           0        9.968161   -2.331830   -0.595900
     54          6           0       11.315612   -0.285504    0.342889
     55          6           0       12.605789   -0.593747   -0.272264
     56          6           0       13.850806    0.039140    0.406328
     57          6           0       15.256436   -0.214171   -0.175670
     58          6           0       15.550725   -1.644019   -0.259047
     59          6           0       16.376554    0.549993    0.464608
     60          6           0       17.770494    0.626183   -0.400383
     61          6           0       18.647519    1.629185    0.320187
     62          6           0       20.181706    1.528074   -0.060402
     63          6           0       20.353052    1.997542   -1.526074
     64          6           0       21.076073    2.424239    0.753234
     65          1           0       -3.837786    3.194393    1.928391
     66          1           0      -10.034137    4.166944   -0.244331
     67          1           0      -10.705443   -2.293512   -1.111620
     68          1           0       -2.775759   -1.275610    1.914499
     69          1           0       -2.177693    1.550388    1.123867
     70          1           0       -1.769536    0.508069    3.379315
     71          1           0       -3.027720    1.770707    3.821298
     72          1           0       -3.514251    0.122741    3.839649
     73          1           0       -2.355896   -1.651397   -0.535122
     74          1           0       -2.255558    0.286155   -0.744373
     75          1           0       -0.363390    0.165982    0.995865
     76          1           0       -0.601728   -1.448165    1.134236
     77          1           0       -4.223407    5.608410    1.011292
     78          1           0       -5.920713    6.665900    1.502623
     79          1           0       -5.286623    5.744451    2.548773
     80          1           0       -7.791841    7.154457    0.986827
     81          1           0       -9.382676    5.551413   -1.295048
     82          1           0       -9.577069    7.651096   -0.798130
     83          1           0      -12.354668    3.306961   -0.103010
     84          1           0      -12.017652    3.571056   -1.680466
     85          1           0      -13.368668    2.711593   -1.204907
     86          1           0      -13.038854   -1.224353   -0.903155
     87          1           0      -13.685713    0.326804   -1.079939
     88          1           0      -12.871392    0.328148   -3.501658
     89          1           0      -11.843895   -1.139055   -3.232537
     90          1           0      -13.751294   -1.281885   -3.148180
     91          1           0       -9.947130   -4.876798   -0.277231
     92          1           0       -9.878922   -4.488245   -1.915053
     93          1           0       -8.552563   -5.380875   -1.359178
     94          1           0       -3.630948   -3.309755   -0.487421
     95          1           0       -1.115746   -5.692180    2.656220
     96          1           0       -1.857925   -4.191190    3.426717
     97          1           0       -3.063105   -5.572535    3.251264
     98          1           0        2.584085   -2.166962   -1.623485
     99          1           0        2.569631   -0.254288   -2.217112
    100          1           0        4.327308   -1.147901    0.382524
    101          1           0        5.036389    1.779197   -2.183820
    102          1           0        5.840818    0.470531   -2.905506
    103          1           0        4.028824    0.628172   -3.201151
    104          1           0        6.380364    1.461686   -0.462280
    105          1           0        6.101258   -0.190240    0.731308
    106          1           0        7.166026   -1.269246   -1.006243
    107          1           0        7.746561    0.141812   -1.669315
    108          1           0        9.091199    0.898805   -0.018221
    109          1           0        8.587173   -0.351012    1.084480
    110          1           0       10.089640   -0.153423   -1.215417
    111          1           0        9.155620   -2.553080   -1.330564
    112          1           0       10.747265   -2.856461   -1.067074
    113          1           0        9.876344   -2.767176    0.495179
    114          1           0       11.282280    0.819079    0.403156
    115          1           0       11.228311   -0.564842    1.369830
    116          1           0       12.711060   -1.767468   -0.228935
    117          1           0       12.519204   -0.302123   -1.452567
    118          1           0       13.745502    1.080379    0.702099
    119          1           0       13.862481   -0.626610    1.377264
    120          1           0       15.396533    0.187743   -1.115614
    121          1           0       14.813272   -2.262637   -0.709419
    122          1           0       16.604420   -1.804351   -0.722550
    123          1           0       15.434939   -2.091736    0.699665
    124          1           0       16.239453    1.603943    0.834101
    125          1           0       16.677936    0.239568    1.457510
    126          1           0       18.173840   -0.312908   -0.274265
    127          1           0       17.610882    0.799684   -1.443143
    128          1           0       18.568739    2.677625    0.183938
    129          1           0       18.865119    1.471264    1.441682
    130          1           0       20.640730    0.487561   -0.040542
    131          1           0       20.007690    3.084981   -1.618546
    132          1           0       21.327975    1.859264   -2.002973
    133          1           0       19.759138    1.535072   -2.439002
    134          1           0       20.949565    2.391741    1.845644
    135          1           0       22.226210    2.363615    0.515448
    136          1           0       20.804460    3.386855    0.550975
    137          1           0       -6.984512    1.736883    0.474557
    138          1           0       -7.562757   -0.113707   -0.188593
 ---------------------------------------------------------------------

 SCF Done:  E(RB3LYP) =  -2732.97725597     A.U. after   17 cycles

 Excitation energies and oscillator strengths:

 Excited State   1:      Singlet-A      2.0346 eV  609.38 nm  f=0.1768  <S**2>=0.000
     235 -> 237       -0.25231
     235 -> 238        0.23993
     236 -> 237        0.57886
     236 -> 238        0.19673
 This state for optimization and/or second-order correction.
 Total Energy, E(TD-HF/TD-KS) =  -2732.90248651
 Copying the excited state density for this state as the 1-particle RhoCI density.

 The electronic state is 1-A.
 Alpha  occ. eigenvalues --  -19.18194 -19.17871 -19.12983 -19.12499 -19.09870
 Alpha  occ. eigenvalues --  -14.37314 -14.36467 -14.32579 -14.30183 -10.32449
 Alpha  occ. eigenvalues --  -10.30102 -10.28416 -10.27659 -10.26145 -10.24757
 Alpha  occ. eigenvalues --  -10.23779 -10.23725 -10.23235 -10.23043 -10.23027
 Alpha  occ. eigenvalues --  -10.22871 -10.22446 -10.22398 -10.21921 -10.21847
 Alpha  occ. eigenvalues --  -10.21832 -10.21635 -10.21553 -10.21546 -10.21283
 Alpha  occ. eigenvalues --  -10.20921 -10.20871 -10.20694 -10.20371 -10.20152
 Alpha  occ. eigenvalues --  -10.20112 -10.19937 -10.19876 -10.19869 -10.19830
 Alpha  occ. eigenvalues --  -10.19789 -10.19759 -10.19581 -10.19413 -10.19365
 Alpha  occ. eigenvalues --  -10.19313 -10.19287 -10.19093 -10.19062 -10.18639
 Alpha  occ. eigenvalues --  -10.18616 -10.18566 -10.18506 -10.18347 -10.18298
 Alpha  occ. eigenvalues --  -10.18111 -10.18019 -10.17907 -10.17763 -10.17621
 Alpha  occ. eigenvalues --  -10.17502 -10.17280 -10.17002 -10.16488  -1.13392
 Alpha  occ. eigenvalues --   -1.08431  -1.03575  -1.01036  -0.99905  -0.99305
 Alpha  occ. eigenvalues --   -0.96708  -0.96110  -0.92024  -0.84311  -0.84225
 Alpha  occ. eigenvalues --   -0.82962  -0.82607  -0.82544  -0.81559  -0.81363
 Alpha  occ. eigenvalues --   -0.80375  -0.79477  -0.79095  -0.78566  -0.78529
 Alpha  occ. eigenvalues --   -0.77699  -0.76491  -0.75412  -0.75156  -0.75003
 Alpha  occ. eigenvalues --   -0.74330  -0.73202  -0.72680  -0.72346  -0.71601
 Alpha  occ. eigenvalues --   -0.70473  -0.69672  -0.69439  -0.68278  -0.67610
 Alpha  occ. eigenvalues --   -0.67305  -0.67275  -0.66819  -0.66450  -0.65848
 Alpha  occ. eigenvalues --   -0.63889  -0.63215  -0.62374  -0.61612  -0.60964
 Alpha  occ. eigenvalues --   -0.60807  -0.59981  -0.58431  -0.57980  -0.57323
 Alpha  occ. eigenvalues --   -0.57053  -0.56412  -0.55916  -0.55445  -0.55298
 Alpha  occ. eigenvalues --   -0.55091  -0.54571  -0.54423  -0.54109  -0.53364
 Alpha  occ. eigenvalues --   -0.52889  -0.52268  -0.51691  -0.51056  -0.50795
 Alpha  occ. eigenvalues --   -0.50290  -0.49624  -0.49259  -0.48870  -0.48692
 Alpha  occ. eigenvalues --   -0.48449  -0.48005  -0.47863  -0.47517  -0.47364
 Alpha  occ. eigenvalues --   -0.46776  -0.46594  -0.46491  -0.46344  -0.46186
 Alpha  occ. eigenvalues --   -0.46077  -0.45683  -0.45500  -0.45259  -0.44955
 Alpha  occ. eigenvalues --   -0.44797  -0.44558  -0.44383  -0.44085  -0.43829
 Alpha  occ. eigenvalues --   -0.43581  -0.43420  -0.43269  -0.43118  -0.42646
 Alpha  occ. eigenvalues --   -0.42192  -0.42149  -0.42085  -0.41955  -0.41602
 Alpha  occ. eigenvalues --   -0.41445  -0.41256  -0.41115  -0.40985  -0.40873
 Alpha  occ. eigenvalues --   -0.40513  -0.40499  -0.40128  -0.39700  -0.39595
 Alpha  occ. eigenvalues --   -0.39267  -0.39155  -0.38737  -0.38381  -0.38169
 Alpha  occ. eigenvalues --   -0.38020  -0.37770  -0.37709  -0.37647  -0.37561
 Alpha  occ. eigenvalues --   -0.37415  -0.37380  -0.36976  -0.36928  -0.36879
 Alpha  occ. eigenvalues --   -0.36574  -0.36344  -0.36287  -0.36223  -0.36007
 Alpha  occ. eigenvalues --   -0.35845  -0.35610  -0.35419  -0.35207  -0.35104
 Alpha  occ. eigenvalues --   -0.34736  -0.34276  -0.33734  -0.33650  -0.33598
 Alpha  occ. eigenvalues --   -0.33263  -0.32834  -0.32709  -0.32646  -0.32264
 Alpha  occ. eigenvalues --   -0.32137  -0.31892  -0.31735  -0.31596  -0.31515
 Alpha  occ. eigenvalues --   -0.31221  -0.30957  -0.30794  -0.30096  -0.29883
 Alpha  occ. eigenvalues --   -0.29728  -0.28689  -0.28642  -0.28583  -0.27713
 Alpha  occ. eigenvalues --   -0.27420  -0.26780  -0.26598  -0.26004  -0.25721
 Alpha  occ. eigenvalues --   -0.25398  -0.25389  -0.23369  -0.22731  -0.20163
 Alpha  occ. eigenvalues --   -0.18877
 Alpha virt. eigenvalues --   -0.10710  -0.07868  -0.04995  -0.03068  -0.01186
 Alpha virt. eigenvalues --   -0.00380   0.00589   0.01249   0.02564   0.03251
 Alpha virt. eigenvalues --    0.03422   0.03989   0.04332   0.04381   0.04509

 Mulliken charges:
               1
     1  C    0.044537
     2  C   -0.103821
     3  C   -0.132104
     4  C   -0.057777
     5  N   -0.121323
     6  C   -0.052951
     7  C   -0.046974
     8  C   -0.083014
     9  C   -0.104832
    10  C   -0.014461
    11  C    0.038918
    12  C    0.058113
    13  C    0.116190
    14  O   -0.215870
    15  O   -0.207335
    16  N   -0.001693
    17  C    0.119542
    18  C   -0.219825
    19  C    0.021327
    20  C    0.120434
    21  C    0.257307
    22  C   -0.043691
    23  C   -0.130797
    24  N   -0.293003
    25  C    0.105863
    26  C   -0.174097
    27  C   -0.090149
    28  C    0.092663
    29  C    0.232264
    30  C    0.074566
    31  C   -0.039254
    32  N   -0.155317
    33  C    0.085556
    34  C   -0.164411
    35  C   -0.040205
    36  C    0.067087
    37  C    0.146348
    38  C    0.118311
    39  O   -0.145117
    40  C   -0.106466
    41  C    0.215386
    42  O   -0.240391
    43  O   -0.307036
    44  C    0.117395
    45  C    0.143133
    46  C   -0.054187
    47  C   -0.149188
    48  C    0.084782
    49  C    0.069466
    50  C    0.176869
    51  C   -0.007437
    52  C   -0.060769
    53  C    0.054032
    54  C    0.053929
    55  C   -0.024555
    56  C    0.018319
    57  C    0.082200
    58  C    0.052782
    59  C   -0.042177
    60  C    0.117704
    61  C    0.010433
    62  C   -0.110299
    63  C   -0.040141
    64  C    0.062823
    65  H    0.025555
    66  H   -0.011334
    67  H   -0.017576
    68  H    0.018718
    69  H    0.037431
    70  H    0.016904
    71  H    0.020694
    72  H    0.049314
    73  H    0.010132
    74  H    0.024176
    75  H    0.013241
    76  H   -0.000916
    77  H    0.075555
    78  H   -0.042063
    79  H   -0.032150
    80  H    0.027326
    81  H    0.077875
    82  H    0.064405
    83  H   -0.012246
    84  H   -0.028298
    85  H   -0.006231
    86  H   -0.003946
    87  H    0.001475
    88  H    0.012330
    89  H    0.027805
    90  H    0.020372
    91  H    0.038646
    92  H    0.008297
    93  H    0.007648
    94  H    0.095018
    95  H    0.060623
    96  H    0.032227
    97  H    0.039414
    98  H    0.044759
    99  H    0.047586
   100  H   -0.024078
   101  H   -0.024983
   102  H    0.025397
   103  H    0.049750
   104  H    0.012555
   105  H   -0.002510
   106  H   -0.025428
   107  H   -0.057120
   108  H   -0.016489
   109  H   -0.024154
   110  H   -0.038825
   111  H    0.010553
   112  H   -0.003228
   113  H    0.018034
   114  H   -0.023299
   115  H   -0.029178
   116  H    0.012954
   117  H    0.005135
   118  H   -0.007164
   119  H   -0.001756
   120  H   -0.042891
   121  H   -0.010515
   122  H    0.019707
   123  H   -0.028715
   124  H   -0.013410
   125  H   -0.034760
   126  H   -0.018164
   127  H    0.003759
   128  H   -0.015903
   129  H    0.008935
   130  H    0.002880
   131  H    0.003958
   132  H    0.003789
   133  H    0.003782
   134  H   -0.003202
   135  H    0.021818
   136  H   -0.033198
   137  H    0.121689
   138  H    0.233896
 Sum of Mulliken charges =   0.00000

 Dipole moment (field-independent basis, Debye):
    X=              2.6826    Y=              5.6059    Z=              1.3081  Tot=              6.3509
 Quadrupole moment (field-independent basis, Debye-Ang):
   XX=           -346.9655   YY=           -386.1942   ZZ=           -396.9477
   XY=            -29.2202   XZ=              2.3357   YZ=              3.3788

 Normal termination of Gaussian 09 at Sun Aug  4 19:24:13 2019.
