 Gaussian 09, Revision D.01,
 Gaussian 09:  ES64L-G09RevD.01 24-Apr-2013

 --------------------------
 # td=(NStates=1) B3LYP/SVP
 --------------------------

 --
 TD
 --
 Symbolic Z-matrix:
 Charge =  0 Multiplicity = 1

                         Standard orientation:
 ---------------------------------------------------------------------
 Center     Atomic      Atomic             Coordinates (Angstroms)
 Number     Number       Type             X           Y           Z
 ---------------------------------------------------------------------
      1          6           0       -5.095212   -1.974002    0.528553
      2          6           0       -4.666489    2.756202    1.513623
      3          6           0       -9.296680    3.363006   -0.252420
      4          6           0       -9.847198   -1.340984   -0.859911
      5          7           0       -5.126487    0.365241    0.817848
      6          6           0       -4.495610   -0.748079    0.877405
      7          6           0       -3.006772   -0.551777    1.255664
      8          6           0       -3.015616    0.886834    1.809388
      9          6           0       -4.384442    1.354483    1.348512
     10          6           0       -2.752431    0.939347    3.293655
     11          6           0       -2.120452   -0.794205    0.020413
     12          6           0       -0.520444   -0.816687    0.436134
     13          6           0        0.321624   -1.246838   -0.672244
     14          8           0        0.021563   -1.888175   -1.606120
     15          8           0        1.620493   -0.891295   -0.360439
     16          7           0       -6.951729    2.828268    0.478822
     17          6           0       -5.890363    3.417885    1.047663
     18          6           0       -6.168814    4.807331    0.995736
     19          6           0       -7.502422    4.978387    0.430595
     20          6           0       -8.031022    3.624191    0.203415
     21          6           0       -5.229216    5.864219    1.581491
     22          6           0       -8.021875    6.358915    0.218355
     23          6           0       -8.884470    6.711782   -0.734481
     24          7           0       -9.110474    0.951705   -0.540152
     25          6           0       -9.767937    2.099331   -0.579667
     26          6           0      -11.180028    1.968604   -0.890745
     27          6           0      -11.504991    0.674824   -1.036632
     28          6           0      -10.123976   -0.039982   -0.859830
     29          6           0      -12.174492    3.085291   -1.050939
     30          6           0      -12.718600   -0.092497   -1.535542
     31          6           0      -12.789467   -0.382894   -3.046862
     32          7           0       -7.539772   -1.240958   -0.134357
     33          6           0       -8.615070   -1.988489   -0.572179
     34          6           0       -8.269549   -3.371647   -0.589354
     35          6           0       -6.916686   -3.336477   -0.196337
     36          6           0       -6.441119   -1.986247    0.031026
     37          6           0       -9.041064   -4.522819   -0.885445
     38          6           0       -5.741108   -4.342021    0.006392
     39          8           0       -5.757024   -5.433787   -0.179840
     40          6           0       -4.522059   -3.334316    0.490028
     41          6           0       -3.838009   -3.813934    1.746435
     42          8           0       -4.093929   -3.198515    2.871607
     43          8           0       -3.238066   -4.944911    1.663262
     44          6           0       -2.796907   -5.661832    2.910710
     45          6           0        2.676771   -1.352164   -1.240467
     46          6           0        3.932188   -0.844857   -0.732150
     47          6           0        4.888008   -0.042734   -1.232412
     48          6           0        4.899854    0.471897   -2.702747
     49          6           0        6.229471    0.263131   -0.530024
     50          6           0        7.555297   -0.422195   -1.079788
     51          6           0        8.839302   -0.262975   -0.359296
     52          6           0       10.143522   -0.859586   -0.980890
     53          6           0       10.107313   -2.381350   -0.965931
     54          6           0       11.214364   -0.302142   -0.103292
     55          6           0       12.586223   -0.481007   -0.682907
     56          6           0       13.819214   -0.021141    0.098460
     57          6           0       15.216723   -0.184419   -0.421006
     58          6           0       15.671009   -1.575370   -0.642659
     59          6           0       16.126828    0.571619    0.440382
     60          6           0       17.652993    0.662297    0.004483
     61          6           0       18.568912    1.653798    0.821572
     62          6           0       20.024141    1.802042    0.322979
     63          6           0       20.152985    2.363730   -1.081901
     64          6           0       20.882597    2.652685    1.404310
     65          1           0       -3.987392    3.398580    1.945111
     66          1           0      -10.074053    4.292695   -0.179814
     67          1           0      -10.732478   -1.946804   -0.871339
     68          1           0       -2.820074   -1.397203    2.080962
     69          1           0       -2.100717    1.419185    1.308273
     70          1           0       -1.555958    0.548573    3.572705
     71          1           0       -2.638387    2.156988    3.708191
     72          1           0       -3.605348    0.537821    3.798917
     73          1           0       -2.366950   -1.809309   -0.457911
     74          1           0       -2.121044   -0.020226   -0.860883
     75          1           0       -0.125274   -0.022454    0.971596
     76          1           0       -0.203247   -1.431669    1.455689
     77          1           0       -4.322081    5.915179    1.050488
     78          1           0       -5.622364    6.687757    1.708385
     79          1           0       -4.874661    5.565625    2.689260
     80          1           0       -7.718354    7.276538    0.644659
     81          1           0       -9.386896    5.989207   -1.340085
     82          1           0       -9.176207    7.860741   -0.760562
     83          1           0      -12.001139    3.548374   -0.162975
     84          1           0      -12.168917    3.768241   -1.852871
     85          1           0      -13.282117    2.693817   -0.904816
     86          1           0      -12.893952   -0.968864   -0.905386
     87          1           0      -13.559151    0.619535   -1.288297
     88          1           0      -12.473723    0.538605   -3.731697
     89          1           0      -11.831361   -1.027180   -3.152643
     90          1           0      -13.806766   -0.824089   -3.449012
     91          1           0       -9.835783   -4.745439    0.046940
     92          1           0       -9.687431   -4.207251   -1.867326
     93          1           0       -8.441668   -5.453791   -1.226038
     94          1           0       -3.807104   -3.334273   -0.329384
     95          1           0       -2.264354   -6.525041    2.478550
     96          1           0       -2.209295   -4.906870    3.678103
     97          1           0       -3.707261   -6.068011    3.546994
     98          1           0        2.781628   -2.432270   -1.342423
     99          1           0        2.458400   -0.954402   -2.253044
    100          1           0        4.038574   -1.366716    0.162614
    101          1           0        5.483065    1.321242   -2.882512
    102          1           0        5.453894   -0.243738   -3.552413
    103          1           0        3.840298    0.555556   -2.803087
    104          1           0        6.475383    1.361944   -0.525037
    105          1           0        6.158400   -0.087878    0.353615
    106          1           0        7.348013   -1.402177   -1.083763
    107          1           0        7.638506    0.008616   -2.017189
    108          1           0        9.006847    0.881349   -0.279926
    109          1           0        8.555136   -0.514157    0.631954
    110          1           0       10.339754   -0.411364   -1.790337
    111          1           0        9.096065   -2.659027   -1.489678
    112          1           0       11.077493   -2.942648   -1.476871
    113          1           0       10.368223   -2.847263   -0.021125
    114          1           0       10.812070    0.792709   -0.177363
    115          1           0       11.222439   -0.531645    0.997695
    116          1           0       12.744181   -1.532143   -1.053658
    117          1           0       12.554965    0.098240   -1.639748
    118          1           0       13.494336    0.878951    0.404148
    119          1           0       13.828014   -0.491111    1.247717
    120          1           0       15.034608    0.235742   -1.419450
    121          1           0       14.811496   -2.035094   -1.248547
    122          1           0       16.560889   -1.672990   -1.142870
    123          1           0       15.698147   -2.206445    0.187973
    124          1           0       15.575066    1.667584    0.497379
    125          1           0       16.160890    0.258690    1.627012
    126          1           0       18.220164   -0.254028    0.365700
    127          1           0       17.852488    0.771523   -1.068656
    128          1           0       17.825062    2.693379    0.821568
    129          1           0       18.529924    1.356624    1.710779
    130          1           0       20.362554    0.853900    0.280632
    131          1           0       19.896454    3.389306   -1.012512
    132          1           0       21.246023    2.418712   -1.488434
    133          1           0       19.786070    1.801784   -1.686112
    134          1           0       20.573777    2.141121    2.479829
    135          1           0       21.857319    2.446721    1.281950
    136          1           0       20.765186    3.919180    1.414799
    137          1           0       -6.884151    1.825650    0.434707
    138          1           0       -7.403706   -0.235738   -0.167909
 ---------------------------------------------------------------------

 SCF Done:  E(RB3LYP) =  -2732.90098202     A.U. after   17 cycles

 Excitation energies and oscillator strengths:

 Excited State   1:      Singlet-A      2.0698 eV  599.03 nm  f=0.2493  <S**2>=0.000
     235 -> 237       -0.20496
     235 -> 238       -0.23968
     236 -> 237        0.61970
     236 -> 238       -0.13774
 This state for optimization and/or second-order correction.
 Total Energy, E(TD-HF/TD-KS) =  -2732.82491970
 Copying the excited state density for this state as the 1-particle RhoCI density.

 The electronic state is 1-A.
 Alpha  occ. eigenvalues --  -19.20032 -19.16482 -19.14220 -19.12723 -19.10826
 Alpha  occ. eigenvalues --  -14.36717 -14.36582 -14.32232 -14.30030 -10.31969
 Alpha  occ. eigenvalues --  -10.30934 -10.28586 -10.28160 -10.24195 -10.23958
 Alpha  occ. eigenvalues --  -10.23321 -10.23234 -10.23148 -10.22546 -10.22135
 Alpha  occ. eigenvalues --  -10.21715 -10.21677 -10.21399 -10.21361 -10.21033
 Alpha  occ. eigenvalues --  -10.21030 -10.20817 -10.20804 -10.20682 -10.20460
 Alpha  occ. eigenvalues --  -10.20420 -10.20328 -10.20270 -10.20254 -10.20162
 Alpha  occ. eigenvalues --  -10.20054 -10.20048 -10.19877 -10.19856 -10.19774
 Alpha  occ. eigenvalues --  -10.19772 -10.19614 -10.19343 -10.19250 -10.19082
 Alpha  occ. eigenvalues --  -10.18888 -10.18782 -10.18775 -10.18477 -10.18320
 Alpha  occ. eigenvalues --  -10.18262 -10.18253 -10.18249 -10.18190 -10.18154
 Alpha  occ. eigenvalues --  -10.18153 -10.18124 -10.18061 -10.17851 -10.17802
 Alpha  occ. eigenvalues --  -10.17801 -10.16578 -10.16445 -10.16034  -1.10606
 Alpha  occ. eigenvalues --   -1.10080  -1.09178  -1.01325  -0.98785  -0.98428
 Alpha  occ. eigenvalues --   -0.96335  -0.95847  -0.92345  -0.83770  -0.83698
 Alpha  occ. eigenvalues --   -0.82460  -0.81750  -0.81174  -0.80827  -0.80250
 Alpha  occ. eigenvalues --   -0.80163  -0.80062  -0.79398  -0.78931  -0.78286
 Alpha  occ. eigenvalues --   -0.76982  -0.76013  -0.75762  -0.74976  -0.74489
 Alpha  occ. eigenvalues --   -0.74042  -0.73200  -0.72462  -0.71905  -0.70833
 Alpha  occ. eigenvalues --   -0.69953  -0.69583  -0.68714  -0.68482  -0.68146
 Alpha  occ. eigenvalues --   -0.67880  -0.67805  -0.66526  -0.65969  -0.64772
 Alpha  occ. eigenvalues --   -0.63321  -0.62807  -0.61717  -0.61235  -0.61186
 Alpha  occ. eigenvalues --   -0.60981  -0.59325  -0.58372  -0.57830  -0.57466
 Alpha  occ. eigenvalues --   -0.56769  -0.56516  -0.56094  -0.56021  -0.55725
 Alpha  occ. eigenvalues --   -0.55306  -0.55301  -0.55217  -0.54218  -0.53976
 Alpha  occ. eigenvalues --   -0.52724  -0.52009  -0.51650  -0.51182  -0.50551
 Alpha  occ. eigenvalues --   -0.49546  -0.49498  -0.49212  -0.49026  -0.48760
 Alpha  occ. eigenvalues --   -0.48232  -0.47836  -0.47626  -0.47587  -0.47034
 Alpha  occ. eigenvalues --   -0.46716  -0.46500  -0.46014  -0.45725  -0.45648
 Alpha  occ. eigenvalues --   -0.45515  -0.45473  -0.45294  -0.45174  -0.44821
 Alpha  occ. eigenvalues --   -0.44540  -0.44368  -0.44327  -0.43948  -0.43777
 Alpha  occ. eigenvalues --   -0.43533  -0.43455  -0.43128  -0.43017  -0.42852
 Alpha  occ. eigenvalues --   -0.42655  -0.42306  -0.42273  -0.41889  -0.41821
 Alpha  occ. eigenvalues --   -0.41604  -0.41294  -0.40960  -0.40734  -0.40609
 Alpha  occ. eigenvalues --   -0.40430  -0.40192  -0.40105  -0.39667  -0.39510
 Alpha  occ. eigenvalues --   -0.39382  -0.39219  -0.39120  -0.38928  -0.38552
 Alpha  occ. eigenvalues --   -0.38392  -0.38319  -0.38070  -0.38063  -0.37769
 Alpha  occ. eigenvalues --   -0.37588  -0.37453  -0.37158  -0.36919  -0.36622
 Alpha  occ. eigenvalues --   -0.36310  -0.36061  -0.35840  -0.35753  -0.35642
 Alpha  occ. eigenvalues --   -0.35265  -0.35153  -0.34763  -0.34705  -0.34656
 Alpha  occ. eigenvalues --   -0.34355  -0.34316  -0.33675  -0.33592  -0.33476
 Alpha  occ. eigenvalues --   -0.33045  -0.33022  -0.32675  -0.32550  -0.32049
 Alpha  occ. eigenvalues --   -0.31798  -0.31684  -0.31650  -0.31334  -0.31121
 Alpha  occ. eigenvalues --   -0.30660  -0.30588  -0.30508  -0.29996  -0.29921
 Alpha  occ. eigenvalues --   -0.29509  -0.28711  -0.28676  -0.28309  -0.27656
 Alpha  occ. eigenvalues --   -0.26871  -0.26664  -0.26366  -0.26141  -0.25396
 Alpha  occ. eigenvalues --   -0.24903  -0.24726  -0.23292  -0.23187  -0.19910
 Alpha  occ. eigenvalues --   -0.18304
 Alpha virt. eigenvalues --   -0.10133  -0.06683  -0.03181  -0.01715  -0.00857
 Alpha virt. eigenvalues --   -0.00491  -0.00132   0.01026   0.02295   0.03686
 Alpha virt. eigenvalues --    0.03763   0.04365   0.04615   0.04672   0.05035

 Mulliken charges:
               1
     1  C   -0.001400
     2  C    0.005600
     3  C   -0.215309
     4  C   -0.079019
     5  N   -0.105407
     6  C   -0.107358
     7  C   -0.064864
     8  C   -0.040073
     9  C    0.024298
    10  C   -0.025019
    11  C    0.036400
    12  C    0.002603
    13  C    0.183301
    14  O   -0.184427
    15  O   -0.359188
    16  N   -0.017188
    17  C    0.023112
    18  C   -0.168655
    19  C    0.033102
    20  C    0.153886
    21  C    0.216792
    22  C   -0.019970
    23  C   -0.078735
    24  N   -0.247421
    25  C    0.116614
    26  C   -0.169920
    27  C   -0.076725
    28  C    0.030883
    29  C    0.132456
    30  C    0.086636
    31  C   -0.045765
    32  N    0.006935
    33  C    0.094098
    34  C   -0.089678
    35  C   -0.120089
    36  C    0.046243
    37  C   -0.032035
    38  C    0.089786
    39  O   -0.028145
    40  C   -0.033663
    41  C    0.210205
    42  O   -0.337755
    43  O   -0.251208
    44  C    0.113643
    45  C    0.303439
    46  C   -0.096867
    47  C   -0.117636
    48  C    0.042355
    49  C    0.146189
    50  C    0.093679
    51  C   -0.017044
    52  C    0.103625
    53  C    0.000626
    54  C   -0.039580
    55  C    0.060015
    56  C    0.014767
    57  C    0.010169
    58  C    0.110021
    59  C   -0.038884
    60  C   -0.001725
    61  C    0.068485
    62  C   -0.043299
    63  C    0.159743
    64  C   -0.009957
    65  H   -0.060843
    66  H    0.044878
    67  H   -0.029278
    68  H    0.053663
    69  H    0.017928
    70  H    0.039932
    71  H    0.019490
    72  H    0.036941
    73  H    0.036913
    74  H    0.037874
    75  H   -0.016638
    76  H    0.039580
    77  H    0.011777
    78  H   -0.075823
    79  H    0.023861
    80  H   -0.021866
    81  H    0.010613
    82  H    0.035999
    83  H   -0.006392
    84  H    0.022259
    85  H    0.011698
    86  H    0.010792
    87  H   -0.010494
    88  H    0.029274
    89  H    0.019612
    90  H    0.048360
    91  H    0.063995
    92  H    0.039012
    93  H    0.061063
    94  H    0.049297
    95  H    0.058994
    96  H    0.084273
    97  H    0.069301
    98  H    0.020853
    99  H   -0.000775
   100  H   -0.034463
   101  H   -0.003810
   102  H    0.043475
   103  H    0.022977
   104  H    0.003941
   105  H   -0.077752
   106  H   -0.033757
   107  H   -0.036454
   108  H   -0.015472
   109  H   -0.024208
   110  H   -0.093504
   111  H    0.038033
   112  H    0.015014
   113  H    0.008086
   114  H   -0.009305
   115  H   -0.000622
   116  H   -0.011032
   117  H   -0.019050
   118  H   -0.048730
   119  H   -0.028132
   120  H   -0.017488
   121  H   -0.008940
   122  H   -0.008584
   123  H   -0.022245
   124  H    0.007101
   125  H    0.016401
   126  H   -0.003683
   127  H    0.006220
   128  H   -0.006462
   129  H   -0.077424
   130  H   -0.044476
   131  H    0.001143
   132  H   -0.009481
   133  H   -0.080799
   134  H    0.019275
   135  H   -0.013485
   136  H    0.041532
   137  H    0.128268
   138  H    0.146073
 Sum of Mulliken charges =   0.00000

 Dipole moment (field-independent basis, Debye):
    X=              2.1897    Y=              1.1162    Z=              0.6782  Tot=              2.5497
 Quadrupole moment (field-independent basis, Debye-Ang):
   XX=           -351.2871   YY=           -371.6453   ZZ=           -396.6656
   XY=            -21.4296   XZ=             -0.9232   YZ=             -8.3419

 Normal termination of Gaussian 09 at Thu Aug  1 16:20:09 2019.
