 Gaussian 09, Revision D.01,
 Gaussian 09:  ES64L-G09RevD.01 24-Apr-2013

 --------------------------
 # td=(NStates=1) B3LYP/SVP
 --------------------------

 --
 TD
 --
 Symbolic Z-matrix:
 Charge =  0 Multiplicity = 1

                         Standard orientation:
 ---------------------------------------------------------------------
 Center     Atomic      Atomic             Coordinates (Angstroms)
 Number     Number       Type             X           Y           Z
 ---------------------------------------------------------------------
      1          6           0       -5.057563   -1.915286    0.455664
      2          6           0       -4.644149    2.767661    1.326583
      3          6           0       -9.357027    3.219165   -0.246220
      4          6           0       -9.852448   -1.534769   -0.796823
      5          7           0       -5.063859    0.483928    0.553123
      6          6           0       -4.397273   -0.686063    0.728118
      7          6           0       -3.039994   -0.647541    1.224387
      8          6           0       -3.048469    0.829023    1.844717
      9          6           0       -4.365618    1.387791    1.284829
     10          6           0       -2.892011    0.850375    3.295157
     11          6           0       -2.073975   -0.734998    0.046535
     12          6           0       -0.638237   -0.526864    0.473042
     13          6           0        0.429083   -0.860080   -0.610716
     14          8           0        0.145372   -1.463561   -1.674168
     15          8           0        1.768199   -0.662817   -0.328489
     16          7           0       -6.946889    2.761636    0.435619
     17          6           0       -5.942338    3.363083    0.976135
     18          6           0       -6.245966    4.757833    1.155996
     19          6           0       -7.450726    4.987440    0.549235
     20          6           0       -7.994692    3.543060    0.159848
     21          6           0       -5.357592    5.868324    1.559101
     22          6           0       -8.289961    6.167257    0.443965
     23          6           0       -8.918593    6.563484   -0.609240
     24          7           0       -9.091561    0.852135   -0.602518
     25          6           0       -9.887427    2.035699   -0.576401
     26          6           0      -11.331174    1.797885   -0.920461
     27          6           0      -11.368050    0.405630   -1.088773
     28          6           0      -10.130959   -0.082837   -0.767988
     29          6           0      -12.402782    2.918412   -1.034926
     30          6           0      -12.568704   -0.314465   -1.666401
     31          6           0      -12.511747   -0.536684   -3.149984
     32          7           0       -7.471099   -1.193256   -0.261898
     33          6           0       -8.508279   -2.024128   -0.633923
     34          6           0       -8.144149   -3.421162   -0.556205
     35          6           0       -6.760255   -3.375892   -0.184421
     36          6           0       -6.447069   -2.027752    0.040571
     37          6           0       -9.058212   -4.495071   -0.929383
     38          6           0       -5.657482   -4.162801    0.144421
     39          8           0       -5.636401   -5.384967   -0.070318
     40          6           0       -4.371707   -3.361946    0.433046
     41          6           0       -3.931473   -3.715147    1.846381
     42          8           0       -4.244548   -3.232293    2.916657
     43          8           0       -3.092113   -4.749693    1.672366
     44          6           0       -2.520649   -5.373692    2.899786
     45          6           0        2.757556   -1.191039   -1.209651
     46          6           0        4.097004   -0.706266   -0.658487
     47          6           0        4.965876    0.075633   -1.279647
     48          6           0        4.695704    0.708304   -2.585855
     49          6           0        6.253713    0.323308   -0.476961
     50          6           0        7.411367   -0.259068   -1.192381
     51          6           0        8.651495   -0.309181   -0.289240
     52          6           0        9.985169   -0.810970   -0.932314
     53          6           0        9.957094   -2.347115   -1.126804
     54          6           0       11.188962   -0.367238   -0.097239
     55          6           0       12.672412   -0.564145   -0.772072
     56          6           0       13.696570   -0.024753    0.223257
     57          6           0       15.155910   -0.233317   -0.268700
     58          6           0       15.677446   -1.756544   -0.362509
     59          6           0       16.151555    0.654438    0.530056
     60          6           0       17.701681    0.599670    0.038410
     61          6           0       18.661522    1.580347    0.745839
     62          6           0       20.008151    1.742535    0.215855
     63          6           0       20.089644    2.536775   -1.147277
     64          6           0       20.887559    2.346514    1.273818
     65          1           0       -3.971348    3.527628    1.879046
     66          1           0      -10.051324    4.035227   -0.388636
     67          1           0      -10.763846   -2.204402   -0.975941
     68          1           0       -2.843701   -1.406668    2.101441
     69          1           0       -2.172090    1.423917    1.355150
     70          1           0       -1.945887    0.325164    3.685809
     71          1           0       -3.042882    1.826312    3.720815
     72          1           0       -3.779798    0.218413    3.600858
     73          1           0       -2.365388   -1.549126   -0.362874
     74          1           0       -2.176966   -0.117510   -0.738045
     75          1           0       -0.291017    0.504588    0.740547
     76          1           0       -0.211857   -1.129525    1.507247
     77          1           0       -4.309399    5.795980    0.815284
     78          1           0       -5.698442    7.016382    1.351372
     79          1           0       -5.428172    5.783588    2.686726
     80          1           0       -8.311788    6.844718    1.444707
     81          1           0       -8.924666    5.852551   -1.406563
     82          1           0       -9.676368    7.371695   -0.462366
     83          1           0      -12.373262    3.608089   -0.098884
     84          1           0      -12.444433    3.643170   -1.957381
     85          1           0      -13.450883    2.373911   -1.015424
     86          1           0      -12.540064   -1.281143   -0.981301
     87          1           0      -13.468985    0.142305   -1.462916
     88          1           0      -12.791767    0.436190   -3.561762
     89          1           0      -11.459206   -1.026760   -3.309794
     90          1           0      -13.253154   -1.239687   -3.367779
     91          1           0       -9.714503   -4.772767    0.039975
     92          1           0       -9.970451   -4.096705   -1.688880
     93          1           0       -8.526030   -5.378030   -1.015286
     94          1           0       -3.587458   -3.689408   -0.189577
     95          1           0       -1.704615   -6.069185    2.677522
     96          1           0       -1.909950   -4.551568    3.401104
     97          1           0       -3.395123   -5.664714    3.397141
     98          1           0        2.580537   -2.289015   -1.626134
     99          1           0        2.371945   -0.880108   -2.151717
    100          1           0        4.446564   -1.239223    0.231575
    101          1           0        5.058753    1.832790   -2.535998
    102          1           0        5.424266    0.030156   -3.230225
    103          1           0        3.582834    0.456556   -2.909509
    104          1           0        6.350246    1.454694   -0.477596
    105          1           0        6.216571   -0.115987    0.521489
    106          1           0        7.185354   -1.248854   -1.468408
    107          1           0        7.595259    0.305697   -2.078320
    108          1           0        8.928633    0.605472    0.226510
    109          1           0        8.428920   -1.172384    0.670602
    110          1           0       10.098551   -0.310572   -1.857052
    111          1           0        9.101255   -2.568326   -1.781964
    112          1           0       10.881387   -2.940382   -1.585528
    113          1           0        9.887739   -3.029195   -0.272949
    114          1           0       10.960951    0.725296    0.395101
    115          1           0       11.069652   -1.013093    0.809113
    116          1           0       12.788679   -1.633890   -0.559576
    117          1           0       12.823688   -0.260599   -1.748299
    118          1           0       13.673890    1.085604   -0.003236
    119          1           0       13.496849   -0.390499    1.186432
    120          1           0       15.317068   -0.084881   -1.318287
    121          1           0       14.861647   -2.535820   -0.829993
    122          1           0       16.544223   -2.034633   -1.081160
    123          1           0       16.162975   -2.118668    0.569254
    124          1           0       15.728566    1.759125    0.697423
    125          1           0       16.133938    0.358785    1.559178
    126          1           0       17.969276   -0.474660    0.065676
    127          1           0       17.691606    0.937059   -1.087191
    128          1           0       18.095253    2.502877    0.718145
    129          1           0       18.727947    1.054336    1.838348
    130          1           0       20.169002    0.664555   -0.110681
    131          1           0       19.823254    3.676097   -0.935231
    132          1           0       21.079944    2.500326   -1.582495
    133          1           0       19.347617    2.208566   -2.005696
    134          1           0       20.707492    1.942400    2.191294
    135          1           0       22.108269    2.349946    0.937669
    136          1           0       20.770409    3.366412    1.315155
    137          1           0       -6.939719    1.811039    0.481584
    138          1           0       -7.779012   -0.201065   -0.059777
 ---------------------------------------------------------------------

 SCF Done:  E(RB3LYP) =  -2733.02158371     A.U. after   17 cycles

 Excitation energies and oscillator strengths:

 Excited State   1:      Singlet-A      1.9765 eV  627.28 nm  f=0.1651  <S**2>=0.000
     235 -> 237       -0.19459
     235 -> 238        0.27862
     236 -> 237        0.60655
     236 -> 238        0.11667
 This state for optimization and/or second-order correction.
 Total Energy, E(TD-HF/TD-KS) =  -2732.94894730
 Copying the excited state density for this state as the 1-particle RhoCI density.

 The electronic state is 1-A.
 Alpha  occ. eigenvalues --  -19.17560 -19.17053 -19.12578 -19.11851 -19.10716
 Alpha  occ. eigenvalues --  -14.37916 -14.36581 -14.32386 -14.30534 -10.31804
 Alpha  occ. eigenvalues --  -10.31588 -10.26530 -10.25094 -10.24741 -10.24363
 Alpha  occ. eigenvalues --  -10.23898 -10.23774 -10.23204 -10.23102 -10.22901
 Alpha  occ. eigenvalues --  -10.22503 -10.22492 -10.21965 -10.21788 -10.21462
 Alpha  occ. eigenvalues --  -10.21360 -10.21352 -10.21319 -10.21027 -10.20959
 Alpha  occ. eigenvalues --  -10.20736 -10.20691 -10.20609 -10.20319 -10.20296
 Alpha  occ. eigenvalues --  -10.20079 -10.19971 -10.19962 -10.19957 -10.19889
 Alpha  occ. eigenvalues --  -10.19458 -10.19447 -10.19408 -10.19339 -10.19324
 Alpha  occ. eigenvalues --  -10.19163 -10.19131 -10.19038 -10.18996 -10.18975
 Alpha  occ. eigenvalues --  -10.18903 -10.18766 -10.18737 -10.18650 -10.18564
 Alpha  occ. eigenvalues --  -10.18487 -10.18486 -10.18457 -10.18265 -10.18254
 Alpha  occ. eigenvalues --  -10.18068 -10.17954 -10.17938 -10.17816  -1.08744
 Alpha  occ. eigenvalues --   -1.07549  -1.01706  -1.00644  -1.00175  -0.98188
 Alpha  occ. eigenvalues --   -0.98024  -0.94891  -0.92093  -0.84470  -0.83209
 Alpha  occ. eigenvalues --   -0.82649  -0.82217  -0.81607  -0.80949  -0.80897
 Alpha  occ. eigenvalues --   -0.80108  -0.79562  -0.79547  -0.78426  -0.77750
 Alpha  occ. eigenvalues --   -0.77021  -0.76497  -0.76009  -0.74776  -0.74439
 Alpha  occ. eigenvalues --   -0.73631  -0.72818  -0.72347  -0.71268  -0.70207
 Alpha  occ. eigenvalues --   -0.70003  -0.69407  -0.68891  -0.67605  -0.67417
 Alpha  occ. eigenvalues --   -0.67328  -0.66508  -0.66023  -0.65904  -0.65214
 Alpha  occ. eigenvalues --   -0.63781  -0.63577  -0.62815  -0.62473  -0.61607
 Alpha  occ. eigenvalues --   -0.61317  -0.58894  -0.57866  -0.57331  -0.57197
 Alpha  occ. eigenvalues --   -0.56903  -0.56287  -0.56216  -0.56117  -0.55584
 Alpha  occ. eigenvalues --   -0.55199  -0.54565  -0.54110  -0.53403  -0.52897
 Alpha  occ. eigenvalues --   -0.52467  -0.51389  -0.51088  -0.50516  -0.50191
 Alpha  occ. eigenvalues --   -0.49698  -0.49322  -0.48811  -0.48430  -0.48044
 Alpha  occ. eigenvalues --   -0.47959  -0.47648  -0.47354  -0.47305  -0.47140
 Alpha  occ. eigenvalues --   -0.46779  -0.46682  -0.46243  -0.45912  -0.45873
 Alpha  occ. eigenvalues --   -0.45509  -0.45140  -0.44705  -0.44531  -0.44458
 Alpha  occ. eigenvalues --   -0.44350  -0.44223  -0.44131  -0.44073  -0.43675
 Alpha  occ. eigenvalues --   -0.43357  -0.43149  -0.42938  -0.42807  -0.42243
 Alpha  occ. eigenvalues --   -0.42131  -0.42016  -0.41919  -0.41651  -0.41397
 Alpha  occ. eigenvalues --   -0.41182  -0.41092  -0.41002  -0.40749  -0.40324
 Alpha  occ. eigenvalues --   -0.40222  -0.39988  -0.39852  -0.39684  -0.39220
 Alpha  occ. eigenvalues --   -0.39173  -0.39000  -0.38920  -0.38545  -0.38420
 Alpha  occ. eigenvalues --   -0.38011  -0.37742  -0.37303  -0.37207  -0.37096
 Alpha  occ. eigenvalues --   -0.37072  -0.36869  -0.36734  -0.36649  -0.36409
 Alpha  occ. eigenvalues --   -0.36265  -0.36095  -0.35905  -0.35853  -0.35532
 Alpha  occ. eigenvalues --   -0.35389  -0.35212  -0.35003  -0.34901  -0.34704
 Alpha  occ. eigenvalues --   -0.34653  -0.34373  -0.34148  -0.33628  -0.33230
 Alpha  occ. eigenvalues --   -0.33107  -0.32994  -0.32740  -0.32594  -0.32161
 Alpha  occ. eigenvalues --   -0.31849  -0.31542  -0.31324  -0.31264  -0.31036
 Alpha  occ. eigenvalues --   -0.30590  -0.30498  -0.30281  -0.30231  -0.29631
 Alpha  occ. eigenvalues --   -0.29265  -0.28832  -0.28615  -0.28259  -0.28192
 Alpha  occ. eigenvalues --   -0.28071  -0.27550  -0.27105  -0.26317  -0.25284
 Alpha  occ. eigenvalues --   -0.24947  -0.24648  -0.24093  -0.22633  -0.19521
 Alpha  occ. eigenvalues --   -0.18753
 Alpha virt. eigenvalues --   -0.10486  -0.07645  -0.04478  -0.01824  -0.01185
 Alpha virt. eigenvalues --   -0.00337   0.00845   0.01054   0.01859   0.03201
 Alpha virt. eigenvalues --    0.03522   0.03965   0.04153   0.04321   0.04633

 Mulliken charges:
               1
     1  C   -0.047339
     2  C   -0.059867
     3  C   -0.055869
     4  C   -0.106565
     5  N   -0.167918
     6  C   -0.077056
     7  C   -0.121431
     8  C   -0.049318
     9  C    0.013306
    10  C    0.077213
    11  C    0.296075
    12  C   -0.016892
    13  C    0.187348
    14  O   -0.285965
    15  O   -0.320627
    16  N    0.144539
    17  C   -0.040489
    18  C   -0.119252
    19  C    0.012370
    20  C    0.035507
    21  C   -0.033370
    22  C   -0.101214
    23  C    0.005573
    24  N   -0.324289
    25  C    0.078017
    26  C   -0.089291
    27  C   -0.106244
    28  C    0.075778
    29  C   -0.006005
    30  C    0.030344
    31  C    0.072046
    32  N   -0.030277
    33  C    0.060003
    34  C   -0.128685
    35  C    0.059781
    36  C    0.115671
    37  C    0.085380
    38  C   -0.008197
    39  O   -0.215897
    40  C    0.042001
    41  C    0.195006
    42  O   -0.232356
    43  O   -0.328991
    44  C    0.205990
    45  C    0.212883
    46  C   -0.029575
    47  C   -0.184953
    48  C    0.027707
    49  C    0.110090
    50  C    0.084689
    51  C   -0.049031
    52  C    0.019962
    53  C   -0.009211
    54  C   -0.064590
    55  C    0.077446
    56  C    0.071106
    57  C   -0.034155
    58  C   -0.092037
    59  C    0.008450
    60  C   -0.032840
    61  C    0.013945
    62  C   -0.059488
    63  C   -0.040772
    64  C    0.106427
    65  H    0.009140
    66  H   -0.035541
    67  H    0.006826
    68  H    0.052834
    69  H    0.008457
    70  H    0.027061
    71  H    0.003484
    72  H    0.021340
    73  H   -0.079919
    74  H   -0.027432
    75  H    0.039866
    76  H    0.056930
    77  H    0.071344
    78  H    0.046490
    79  H    0.046614
    80  H    0.028614
    81  H    0.022095
    82  H    0.030165
    83  H    0.044084
    84  H    0.051458
    85  H    0.027793
    86  H    0.007634
    87  H   -0.034443
    88  H    0.018953
    89  H    0.034465
    90  H   -0.001122
    91  H    0.035489
    92  H    0.061020
    93  H    0.011137
    94  H    0.042431
    95  H    0.043369
    96  H    0.029893
    97  H    0.042414
    98  H    0.030237
    99  H   -0.021834
   100  H   -0.012428
   101  H    0.044653
   102  H    0.045549
   103  H    0.051048
   104  H    0.002154
   105  H   -0.002949
   106  H   -0.016842
   107  H   -0.011560
   108  H   -0.009003
   109  H    0.002578
   110  H   -0.026138
   111  H    0.005375
   112  H    0.013490
   113  H    0.001205
   114  H    0.002502
   115  H   -0.008566
   116  H    0.003368
   117  H   -0.010341
   118  H    0.006417
   119  H   -0.004821
   120  H   -0.012418
   121  H    0.025454
   122  H    0.017553
   123  H    0.009483
   124  H   -0.000626
   125  H   -0.020691
   126  H    0.006715
   127  H    0.001078
   128  H   -0.014146
   129  H    0.009647
   130  H   -0.004652
   131  H    0.013909
   132  H    0.015566
   133  H    0.027240
   134  H   -0.013030
   135  H    0.009872
   136  H   -0.020086
   137  H    0.097455
   138  H    0.170041
 Sum of Mulliken charges =   0.00000

 Dipole moment (field-independent basis, Debye):
    X=              0.9684    Y=              3.9342    Z=              1.5874  Tot=              4.3515
 Quadrupole moment (field-independent basis, Debye-Ang):
   XX=           -337.4412   YY=           -384.9003   ZZ=           -395.9806
   XY=            -26.5381   XZ=             -1.0282   YZ=             -4.0351

 Normal termination of Gaussian 09 at Thu Aug  1 20:12:18 2019.
