 Gaussian 09, Revision D.01,
 Gaussian 09:  ES64L-G09RevD.01 24-Apr-2013

 --------------------------
 # td=(NStates=1) B3LYP/SVP
 --------------------------

 --
 TD
 --
 Symbolic Z-matrix:
 Charge =  0 Multiplicity = 1

                         Standard orientation:
 ---------------------------------------------------------------------
 Center     Atomic      Atomic             Coordinates (Angstroms)
 Number     Number       Type             X           Y           Z
 ---------------------------------------------------------------------
      1          6           0       -5.136573   -1.845890    0.423739
      2          6           0       -4.691463    2.791101    1.180609
      3          6           0       -9.394187    3.263645   -0.033228
      4          6           0       -9.895622   -1.437873   -0.857100
      5          7           0       -5.173869    0.380915    0.723170
      6          6           0       -4.421533   -0.715238    0.739640
      7          6           0       -2.944013   -0.472249    1.041552
      8          6           0       -2.948546    0.998821    1.522115
      9          6           0       -4.416311    1.432990    1.060145
     10          6           0       -2.801951    1.247081    3.103023
     11          6           0       -2.020537   -0.706651   -0.191463
     12          6           0       -0.532312   -0.686756    0.325608
     13          6           0        0.448502   -1.145339   -0.669506
     14          8           0        0.234179   -1.560168   -1.756537
     15          8           0        1.745430   -0.855052   -0.240620
     16          7           0       -7.033158    2.805179    0.252826
     17          6           0       -5.940550    3.435807    0.808318
     18          6           0       -6.258251    4.905620    0.965913
     19          6           0       -7.578293    5.030784    0.506588
     20          6           0       -8.090015    3.675682    0.271070
     21          6           0       -5.209139    5.801013    1.355639
     22          6           0       -8.290269    6.263234    0.269572
     23          6           0       -9.252932    6.462837   -0.601836
     24          7           0       -9.294456    0.850604   -0.405742
     25          6           0      -10.026546    2.080854   -0.329921
     26          6           0      -11.432523    1.891244   -0.784673
     27          6           0      -11.539149    0.530311   -0.957906
     28          6           0      -10.236272   -0.059077   -0.712182
     29          6           0      -12.426865    2.971137   -0.866528
     30          6           0      -12.748222   -0.183072   -1.348830
     31          6           0      -12.728900   -0.745050   -2.911404
     32          7           0       -7.524006   -1.236599   -0.167790
     33          6           0       -8.651911   -2.006950   -0.468050
     34          6           0       -8.299569   -3.385386   -0.553581
     35          6           0       -6.888088   -3.417267   -0.149902
     36          6           0       -6.442615   -2.082988    0.019539
     37          6           0       -9.055827   -4.616178   -1.056107
     38          6           0       -5.717954   -4.297493    0.057640
     39          8           0       -5.637043   -5.477924   -0.049224
     40          6           0       -4.578771   -3.367268    0.349519
     41          6           0       -3.883806   -3.767463    1.654543
     42          8           0       -4.110574   -3.432170    2.805352
     43          8           0       -3.037671   -4.848742    1.486791
     44          6           0       -2.458128   -5.456230    2.580413
     45          6           0        2.737870   -1.187014   -1.062200
     46          6           0        3.986498   -0.703177   -0.515459
     47          6           0        4.952155    0.051073   -1.051652
     48          6           0        4.973191    0.573239   -2.445832
     49          6           0        6.221068    0.331074   -0.358130
     50          6           0        7.439192   -0.388707   -0.975405
     51          6           0        8.722371   -0.226562   -0.005239
     52          6           0       10.087529   -0.703817   -0.568267
     53          6           0       10.082634   -2.217871   -0.821009
     54          6           0       11.290875   -0.234842    0.323569
     55          6           0       12.618125   -0.626344   -0.445853
     56          6           0       13.756215   -0.087129    0.401159
     57          6           0       15.238584   -0.260751   -0.260541
     58          6           0       15.623078   -1.739523   -0.303860
     59          6           0       16.285816    0.497434    0.482620
     60          6           0       17.703257    0.595718   -0.150332
     61          6           0       18.711186    1.678008    0.526148
     62          6           0       20.104932    1.775419    0.033552
     63          6           0       20.272590    2.303164   -1.398000
     64          6           0       21.033852    2.654826    0.986733
     65          1           0       -3.909854    3.430121    1.505798
     66          1           0       -9.993917    4.193319   -0.229921
     67          1           0      -10.649921   -2.169599   -1.253796
     68          1           0       -2.814963   -1.276145    1.987059
     69          1           0       -2.206420    1.616733    0.963740
     70          1           0       -1.788535    0.856841    3.512625
     71          1           0       -2.845191    2.316798    3.329902
     72          1           0       -3.501615    0.554214    3.601279
     73          1           0       -2.377249   -1.863470   -0.629943
     74          1           0       -2.368788   -0.050512   -0.853251
     75          1           0       -0.299665    0.276107    0.892922
     76          1           0       -0.235674   -1.402006    1.155300
     77          1           0       -4.434849    5.834214    0.628865
     78          1           0       -5.668778    6.872334    1.148920
     79          1           0       -4.888683    5.660304    2.463642
     80          1           0       -8.053486    7.023461    1.030955
     81          1           0       -9.616143    5.744962   -1.356802
     82          1           0       -9.728345    7.434423   -0.685519
     83          1           0      -12.279359    3.918224   -0.083537
     84          1           0      -12.354897    3.430695   -2.110229
     85          1           0      -13.338801    2.319440   -0.952408
     86          1           0      -12.819816   -1.107124   -0.778631
     87          1           0      -13.489948    0.593147   -1.223148
     88          1           0      -12.703077    0.183742   -3.523194
     89          1           0      -11.811397   -1.398599   -2.876107
     90          1           0      -13.652329   -1.297349   -3.196521
     91          1           0       -9.870426   -4.712679   -0.445640
     92          1           0       -9.341314   -4.734285   -2.129442
     93          1           0       -8.353787   -5.584839   -0.849839
     94          1           0       -3.668153   -3.556839   -0.520392
     95          1           0       -1.973209   -6.414436    2.213935
     96          1           0       -1.721909   -4.660552    3.074973
     97          1           0       -3.413815   -5.578174    3.512195
     98          1           0        2.753944   -2.160161   -1.413895
     99          1           0        2.821708   -0.665413   -1.956566
    100          1           0        4.151825   -1.185048    0.508850
    101          1           0        5.081281    1.689047   -2.650363
    102          1           0        5.730715    0.002983   -3.045537
    103          1           0        4.089611    0.377808   -2.876432
    104          1           0        6.326217    1.397672   -0.390177
    105          1           0        6.299602   -0.116271    0.688775
    106          1           0        7.345790   -1.602336   -1.030986
    107          1           0        7.713290    0.076880   -1.832638
    108          1           0        9.080295    0.935015    0.054565
    109          1           0        8.565194   -0.756041    0.821044
    110          1           0       10.221024   -0.243929   -1.563817
    111          1           0        9.136223   -2.568785   -1.454548
    112          1           0       11.056709   -2.396196   -1.400234
    113          1           0        9.879965   -2.681764    0.133778
    114          1           0       11.245734    0.884192    0.669209
    115          1           0       11.408107   -0.743819    1.314984
    116          1           0       12.760066   -1.627760   -0.669787
    117          1           0       12.479919   -0.214340   -1.451765
    118          1           0       13.664670    1.081151    0.568189
    119          1           0       13.816073   -0.464392    1.377300
    120          1           0       15.198505   -0.091859   -1.386464
    121          1           0       15.012242   -2.452393   -0.903740
    122          1           0       16.696735   -1.769761   -0.830582
    123          1           0       15.979248   -2.538559    0.671982
    124          1           0       15.986259    1.568675    0.663769
    125          1           0       16.528078    0.075703    1.369805
    126          1           0       18.294811   -0.484632   -0.005046
    127          1           0       17.778769    0.830318   -1.227475
    128          1           0       18.146330    2.699701    0.491247
    129          1           0       18.530956    1.408760    1.555097
    130          1           0       20.499478    0.683066   -0.161970
    131          1           0       19.776410    3.360794   -1.452003
    132          1           0       21.205067    2.457253   -1.943401
    133          1           0       19.698411    1.807949   -2.130128
    134          1           0       20.780110    2.115961    1.910166
    135          1           0       22.024504    2.653360    0.730517
    136          1           0       20.638414    3.649607    1.073546
    137          1           0       -7.071927    1.697056    0.412118
    138          1           0       -7.643423   -0.181958   -0.154353
 ---------------------------------------------------------------------

 SCF Done:  E(RB3LYP) =  -2733.07342253     A.U. after   17 cycles

 Excitation energies and oscillator strengths:

 Excited State   1:      Singlet-A      2.0420 eV  607.16 nm  f=0.1486  <S**2>=0.000
     235 -> 237       -0.16700
     235 -> 238        0.30337
     236 -> 237        0.60055
     236 -> 238        0.12474
 This state for optimization and/or second-order correction.
 Total Energy, E(TD-HF/TD-KS) =  -2732.99837897
 Copying the excited state density for this state as the 1-particle RhoCI density.

 The electronic state is 1-A.
 Alpha  occ. eigenvalues --  -19.16877 -19.16747 -19.13318 -19.12646 -19.11969
 Alpha  occ. eigenvalues --  -14.38034 -14.36450 -14.32680 -14.30431 -10.31873
 Alpha  occ. eigenvalues --  -10.31721 -10.27561 -10.26145 -10.24451 -10.24125
 Alpha  occ. eigenvalues --  -10.23615 -10.23538 -10.23263 -10.23171 -10.23148
 Alpha  occ. eigenvalues --  -10.22789 -10.22235 -10.22232 -10.22098 -10.21905
 Alpha  occ. eigenvalues --  -10.21719 -10.21634 -10.21442 -10.21424 -10.21333
 Alpha  occ. eigenvalues --  -10.21288 -10.21207 -10.21052 -10.20830 -10.20720
 Alpha  occ. eigenvalues --  -10.20260 -10.20139 -10.20051 -10.19998 -10.19934
 Alpha  occ. eigenvalues --  -10.19905 -10.19895 -10.19829 -10.19739 -10.19666
 Alpha  occ. eigenvalues --  -10.19372 -10.19337 -10.19336 -10.19225 -10.19152
 Alpha  occ. eigenvalues --  -10.19099 -10.18807 -10.18776 -10.18743 -10.18691
 Alpha  occ. eigenvalues --  -10.18455 -10.18337 -10.18263 -10.18174 -10.17969
 Alpha  occ. eigenvalues --  -10.17895 -10.17677 -10.17375 -10.17159  -1.10747
 Alpha  occ. eigenvalues --   -1.09051  -1.04080  -1.02901  -0.99874  -0.97987
 Alpha  occ. eigenvalues --   -0.96981  -0.95573  -0.92751  -0.84614  -0.82953
 Alpha  occ. eigenvalues --   -0.82758  -0.81626  -0.81404  -0.80956  -0.80524
 Alpha  occ. eigenvalues --   -0.80221  -0.79409  -0.79322  -0.78848  -0.78072
 Alpha  occ. eigenvalues --   -0.77504  -0.76224  -0.75579  -0.74825  -0.74388
 Alpha  occ. eigenvalues --   -0.72938  -0.72826  -0.72449  -0.71514  -0.71236
 Alpha  occ. eigenvalues --   -0.70550  -0.68661  -0.68528  -0.67886  -0.67723
 Alpha  occ. eigenvalues --   -0.67251  -0.66625  -0.65916  -0.65689  -0.65224
 Alpha  occ. eigenvalues --   -0.64278  -0.63437  -0.62703  -0.62243  -0.61332
 Alpha  occ. eigenvalues --   -0.61175  -0.59209  -0.58421  -0.58223  -0.57820
 Alpha  occ. eigenvalues --   -0.57593  -0.57149  -0.55813  -0.55188  -0.55090
 Alpha  occ. eigenvalues --   -0.54728  -0.54646  -0.54131  -0.53698  -0.53243
 Alpha  occ. eigenvalues --   -0.52309  -0.51815  -0.51353  -0.51278  -0.50899
 Alpha  occ. eigenvalues --   -0.49829  -0.49534  -0.48811  -0.48546  -0.48228
 Alpha  occ. eigenvalues --   -0.47740  -0.47227  -0.47147  -0.46966  -0.46841
 Alpha  occ. eigenvalues --   -0.46504  -0.46445  -0.46189  -0.46045  -0.45641
 Alpha  occ. eigenvalues --   -0.45472  -0.45128  -0.45087  -0.44822  -0.44764
 Alpha  occ. eigenvalues --   -0.44548  -0.44080  -0.43917  -0.43764  -0.43649
 Alpha  occ. eigenvalues --   -0.43551  -0.43381  -0.43336  -0.43246  -0.42902
 Alpha  occ. eigenvalues --   -0.42582  -0.42522  -0.42299  -0.42077  -0.42002
 Alpha  occ. eigenvalues --   -0.41842  -0.41603  -0.41302  -0.41118  -0.40913
 Alpha  occ. eigenvalues --   -0.40798  -0.40306  -0.39810  -0.39640  -0.39555
 Alpha  occ. eigenvalues --   -0.39471  -0.39402  -0.39015  -0.38644  -0.38514
 Alpha  occ. eigenvalues --   -0.38425  -0.38223  -0.38006  -0.37913  -0.37770
 Alpha  occ. eigenvalues --   -0.37096  -0.36959  -0.36817  -0.36638  -0.36501
 Alpha  occ. eigenvalues --   -0.36368  -0.36181  -0.36139  -0.35815  -0.35726
 Alpha  occ. eigenvalues --   -0.35599  -0.35268  -0.34978  -0.34951  -0.34899
 Alpha  occ. eigenvalues --   -0.34683  -0.34529  -0.33970  -0.33693  -0.33382
 Alpha  occ. eigenvalues --   -0.33362  -0.33231  -0.33202  -0.33177  -0.32552
 Alpha  occ. eigenvalues --   -0.32377  -0.32173  -0.32089  -0.31625  -0.31194
 Alpha  occ. eigenvalues --   -0.31120  -0.30532  -0.29796  -0.29384  -0.29322
 Alpha  occ. eigenvalues --   -0.29290  -0.28787  -0.28601  -0.28033  -0.27741
 Alpha  occ. eigenvalues --   -0.27587  -0.27546  -0.27320  -0.26910  -0.25623
 Alpha  occ. eigenvalues --   -0.25131  -0.24919  -0.24386  -0.22580  -0.19871
 Alpha  occ. eigenvalues --   -0.19247
 Alpha virt. eigenvalues --   -0.10660  -0.07956  -0.04686  -0.02448  -0.01150
 Alpha virt. eigenvalues --   -0.00345   0.00040   0.01135   0.01367   0.02816
 Alpha virt. eigenvalues --    0.03526   0.04053   0.04132   0.04433   0.04782

 Mulliken charges:
               1
     1  C    0.101580
     2  C   -0.046564
     3  C   -0.067962
     4  C   -0.101501
     5  N   -0.159558
     6  C   -0.138203
     7  C   -0.064934
     8  C   -0.091577
     9  C    0.021258
    10  C    0.045513
    11  C    0.095902
    12  C    0.018386
    13  C    0.183177
    14  O   -0.188375
    15  O   -0.313378
    16  N   -0.097647
    17  C    0.043412
    18  C   -0.138178
    19  C    0.049655
    20  C    0.032547
    21  C    0.082208
    22  C   -0.045854
    23  C   -0.031585
    24  N   -0.282610
    25  C    0.078904
    26  C   -0.097559
    27  C   -0.083506
    28  C    0.095033
    29  C   -0.006440
    30  C    0.063196
    31  C   -0.028255
    32  N   -0.091936
    33  C    0.078552
    34  C   -0.130962
    35  C   -0.040631
    36  C    0.088589
    37  C    0.071435
    38  C    0.085827
    39  O   -0.133034
    40  C   -0.143299
    41  C    0.214994
    42  O   -0.230336
    43  O   -0.289409
    44  C    0.079342
    45  C    0.421842
    46  C   -0.170471
    47  C   -0.126135
    48  C    0.115548
    49  C    0.120667
    50  C   -0.002274
    51  C    0.021769
    52  C   -0.074702
    53  C   -0.008076
    54  C   -0.004507
    55  C    0.060770
    56  C    0.040280
    57  C   -0.028418
    58  C   -0.111024
    59  C    0.123865
    60  C   -0.087506
    61  C    0.007167
    62  C   -0.089364
    63  C    0.020833
    64  C    0.099007
    65  H   -0.036376
    66  H   -0.037503
    67  H   -0.004261
    68  H    0.054015
    69  H    0.007396
    70  H    0.015958
    71  H    0.023338
    72  H    0.036072
    73  H    0.050298
    74  H   -0.015931
    75  H    0.050846
    76  H    0.039915
    77  H    0.026885
    78  H    0.013373
    79  H    0.060992
    80  H    0.014075
    81  H    0.041245
    82  H    0.022005
    83  H    0.080649
    84  H    0.038825
    85  H    0.020762
    86  H    0.007142
    87  H   -0.010919
    88  H    0.024704
    89  H    0.029297
    90  H    0.026843
    91  H    0.006298
    92  H    0.046689
    93  H    0.058324
    94  H    0.100126
    95  H    0.059971
    96  H    0.033404
    97  H    0.052659
    98  H   -0.020094
    99  H   -0.076851
   100  H   -0.018486
   101  H    0.022265
   102  H    0.032638
   103  H   -0.050319
   104  H   -0.006906
   105  H   -0.002358
   106  H    0.028970
   107  H   -0.026337
   108  H    0.012540
   109  H   -0.034362
   110  H   -0.015414
   111  H    0.019465
   112  H    0.032712
   113  H    0.002577
   114  H    0.013155
   115  H   -0.006716
   116  H   -0.011895
   117  H   -0.016467
   118  H   -0.001453
   119  H   -0.015695
   120  H    0.006874
   121  H    0.019074
   122  H    0.017715
   123  H    0.013099
   124  H   -0.001296
   125  H   -0.026240
   126  H    0.015950
   127  H    0.004108
   128  H   -0.002869
   129  H   -0.013985
   130  H    0.006871
   131  H   -0.014568
   132  H    0.006751
   133  H   -0.017343
   134  H    0.004457
   135  H   -0.003053
   136  H    0.002537
   137  H    0.212964
   138  H    0.155381
 Sum of Mulliken charges =   0.00000

 Dipole moment (field-independent basis, Debye):
    X=              0.5658    Y=              5.7866    Z=             -0.3068  Tot=              5.8223
 Quadrupole moment (field-independent basis, Debye-Ang):
   XX=           -356.3646   YY=           -384.8003   ZZ=           -399.3914
   XY=            -28.7519   XZ=              9.5175   YZ=              3.3307

 Normal termination of Gaussian 09 at Mon Jul 29 01:38:47 2019.
