 Gaussian 09, Revision D.01,
 Gaussian 09:  ES64L-G09RevD.01 24-Apr-2013

 --------------------------
 # td=(NStates=1) B3LYP/SVP
 --------------------------

 --
 TD
 --
 Symbolic Z-matrix:
 Charge =  0 Multiplicity = 1

                         Standard orientation:
 ---------------------------------------------------------------------
 Center     Atomic      Atomic             Coordinates (Angstroms)
 Number     Number       Type             X           Y           Z
 ---------------------------------------------------------------------
      1          6           0       -5.086880   -1.904795    0.452374
      2          6           0       -4.761721    2.927163    1.313513
      3          6           0       -9.383590    3.305320   -0.349053
      4          6           0       -9.856051   -1.542119   -0.827386
      5          7           0       -5.192220    0.617633    0.708968
      6          6           0       -4.539182   -0.586651    0.760388
      7          6           0       -3.024480   -0.447844    1.210278
      8          6           0       -3.042022    1.036377    1.650680
      9          6           0       -4.416741    1.587446    1.176305
     10          6           0       -2.963450    1.215555    3.195826
     11          6           0       -1.999793   -0.765152    0.017941
     12          6           0       -0.551765   -0.867621    0.497543
     13          6           0        0.353885   -1.187804   -0.494302
     14          8           0        0.026223   -1.674886   -1.603208
     15          8           0        1.628530   -0.742753   -0.282432
     16          7           0       -7.120865    2.769845    0.425455
     17          6           0       -6.085118    3.531530    0.932122
     18          6           0       -6.406583    4.927746    0.959603
     19          6           0       -7.647750    4.976946    0.457620
     20          6           0       -8.127021    3.594525    0.206581
     21          6           0       -5.433586    5.872357    1.596205
     22          6           0       -8.351140    6.186456    0.273064
     23          6           0       -9.045977    6.575149   -0.797970
     24          7           0       -9.160898    0.772046   -0.382119
     25          6           0       -9.884019    1.964226   -0.555494
     26          6           0      -11.247072    1.787521   -1.004476
     27          6           0      -11.371568    0.447543   -1.058344
     28          6           0      -10.142185   -0.152833   -0.705086
     29          6           0      -12.310015    2.841763   -1.153300
     30          6           0      -12.648938   -0.282264   -1.480258
     31          6           0      -12.915827   -0.656662   -2.965635
     32          7           0       -7.466874   -1.301737   -0.254293
     33          6           0       -8.578135   -2.088084   -0.527717
     34          6           0       -8.172317   -3.437187   -0.494994
     35          6           0       -6.798513   -3.421042   -0.192712
     36          6           0       -6.363358   -2.091550   -0.007686
     37          6           0       -9.111779   -4.550619   -0.661743
     38          6           0       -5.704533   -4.327882    0.200134
     39          8           0       -5.611822   -5.515431    0.364462
     40          6           0       -4.504713   -3.282049    0.431287
     41          6           0       -3.682152   -3.680801    1.726035
     42          8           0       -4.044053   -3.410705    2.853966
     43          8           0       -2.712477   -4.550985    1.441189
     44          6           0       -2.101477   -5.083618    2.699927
     45          6           0        2.661175   -1.094072   -1.252025
     46          6           0        4.034368   -0.914570   -0.611816
     47          6           0        5.001581   -0.078957   -1.174815
     48          6           0        4.798817    0.725892   -2.432489
     49          6           0        6.295141    0.035232   -0.388727
     50          6           0        7.515499   -0.538773   -1.124220
     51          6           0        8.815202   -0.442346   -0.237826
     52          6           0       10.034002   -0.811351   -0.968724
     53          6           0       10.018669   -2.382783   -1.244607
     54          6           0       11.271677   -0.455512    0.008713
     55          6           0       12.760053   -0.647047   -0.650131
     56          6           0       13.869470   -0.073842    0.217070
     57          6           0       15.273742   -0.224896   -0.219487
     58          6           0       15.684025   -1.722770   -0.219661
     59          6           0       16.279227    0.683891    0.549515
     60          6           0       17.697147    0.856234   -0.029180
     61          6           0       18.484284    1.817519    0.642648
     62          6           0       19.969519    1.846385    0.211392
     63          6           0       20.123619    2.221702   -1.261421
     64          6           0       20.756801    2.745468    1.120556
     65          1           0       -4.013388    3.567686    1.718831
     66          1           0      -10.052458    4.219650   -0.573471
     67          1           0      -10.732364   -2.239517   -1.071250
     68          1           0       -2.695840   -1.169672    1.998745
     69          1           0       -2.266312    1.527066    1.350679
     70          1           0       -1.976936    0.945777    3.477356
     71          1           0       -2.983657    2.131058    3.539131
     72          1           0       -3.752436    0.751088    3.836897
     73          1           0       -2.258715   -1.667084   -0.426691
     74          1           0       -2.056066    0.195722   -0.713584
     75          1           0       -0.014930    0.031442    1.197736
     76          1           0       -0.329374   -1.699396    1.146323
     77          1           0       -4.434003    6.046787    1.142986
     78          1           0       -5.935125    6.764474    1.641122
     79          1           0       -5.106137    5.624151    2.590872
     80          1           0       -7.933288    6.857531    1.209261
     81          1           0       -9.167001    5.775674   -1.640647
     82          1           0       -9.797095    7.461271   -0.876595
     83          1           0      -12.688441    3.341006   -0.270876
     84          1           0      -12.158077    3.492647   -1.963228
     85          1           0      -13.224828    2.345947   -1.493150
     86          1           0      -12.724037   -1.431647   -0.933828
     87          1           0      -13.661384    0.016083   -1.159762
     88          1           0      -12.883158    0.169933   -3.932563
     89          1           0      -12.141134   -1.359550   -3.436806
     90          1           0      -13.807047   -1.276796   -3.416978
     91          1           0       -9.886464   -4.674658    0.200292
     92          1           0       -9.730636   -4.801470   -1.701523
     93          1           0       -8.608273   -5.516039   -0.638896
     94          1           0       -3.492241   -3.524465   -0.039050
     95          1           0       -1.341370   -5.826665    2.261958
     96          1           0       -1.471106   -4.113481    3.036738
     97          1           0       -2.723856   -5.431958    3.527558
     98          1           0        2.496326   -2.202193   -1.641737
     99          1           0        2.245536   -0.601956   -2.165209
    100          1           0        4.093268   -1.251106    0.335338
    101          1           0        4.796642    1.814692   -2.211747
    102          1           0        5.892169    0.529218   -3.080469
    103          1           0        3.772138    0.525624   -3.073483
    104          1           0        6.575752    1.125746   -0.073299
    105          1           0        6.122262   -0.663251    0.690296
    106          1           0        7.250298   -1.535041   -1.561457
    107          1           0        7.762338    0.177125   -1.953547
    108          1           0        8.661588    0.615729    0.023493
    109          1           0        8.509846   -1.073550    0.700100
    110          1           0       10.207302   -0.218507   -2.011861
    111          1           0        9.408485   -2.498379   -2.131195
    112          1           0       10.939445   -2.676429   -1.895368
    113          1           0        9.934017   -3.129751   -0.369195
    114          1           0       11.145289    0.511802    0.060783
    115          1           0       11.352043   -0.948570    0.969942
    116          1           0       12.912103   -1.740640   -1.109828
    117          1           0       12.756731   -0.158061   -1.537348
    118          1           0       13.646133    1.114589    0.228206
    119          1           0       13.834652   -0.408129    1.167700
    120          1           0       15.374745   -0.042035   -1.328421
    121          1           0       14.946150   -2.365255   -0.966492
    122          1           0       16.799641   -1.851911   -0.477719
    123          1           0       15.895584   -2.042548    0.852898
    124          1           0       15.764321    1.691836    0.720947
    125          1           0       16.663718    0.208788    1.509518
    126          1           0       18.218382   -0.122655   -0.108132
    127          1           0       17.740006    1.039940   -1.175318
    128          1           0       17.954883    2.759957    0.603617
    129          1           0       18.641462    1.410513    1.668161
    130          1           0       20.421896    0.978851    0.353315
    131          1           0       19.453535    3.109004   -1.466595
    132          1           0       21.307414    2.369208   -1.278614
    133          1           0       19.759302    1.646688   -2.141392
    134          1           0       20.799434    2.370614    2.083804
    135          1           0       21.827457    2.885991    0.879183
    136          1           0       20.529117    3.914364    1.137526
    137          1           0       -7.128640    1.647863    0.301238
    138          1           0       -7.571544   -0.095903   -0.289319
 ---------------------------------------------------------------------

 SCF Done:  E(RB3LYP) =  -2732.99635185     A.U. after   17 cycles

 Excitation energies and oscillator strengths:

 Excited State   1:      Singlet-A      2.0315 eV  610.30 nm  f=0.1660  <S**2>=0.000
     235 -> 237       -0.16592
     235 -> 238       -0.30023
     236 -> 237        0.60499
     236 -> 238       -0.11807
 This state for optimization and/or second-order correction.
 Total Energy, E(TD-HF/TD-KS) =  -2732.92169491
 Copying the excited state density for this state as the 1-particle RhoCI density.

 The electronic state is 1-A.
 Alpha  occ. eigenvalues --  -19.18960 -19.17020 -19.12351 -19.11690 -19.11125
 Alpha  occ. eigenvalues --  -14.38224 -14.36039 -14.32907 -14.31451 -10.31025
 Alpha  occ. eigenvalues --  -10.30683 -10.28077 -10.26538 -10.25065 -10.24545
 Alpha  occ. eigenvalues --  -10.24367 -10.23699 -10.22906 -10.22812 -10.22593
 Alpha  occ. eigenvalues --  -10.22169 -10.21988 -10.21932 -10.21619 -10.21612
 Alpha  occ. eigenvalues --  -10.21555 -10.21312 -10.21280 -10.21259 -10.21189
 Alpha  occ. eigenvalues --  -10.21172 -10.21101 -10.20960 -10.20870 -10.20840
 Alpha  occ. eigenvalues --  -10.20774 -10.20634 -10.20616 -10.20449 -10.20428
 Alpha  occ. eigenvalues --  -10.20364 -10.19858 -10.19842 -10.19333 -10.19231
 Alpha  occ. eigenvalues --  -10.19189 -10.19108 -10.19078 -10.19057 -10.19033
 Alpha  occ. eigenvalues --  -10.18941 -10.18866 -10.18803 -10.18750 -10.18662
 Alpha  occ. eigenvalues --  -10.18553 -10.18053 -10.17922 -10.17804 -10.17696
 Alpha  occ. eigenvalues --  -10.17680 -10.17526 -10.17260 -10.17155  -1.09651
 Alpha  occ. eigenvalues --   -1.07586  -1.03090  -0.99766  -0.99531  -0.97962
 Alpha  occ. eigenvalues --   -0.96800  -0.94340  -0.93469  -0.84634  -0.83613
 Alpha  occ. eigenvalues --   -0.82784  -0.82282  -0.81705  -0.80915  -0.80376
 Alpha  occ. eigenvalues --   -0.79945  -0.79666  -0.79381  -0.78774  -0.78003
 Alpha  occ. eigenvalues --   -0.76639  -0.76431  -0.75242  -0.75008  -0.74118
 Alpha  occ. eigenvalues --   -0.73114  -0.72881  -0.72263  -0.71702  -0.71256
 Alpha  occ. eigenvalues --   -0.70132  -0.69827  -0.68059  -0.67933  -0.67429
 Alpha  occ. eigenvalues --   -0.67219  -0.66875  -0.66041  -0.65751  -0.65266
 Alpha  occ. eigenvalues --   -0.64415  -0.63491  -0.62410  -0.61513  -0.61174
 Alpha  occ. eigenvalues --   -0.60942  -0.58583  -0.58359  -0.57994  -0.57433
 Alpha  occ. eigenvalues --   -0.57038  -0.56596  -0.56302  -0.55409  -0.55327
 Alpha  occ. eigenvalues --   -0.55032  -0.54628  -0.53942  -0.53302  -0.52825
 Alpha  occ. eigenvalues --   -0.52635  -0.52127  -0.51561  -0.50355  -0.49884
 Alpha  occ. eigenvalues --   -0.49569  -0.48759  -0.48575  -0.48445  -0.47941
 Alpha  occ. eigenvalues --   -0.47871  -0.47650  -0.47453  -0.46976  -0.46679
 Alpha  occ. eigenvalues --   -0.46564  -0.46391  -0.46141  -0.45992  -0.45702
 Alpha  occ. eigenvalues --   -0.45229  -0.44986  -0.44975  -0.44775  -0.44666
 Alpha  occ. eigenvalues --   -0.44545  -0.44194  -0.43861  -0.43696  -0.43619
 Alpha  occ. eigenvalues --   -0.43474  -0.43187  -0.42954  -0.42667  -0.42306
 Alpha  occ. eigenvalues --   -0.42025  -0.41937  -0.41854  -0.41478  -0.41203
 Alpha  occ. eigenvalues --   -0.41082  -0.40941  -0.40777  -0.40655  -0.40573
 Alpha  occ. eigenvalues --   -0.40114  -0.39910  -0.39578  -0.39463  -0.39422
 Alpha  occ. eigenvalues --   -0.39106  -0.39012  -0.38714  -0.38669  -0.38293
 Alpha  occ. eigenvalues --   -0.38190  -0.38081  -0.37943  -0.37806  -0.37343
 Alpha  occ. eigenvalues --   -0.37300  -0.36980  -0.36909  -0.36815  -0.36711
 Alpha  occ. eigenvalues --   -0.36446  -0.36214  -0.36180  -0.35985  -0.35705
 Alpha  occ. eigenvalues --   -0.35473  -0.35042  -0.34904  -0.34760  -0.34529
 Alpha  occ. eigenvalues --   -0.34140  -0.34020  -0.33941  -0.33929  -0.33668
 Alpha  occ. eigenvalues --   -0.33454  -0.33071  -0.32939  -0.32748  -0.32656
 Alpha  occ. eigenvalues --   -0.32050  -0.31618  -0.31528  -0.31498  -0.31251
 Alpha  occ. eigenvalues --   -0.30747  -0.30397  -0.30396  -0.30352  -0.29755
 Alpha  occ. eigenvalues --   -0.29322  -0.29036  -0.28597  -0.28536  -0.28418
 Alpha  occ. eigenvalues --   -0.27215  -0.26942  -0.26767  -0.25640  -0.25314
 Alpha  occ. eigenvalues --   -0.25102  -0.24843  -0.23964  -0.23877  -0.19813
 Alpha  occ. eigenvalues --   -0.18967
 Alpha virt. eigenvalues --   -0.10421  -0.08072  -0.04376  -0.02094  -0.01340
 Alpha virt. eigenvalues --   -0.00639  -0.00032   0.00520   0.02062   0.03154
 Alpha virt. eigenvalues --    0.03414   0.03700   0.04012   0.04322   0.04400

 Mulliken charges:
               1
     1  C    0.092027
     2  C   -0.044805
     3  C   -0.148802
     4  C   -0.103465
     5  N   -0.159005
     6  C   -0.028697
     7  C   -0.082076
     8  C    0.086901
     9  C    0.016540
    10  C    0.113596
    11  C    0.083002
    12  C    0.032099
    13  C    0.150218
    14  O   -0.287340
    15  O   -0.336052
    16  N   -0.067934
    17  C    0.057547
    18  C   -0.093992
    19  C   -0.043427
    20  C    0.110668
    21  C    0.172870
    22  C   -0.070335
    23  C   -0.085690
    24  N   -0.307736
    25  C    0.084004
    26  C   -0.143621
    27  C    0.003016
    28  C    0.094631
    29  C    0.163105
    30  C    0.000091
    31  C   -0.100811
    32  N   -0.177259
    33  C    0.100343
    34  C   -0.075460
    35  C   -0.031260
    36  C    0.075758
    37  C   -0.005166
    38  C    0.145450
    39  O   -0.149506
    40  C   -0.144452
    41  C    0.163482
    42  O   -0.237962
    43  O   -0.304839
    44  C    0.136142
    45  C    0.201305
    46  C    0.003020
    47  C   -0.088124
    48  C   -0.014767
    49  C   -0.025196
    50  C   -0.035518
    51  C    0.048032
    52  C   -0.117560
    53  C    0.017843
    54  C    0.112227
    55  C    0.023622
    56  C    0.091157
    57  C   -0.051850
    58  C   -0.047496
    59  C    0.033026
    60  C   -0.008030
    61  C    0.072222
    62  C   -0.003933
    63  C   -0.027193
    64  C    0.029133
    65  H   -0.045102
    66  H    0.017122
    67  H    0.013985
    68  H    0.021010
    69  H   -0.078407
    70  H   -0.015385
    71  H   -0.051870
    72  H    0.026604
    73  H    0.008961
    74  H    0.036669
    75  H    0.058254
    76  H    0.017707
    77  H    0.024635
    78  H   -0.027463
    79  H    0.014876
    80  H    0.039737
    81  H    0.054376
    82  H    0.054021
    83  H    0.026618
    84  H    0.000808
    85  H   -0.013929
    86  H    0.016429
    87  H    0.023187
    88  H    0.013485
    89  H    0.005553
    90  H    0.023576
    91  H    0.046430
    92  H    0.045470
    93  H    0.017737
    94  H    0.058181
    95  H    0.053351
    96  H    0.041044
    97  H    0.075256
    98  H    0.032801
    99  H    0.015673
   100  H   -0.039980
   101  H    0.035976
   102  H    0.042325
   103  H    0.056003
   104  H    0.021758
   105  H    0.020005
   106  H    0.019669
   107  H   -0.001354
   108  H   -0.012085
   109  H    0.013260
   110  H    0.018102
   111  H   -0.002960
   112  H   -0.003115
   113  H    0.046610
   114  H   -0.050745
   115  H    0.003814
   116  H    0.002754
   117  H   -0.052021
   118  H   -0.001174
   119  H   -0.039559
   120  H   -0.013583
   121  H    0.052230
   122  H    0.005035
   123  H   -0.003124
   124  H    0.005371
   125  H   -0.000095
   126  H   -0.023265
   127  H   -0.025207
   128  H   -0.007041
   129  H   -0.019730
   130  H   -0.048050
   131  H    0.003028
   132  H    0.023808
   133  H    0.020774
   134  H   -0.012033
   135  H   -0.010714
   136  H    0.007822
   137  H    0.211016
   138  H    0.241359
 Sum of Mulliken charges =   0.00000

 Dipole moment (field-independent basis, Debye):
    X=              2.3529    Y=              5.2735    Z=              1.2904  Tot=              5.9171
 Quadrupole moment (field-independent basis, Debye-Ang):
   XX=           -347.1394   YY=           -385.1973   ZZ=           -396.5274
   XY=            -31.8841   XZ=             11.1744   YZ=              0.3691

 Normal termination of Gaussian 09 at Sun Aug  4 05:10:17 2019.
