 Gaussian 09, Revision D.01,
 Gaussian 09:  ES64L-G09RevD.01 24-Apr-2013

 --------------------------
 # td=(NStates=1) B3LYP/SVP
 --------------------------

 --
 TD
 --
 Symbolic Z-matrix:
 Charge =  0 Multiplicity = 1

                         Standard orientation:
 ---------------------------------------------------------------------
 Center     Atomic      Atomic             Coordinates (Angstroms)
 Number     Number       Type             X           Y           Z
 ---------------------------------------------------------------------
      1          6           0       -5.107843   -1.840358    0.451418
      2          6           0       -4.856753    2.968035    1.440723
      3          6           0       -9.361304    3.254367   -0.234645
      4          6           0       -9.772260   -1.614067   -0.981246
      5          7           0       -5.275641    0.592378    0.814237
      6          6           0       -4.574514   -0.589917    0.917729
      7          6           0       -3.027262   -0.455387    1.328465
      8          6           0       -3.129598    1.061804    1.901322
      9          6           0       -4.428372    1.585244    1.333925
     10          6           0       -2.991229    1.087113    3.420069
     11          6           0       -2.106403   -0.644683    0.247678
     12          6           0       -0.625834   -0.473139    0.688012
     13          6           0        0.351803   -0.771794   -0.527242
     14          8           0        0.005936   -0.966083   -1.695144
     15          8           0        1.676473   -0.851783   -0.056852
     16          7           0       -7.178525    2.673313    0.452349
     17          6           0       -6.056263    3.383412    1.060144
     18          6           0       -6.449304    4.784665    1.041372
     19          6           0       -7.636109    4.875467    0.468286
     20          6           0       -8.088252    3.598295    0.125746
     21          6           0       -5.629593    5.935252    1.509467
     22          6           0       -8.409115    6.153560    0.249018
     23          6           0       -9.390688    6.470988   -0.686577
     24          7           0       -9.186366    0.775601   -0.524060
     25          6           0       -9.959045    1.945090   -0.536995
     26          6           0      -11.320227    1.645563   -0.984820
     27          6           0      -11.479407    0.339507   -1.235852
     28          6           0      -10.075082   -0.120817   -0.896850
     29          6           0      -12.246262    2.803188   -1.309615
     30          6           0      -12.597701   -0.515231   -1.647284
     31          6           0      -12.598159   -0.784729   -3.193184
     32          7           0       -7.409755   -1.282962   -0.261957
     33          6           0       -8.509857   -2.123605   -0.618790
     34          6           0       -7.984464   -3.484808   -0.688966
     35          6           0       -6.644992   -3.383673   -0.279224
     36          6           0       -6.363737   -1.931444    0.010986
     37          6           0       -8.838646   -4.674332   -1.040901
     38          6           0       -5.520621   -4.243966    0.084628
     39          8           0       -5.381277   -5.461531    0.002865
     40          6           0       -4.287909   -3.224930    0.416319
     41          6           0       -3.817838   -3.756194    1.778700
     42          8           0       -4.205746   -3.442151    2.913440
     43          8           0       -2.965862   -4.879872    1.569500
     44          6           0       -2.622810   -5.575162    2.768193
     45          6           0        2.686988   -0.975633   -1.118356
     46          6           0        3.993635   -0.531185   -0.530988
     47          6           0        4.974035    0.104207   -1.099999
     48          6           0        5.012132    0.661885   -2.500573
     49          6           0        6.276647    0.254450   -0.313773
     50          6           0        7.571809   -0.422105   -0.964976
     51          6           0        8.808387   -0.109289   -0.156238
     52          6           0       10.093699   -0.808117   -0.760234
     53          6           0       10.161640   -2.383357   -0.845872
     54          6           0       11.314511   -0.214945    0.033072
     55          6           0       12.644436   -0.470817   -0.620888
     56          6           0       13.881229    0.081029    0.120239
     57          6           0       15.204528   -0.195852   -0.460952
     58          6           0       15.515909   -1.716876   -0.569358
     59          6           0       16.325242    0.594939    0.320537
     60          6           0       17.763384    0.623881   -0.246584
     61          6           0       18.648740    1.510385    0.596155
     62          6           0       20.123118    1.581206    0.132670
     63          6           0       20.248296    2.248752   -1.214568
     64          6           0       20.965343    2.353165    1.192762
     65          1           0       -4.277471    3.708178    2.049570
     66          1           0      -10.262915    4.130212   -0.404988
     67          1           0      -10.481332   -2.335112   -1.362514
     68          1           0       -2.911242   -1.119290    2.101690
     69          1           0       -2.238666    1.700661    1.308826
     70          1           0       -2.072567    0.519494    3.797756
     71          1           0       -3.405676    2.123224    3.718577
     72          1           0       -3.864493    0.542024    3.844575
     73          1           0       -2.142758   -1.560127   -0.163248
     74          1           0       -2.186410   -0.046023   -0.550423
     75          1           0       -0.394407    0.448762    1.279521
     76          1           0       -0.163176   -1.183717    1.564073
     77          1           0       -4.853625    6.230533    0.814090
     78          1           0       -6.278451    6.919599    1.557751
     79          1           0       -5.161980    5.688680    2.446950
     80          1           0       -8.307146    6.966849    0.908865
     81          1           0       -9.456219    5.718804   -1.488102
     82          1           0       -9.908750    7.514891   -0.626027
     83          1           0      -12.396993    3.695878   -0.482695
     84          1           0      -11.995273    3.247623   -2.154326
     85          1           0      -13.336179    2.204769   -1.494991
     86          1           0      -12.555221   -1.556884   -1.093254
     87          1           0      -13.559512   -0.043568   -1.511234
     88          1           0      -12.668335    0.209958   -3.722495
     89          1           0      -11.590271   -1.450224   -3.248746
     90          1           0      -13.358060   -1.603891   -3.215227
     91          1           0       -9.567842   -4.747312   -0.332860
     92          1           0       -9.234537   -4.419210   -2.032234
     93          1           0       -8.116440   -5.533653   -1.006282
     94          1           0       -3.589395   -3.333134   -0.079230
     95          1           0       -1.876147   -6.443044    2.251001
     96          1           0       -2.269030   -5.051657    3.549420
     97          1           0       -3.771043   -6.065117    3.111867
     98          1           0        2.728113   -2.114320   -1.335469
     99          1           0        2.481651   -0.384323   -2.163906
    100          1           0        4.164927   -0.886282    0.341710
    101          1           0        4.934075    1.758751   -2.303516
    102          1           0        5.788901    0.311718   -3.123370
    103          1           0        3.915824    0.383224   -3.091897
    104          1           0        6.673461    1.314768   -0.104896
    105          1           0        6.137740   -0.322875    0.498431
    106          1           0        7.289421   -1.435814   -1.078043
    107          1           0        7.685723    0.011849   -2.016347
    108          1           0        9.001617    1.151051   -0.344966
    109          1           0        8.608077   -0.235502    1.033307
    110          1           0       10.195702   -0.241378   -1.709438
    111          1           0        9.351402   -2.760931   -1.461489
    112          1           0       11.118235   -2.760275   -1.415282
    113          1           0       10.176955   -2.796427    0.143744
    114          1           0       10.973622    0.809232    0.082511
    115          1           0       11.242554   -0.835684    0.985414
    116          1           0       12.740690   -1.489457   -0.876880
    117          1           0       12.526729   -0.083840   -1.678118
    118          1           0       13.800092    1.087798    0.409746
    119          1           0       13.911889   -0.418861    1.072421
    120          1           0       15.334951    0.117951   -1.584994
    121          1           0       14.856044   -2.291454   -1.055110
    122          1           0       16.395385   -1.964241   -1.440519
    123          1           0       15.736784   -2.009817    0.447744
    124          1           0       15.959990    1.733860    0.420797
    125          1           0       16.541761    0.265552    1.563876
    126          1           0       18.097949   -0.485736   -0.222417
    127          1           0       17.474653    0.975963   -1.251309
    128          1           0       18.239231    2.691098    0.823457
    129          1           0       18.485303    1.216143    1.646541
    130          1           0       20.321270    0.641654    0.088254
    131          1           0       19.829749    3.468060   -1.371988
    132          1           0       21.268044    2.151910   -1.521836
    133          1           0       19.746761    1.727937   -2.160278
    134          1           0       20.903855    1.552608    2.181444
    135          1           0       21.953052    2.712994    0.758052
    136          1           0       20.390640    3.401779    1.717975
    137          1           0       -7.215345    1.729228    0.476709
    138          1           0       -7.548455   -0.487267   -0.182687
 ---------------------------------------------------------------------

 SCF Done:  E(RB3LYP) =  -2732.84839153     A.U. after   17 cycles

 Excitation energies and oscillator strengths:

 Excited State   1:      Singlet-A      2.0037 eV  618.78 nm  f=0.1496  <S**2>=0.000
     235 -> 238       -0.29638
     236 -> 237        0.63085
 This state for optimization and/or second-order correction.
 Total Energy, E(TD-HF/TD-KS) =  -2732.77475793
 Copying the excited state density for this state as the 1-particle RhoCI density.

 The electronic state is 1-A.
 Alpha  occ. eigenvalues --  -19.17899 -19.17107 -19.13626 -19.13076 -19.12837
 Alpha  occ. eigenvalues --  -14.36516 -14.36407 -14.33693 -14.30429 -10.32732
 Alpha  occ. eigenvalues --  -10.31988 -10.28668 -10.25988 -10.25597 -10.24147
 Alpha  occ. eigenvalues --  -10.23997 -10.23925 -10.23758 -10.23595 -10.23097
 Alpha  occ. eigenvalues --  -10.22313 -10.22301 -10.22260 -10.22032 -10.21639
 Alpha  occ. eigenvalues --  -10.21530 -10.21498 -10.21209 -10.21071 -10.21057
 Alpha  occ. eigenvalues --  -10.20823 -10.20664 -10.20563 -10.20515 -10.20479
 Alpha  occ. eigenvalues --  -10.20342 -10.20323 -10.20248 -10.20153 -10.20101
 Alpha  occ. eigenvalues --  -10.20047 -10.19943 -10.19899 -10.19891 -10.19812
 Alpha  occ. eigenvalues --  -10.19752 -10.19741 -10.19646 -10.19619 -10.19593
 Alpha  occ. eigenvalues --  -10.19157 -10.19154 -10.18846 -10.18702 -10.18687
 Alpha  occ. eigenvalues --  -10.18542 -10.18466 -10.18338 -10.18253 -10.17936
 Alpha  occ. eigenvalues --  -10.17878 -10.17726 -10.17172 -10.16907  -1.07118
 Alpha  occ. eigenvalues --   -1.06903  -1.02348  -1.01660  -0.99912  -0.99143
 Alpha  occ. eigenvalues --   -0.98345  -0.93856  -0.93079  -0.84881  -0.83054
 Alpha  occ. eigenvalues --   -0.82938  -0.82379  -0.82185  -0.81989  -0.80933
 Alpha  occ. eigenvalues --   -0.80901  -0.80183  -0.79807  -0.78197  -0.77450
 Alpha  occ. eigenvalues --   -0.76725  -0.76001  -0.75420  -0.74801  -0.74312
 Alpha  occ. eigenvalues --   -0.73466  -0.73317  -0.72801  -0.71889  -0.71594
 Alpha  occ. eigenvalues --   -0.70604  -0.69114  -0.69046  -0.68132  -0.67742
 Alpha  occ. eigenvalues --   -0.67288  -0.66203  -0.66156  -0.65579  -0.64788
 Alpha  occ. eigenvalues --   -0.64598  -0.64078  -0.63164  -0.62088  -0.61326
 Alpha  occ. eigenvalues --   -0.60992  -0.59191  -0.58160  -0.57771  -0.57305
 Alpha  occ. eigenvalues --   -0.56845  -0.56652  -0.55790  -0.55686  -0.55615
 Alpha  occ. eigenvalues --   -0.55324  -0.55093  -0.54731  -0.53603  -0.53197
 Alpha  occ. eigenvalues --   -0.52769  -0.52211  -0.51670  -0.51170  -0.50502
 Alpha  occ. eigenvalues --   -0.49533  -0.48981  -0.48772  -0.48491  -0.48168
 Alpha  occ. eigenvalues --   -0.47782  -0.47594  -0.47365  -0.47211  -0.47001
 Alpha  occ. eigenvalues --   -0.46746  -0.46602  -0.46421  -0.46302  -0.45817
 Alpha  occ. eigenvalues --   -0.45686  -0.45246  -0.45184  -0.45006  -0.44753
 Alpha  occ. eigenvalues --   -0.44628  -0.44455  -0.44349  -0.44136  -0.43794
 Alpha  occ. eigenvalues --   -0.43755  -0.43517  -0.43224  -0.43154  -0.42826
 Alpha  occ. eigenvalues --   -0.42574  -0.42453  -0.42311  -0.42066  -0.41940
 Alpha  occ. eigenvalues --   -0.41780  -0.41614  -0.41048  -0.40969  -0.40523
 Alpha  occ. eigenvalues --   -0.40097  -0.40014  -0.39821  -0.39585  -0.39268
 Alpha  occ. eigenvalues --   -0.39128  -0.38883  -0.38737  -0.38674  -0.38476
 Alpha  occ. eigenvalues --   -0.38273  -0.38065  -0.37965  -0.37323  -0.37216
 Alpha  occ. eigenvalues --   -0.36910  -0.36833  -0.36709  -0.36560  -0.36404
 Alpha  occ. eigenvalues --   -0.36335  -0.36279  -0.36079  -0.36039  -0.35484
 Alpha  occ. eigenvalues --   -0.35468  -0.35371  -0.34966  -0.34944  -0.34780
 Alpha  occ. eigenvalues --   -0.34424  -0.34117  -0.34032  -0.33670  -0.33554
 Alpha  occ. eigenvalues --   -0.33338  -0.32955  -0.32367  -0.32325  -0.32279
 Alpha  occ. eigenvalues --   -0.32252  -0.31952  -0.31378  -0.31236  -0.30863
 Alpha  occ. eigenvalues --   -0.30647  -0.30625  -0.30460  -0.30078  -0.30075
 Alpha  occ. eigenvalues --   -0.29541  -0.29113  -0.28962  -0.28927  -0.28801
 Alpha  occ. eigenvalues --   -0.27965  -0.27904  -0.27677  -0.27225  -0.26072
 Alpha  occ. eigenvalues --   -0.25359  -0.25160  -0.24486  -0.23522  -0.20544
 Alpha  occ. eigenvalues --   -0.18291
 Alpha virt. eigenvalues --   -0.09788  -0.08513  -0.04785  -0.02242  -0.01248
 Alpha virt. eigenvalues --   -0.00984   0.00274   0.00813   0.01348   0.02736
 Alpha virt. eigenvalues --    0.02948   0.03774   0.03964   0.04287   0.04564

 Mulliken charges:
               1
     1  C   -0.102951
     2  C   -0.124199
     3  C   -0.135202
     4  C   -0.057727
     5  N   -0.215693
     6  C   -0.061871
     7  C    0.032874
     8  C   -0.111056
     9  C    0.014821
    10  C    0.087284
    11  C    0.269638
    12  C   -0.101889
    13  C    0.239643
    14  O   -0.242583
    15  O   -0.354945
    16  N   -0.024991
    17  C    0.156297
    18  C   -0.137139
    19  C    0.076632
    20  C    0.118488
    21  C    0.098789
    22  C   -0.070280
    23  C   -0.054124
    24  N   -0.208754
    25  C    0.008738
    26  C   -0.104169
    27  C   -0.060435
    28  C    0.010280
    29  C    0.035100
    30  C    0.001435
    31  C   -0.009670
    32  N    0.261115
    33  C    0.047320
    34  C   -0.173841
    35  C   -0.060766
    36  C    0.140689
    37  C    0.161301
    38  C    0.080716
    39  O   -0.175883
    40  C    0.177358
    41  C    0.195736
    42  O   -0.246665
    43  O   -0.335213
    44  C    0.139610
    45  C    0.225188
    46  C   -0.012912
    47  C   -0.131755
    48  C    0.042346
    49  C    0.110981
    50  C   -0.003598
    51  C   -0.080654
    52  C   -0.094808
    53  C    0.044698
    54  C    0.040005
    55  C    0.081711
    56  C    0.149386
    57  C   -0.066620
    58  C    0.032848
    59  C   -0.134180
    60  C    0.078334
    61  C   -0.057673
    62  C    0.083280
    63  C   -0.044285
    64  C   -0.072733
    65  H   -0.003612
    66  H    0.033423
    67  H   -0.025899
    68  H   -0.037777
    69  H    0.029478
    70  H    0.046950
    71  H    0.012185
    72  H    0.011777
    73  H   -0.034984
    74  H   -0.025632
    75  H    0.037106
    76  H    0.040157
    77  H    0.025335
    78  H    0.027750
    79  H    0.021381
    80  H   -0.012909
    81  H    0.035547
    82  H    0.050542
    83  H    0.050381
    84  H   -0.001355
    85  H    0.019831
    86  H    0.026432
    87  H   -0.003636
    88  H    0.051485
    89  H    0.017160
    90  H    0.018503
    91  H    0.013581
    92  H    0.034293
    93  H    0.050743
    94  H   -0.125286
    95  H    0.062740
    96  H    0.017929
    97  H    0.048214
    98  H    0.037194
    99  H    0.058744
   100  H   -0.090425
   101  H    0.034855
   102  H    0.036137
   103  H    0.013279
   104  H    0.011459
   105  H   -0.041392
   106  H   -0.006476
   107  H    0.004246
   108  H    0.018489
   109  H    0.023852
   110  H   -0.014132
   111  H    0.010786
   112  H    0.026336
   113  H    0.012490
   114  H   -0.014214
   115  H   -0.007295
   116  H   -0.043618
   117  H   -0.030144
   118  H   -0.031471
   119  H   -0.031296
   120  H   -0.004084
   121  H   -0.018854
   122  H    0.008596
   123  H    0.014515
   124  H    0.015409
   125  H   -0.000912
   126  H    0.020641
   127  H    0.006460
   128  H   -0.003219
   129  H   -0.016968
   130  H   -0.059108
   131  H    0.032997
   132  H    0.000273
   133  H    0.016393
   134  H    0.031916
   135  H    0.035806
   136  H    0.031123
   137  H    0.094326
   138  H   -0.067923
 Sum of Mulliken charges =   0.00000

 Dipole moment (field-independent basis, Debye):
    X=              1.4642    Y=              3.3723    Z=              0.0894  Tot=              3.6776
 Quadrupole moment (field-independent basis, Debye-Ang):
   XX=           -360.4642   YY=           -385.8005   ZZ=           -398.2361
   XY=            -30.3603   XZ=              0.7268   YZ=              4.1186

 Normal termination of Gaussian 09 at Fri Aug  2 20:27:25 2019.
