 Gaussian 09, Revision D.01,
 Gaussian 09:  ES64L-G09RevD.01 24-Apr-2013

 --------------------------
 # td=(NStates=1) B3LYP/SVP
 --------------------------

 --
 TD
 --
 Symbolic Z-matrix:
 Charge =  0 Multiplicity = 1

                         Standard orientation:
 ---------------------------------------------------------------------
 Center     Atomic      Atomic             Coordinates (Angstroms)
 Number     Number       Type             X           Y           Z
 ---------------------------------------------------------------------
      1          6           0       -5.086405   -1.880828    0.574683
      2          6           0       -4.704549    2.802469    1.236998
      3          6           0       -9.299082    3.245534   -0.219482
      4          6           0       -9.769090   -1.497293   -0.925696
      5          7           0       -5.188938    0.510728    0.751428
      6          6           0       -4.434159   -0.680379    0.765773
      7          6           0       -3.012312   -0.444254    1.309571
      8          6           0       -3.097626    0.963584    1.736780
      9          6           0       -4.405371    1.528756    1.222181
     10          6           0       -2.968313    1.150060    3.266594
     11          6           0       -2.043121   -0.755730    0.097469
     12          6           0       -0.636278   -0.597532    0.520146
     13          6           0        0.432167   -0.990369   -0.537656
     14          8           0        0.066723   -1.483213   -1.613941
     15          8           0        1.620354   -0.750323   -0.239308
     16          7           0       -6.999103    2.714515    0.373798
     17          6           0       -5.925657    3.363478    0.902407
     18          6           0       -6.199851    4.801654    0.968568
     19          6           0       -7.414658    4.978766    0.357902
     20          6           0       -8.000068    3.669096    0.139286
     21          6           0       -5.305827    5.817920    1.619914
     22          6           0       -8.199406    6.232497    0.417655
     23          6           0       -8.991133    6.611541   -0.560983
     24          7           0       -9.122664    0.872350   -0.424209
     25          6           0       -9.876592    2.004741   -0.574426
     26          6           0      -11.190461    1.772454   -0.932986
     27          6           0      -11.264875    0.419986   -1.174162
     28          6           0       -9.988859   -0.150992   -0.820636
     29          6           0      -12.191687    2.908816   -1.080195
     30          6           0      -12.519370   -0.201652   -1.705984
     31          6           0      -12.643696   -0.446581   -3.235955
     32          7           0       -7.544138   -1.336068   -0.000872
     33          6           0       -8.561947   -2.136857   -0.522233
     34          6           0       -8.189759   -3.510346   -0.456304
     35          6           0       -6.733545   -3.418818   -0.062007
     36          6           0       -6.428655   -2.083981    0.181321
     37          6           0       -8.964709   -4.693723   -0.923572
     38          6           0       -5.690341   -4.275494    0.141702
     39          8           0       -5.452224   -5.452749    0.046201
     40          6           0       -4.378761   -3.229560    0.445749
     41          6           0       -3.775802   -3.774984    1.774703
     42          8           0       -4.186507   -3.391120    2.821795
     43          8           0       -2.930438   -4.714800    1.595078
     44          6           0       -2.546501   -5.482261    2.716050
     45          6           0        2.668592   -1.084762   -1.204167
     46          6           0        3.981597   -0.682108   -0.625113
     47          6           0        4.953358    0.069828   -1.130644
     48          6           0        4.822647    0.838895   -2.406110
     49          6           0        6.294112    0.208665   -0.484752
     50          6           0        7.492775   -0.447510   -1.168641
     51          6           0        8.687393   -0.425486   -0.236202
     52          6           0       10.043880   -0.979017   -0.868749
     53          6           0        9.971674   -2.468526   -1.212895
     54          6           0       11.264670   -0.577065    0.059021
     55          6           0       12.612396   -0.712223   -0.615635
     56          6           0       13.729425   -0.313733    0.413793
     57          6           0       15.136439   -0.251603   -0.282598
     58          6           0       15.646139   -1.661701   -0.833789
     59          6           0       16.077772    0.607003    0.604750
     60          6           0       17.465518    0.772526   -0.091833
     61          6           0       18.457937    1.551019    0.822310
     62          6           0       19.869659    1.916757    0.110210
     63          6           0       19.889926    2.789040   -1.156915
     64          6           0       20.901606    2.425966    1.225671
     65          1           0       -3.969529    3.475071    1.621564
     66          1           0      -10.044480    4.080817   -0.225405
     67          1           0      -10.744202   -2.023382   -1.224219
     68          1           0       -2.830542   -0.898374    2.106849
     69          1           0       -2.266916    1.330785    1.415395
     70          1           0       -1.908556    0.729247    3.747669
     71          1           0       -3.077637    2.298387    3.518307
     72          1           0       -3.670139    0.657180    3.728725
     73          1           0       -2.206327   -1.622872   -0.449972
     74          1           0       -2.178821    0.067211   -0.698038
     75          1           0       -0.378542    0.494535    0.936404
     76          1           0       -0.498547   -1.542115    1.229170
     77          1           0       -4.462457    5.867183    0.953354
     78          1           0       -5.942795    6.876500    1.548056
     79          1           0       -4.913683    5.685651    2.566929
     80          1           0       -7.784994    6.912386    1.244879
     81          1           0       -9.316534    6.100286   -1.343179
     82          1           0       -9.739536    7.712221   -0.188378
     83          1           0      -12.247082    3.571656   -0.339370
     84          1           0      -11.849838    3.558015   -1.949084
     85          1           0      -13.240267    2.643176   -1.361968
     86          1           0      -12.711119   -1.167887   -1.437706
     87          1           0      -13.261635    0.477505   -1.472184
     88          1           0      -12.833113    0.551540   -3.785441
     89          1           0      -11.706902   -0.822702   -3.937841
     90          1           0      -13.365925   -1.266301   -3.212482
     91          1           0       -9.944446   -4.456577   -0.358289
     92          1           0       -9.289747   -4.613766   -2.019049
     93          1           0       -8.407904   -5.664831   -0.894319
     94          1           0       -3.748914   -3.429867   -0.348464
     95          1           0       -1.938537   -6.291566    2.306049
     96          1           0       -2.062973   -4.914238    3.343088
     97          1           0       -3.368580   -5.768676    3.123602
     98          1           0        2.601850   -2.294338   -1.432687
     99          1           0        2.656795   -0.530067   -2.140212
    100          1           0        4.191990   -1.111051    0.288269
    101          1           0        5.103780    1.932063   -2.154563
    102          1           0        5.471819    0.492226   -3.229628
    103          1           0        3.779654    0.995892   -2.768084
    104          1           0        6.805085    1.090944   -0.574299
    105          1           0        6.152755   -0.178627    0.543209
    106          1           0        7.382854   -1.693838   -1.641011
    107          1           0        7.644428   -0.060027   -2.106586
    108          1           0        8.831377    0.717175   -0.109200
    109          1           0        8.608335   -0.907417    0.761163
    110          1           0       10.242899   -0.535179   -1.903833
    111          1           0        9.132051   -2.503580   -2.228908
    112          1           0       10.955002   -2.714501   -1.467542
    113          1           0        9.508589   -3.292835   -0.371793
    114          1           0       11.045637    0.418672    0.411795
    115          1           0       11.159101   -0.913779    1.098164
    116          1           0       12.874213   -1.827106   -1.066658
    117          1           0       12.643249   -0.019209   -1.570239
    118          1           0       13.539685    0.766782    1.010185
    119          1           0       13.754402   -1.093950    1.361715
    120          1           0       15.187116    0.505503   -1.126690
    121          1           0       14.916823   -2.070897   -1.352523
    122          1           0       16.542312   -1.545251   -1.574803
    123          1           0       16.092807   -2.336756    0.035724
    124          1           0       15.671457    1.465904    0.658877
    125          1           0       16.144884    0.123906    1.709018
    126          1           0       17.810841   -0.199498   -0.407477
    127          1           0       17.236249    1.451582   -1.072777
    128          1           0       17.878726    2.572874    1.114300
    129          1           0       18.697436    1.051591    1.874065
    130          1           0       20.220441    0.761009   -0.324787
    131          1           0       19.582018    3.753438   -0.928922
    132          1           0       20.919806    2.966592   -1.602984
    133          1           0       19.381830    2.405639   -1.799353
    134          1           0       21.173528    1.541550    2.030485
    135          1           0       21.817718    2.701626    0.562474
    136          1           0       20.398116    3.521466    1.676484
    137          1           0       -7.060030    1.683562    0.335214
    138          1           0       -7.513052   -0.265428    0.074849
 ---------------------------------------------------------------------

 SCF Done:  E(RB3LYP) =  -2732.91237637     A.U. after   16 cycles

 Excitation energies and oscillator strengths:

 Excited State   1:      Singlet-A      2.0974 eV  591.12 nm  f=0.1685  <S**2>=0.000
     235 -> 237       -0.27387
     235 -> 238       -0.26382
     236 -> 237        0.56668
     236 -> 238       -0.18030
 This state for optimization and/or second-order correction.
 Total Energy, E(TD-HF/TD-KS) =  -2732.83529666
 Copying the excited state density for this state as the 1-particle RhoCI density.

 The electronic state is 1-A.
 Alpha  occ. eigenvalues --  -19.19152 -19.16712 -19.10869 -19.09992 -19.09652
 Alpha  occ. eigenvalues --  -14.36883 -14.36636 -14.31830 -14.29575 -10.30476
 Alpha  occ. eigenvalues --  -10.29142 -10.26555 -10.25919 -10.24362 -10.23741
 Alpha  occ. eigenvalues --  -10.23544 -10.22804 -10.22240 -10.22138 -10.21693
 Alpha  occ. eigenvalues --  -10.21568 -10.21397 -10.21311 -10.21304 -10.21236
 Alpha  occ. eigenvalues --  -10.21212 -10.21081 -10.21065 -10.21008 -10.20976
 Alpha  occ. eigenvalues --  -10.20960 -10.20862 -10.20787 -10.20753 -10.20666
 Alpha  occ. eigenvalues --  -10.20516 -10.20486 -10.20418 -10.20251 -10.20198
 Alpha  occ. eigenvalues --  -10.20132 -10.20041 -10.19876 -10.19859 -10.19655
 Alpha  occ. eigenvalues --  -10.19329 -10.19320 -10.19232 -10.19026 -10.18981
 Alpha  occ. eigenvalues --  -10.18893 -10.18562 -10.18363 -10.18347 -10.18328
 Alpha  occ. eigenvalues --  -10.18207 -10.18145 -10.18143 -10.18098 -10.18018
 Alpha  occ. eigenvalues --  -10.17856 -10.17678 -10.17599 -10.16163  -1.12408
 Alpha  occ. eigenvalues --   -1.10947  -1.01733  -1.00103  -0.98306  -0.97966
 Alpha  occ. eigenvalues --   -0.97506  -0.93328  -0.92926  -0.83903  -0.83890
 Alpha  occ. eigenvalues --   -0.82739  -0.81846  -0.81276  -0.80957  -0.80393
 Alpha  occ. eigenvalues --   -0.79857  -0.79546  -0.79209  -0.78692  -0.77876
 Alpha  occ. eigenvalues --   -0.77277  -0.76656  -0.76004  -0.75232  -0.74801
 Alpha  occ. eigenvalues --   -0.74360  -0.73652  -0.72916  -0.71581  -0.71539
 Alpha  occ. eigenvalues --   -0.70037  -0.69547  -0.68493  -0.68245  -0.68123
 Alpha  occ. eigenvalues --   -0.67811  -0.66929  -0.66536  -0.66078  -0.65325
 Alpha  occ. eigenvalues --   -0.64095  -0.62805  -0.62233  -0.61789  -0.61364
 Alpha  occ. eigenvalues --   -0.60389  -0.58908  -0.58701  -0.58226  -0.57469
 Alpha  occ. eigenvalues --   -0.56764  -0.56588  -0.56245  -0.56011  -0.55271
 Alpha  occ. eigenvalues --   -0.55068  -0.54423  -0.54157  -0.53559  -0.52910
 Alpha  occ. eigenvalues --   -0.52614  -0.52528  -0.51625  -0.51007  -0.50873
 Alpha  occ. eigenvalues --   -0.50330  -0.49980  -0.49669  -0.49131  -0.48268
 Alpha  occ. eigenvalues --   -0.47961  -0.47591  -0.47427  -0.47371  -0.46914
 Alpha  occ. eigenvalues --   -0.46446  -0.46336  -0.45852  -0.45800  -0.45734
 Alpha  occ. eigenvalues --   -0.45581  -0.45301  -0.44876  -0.44606  -0.44508
 Alpha  occ. eigenvalues --   -0.44254  -0.44104  -0.43985  -0.43720  -0.43608
 Alpha  occ. eigenvalues --   -0.43457  -0.43340  -0.43020  -0.42712  -0.42510
 Alpha  occ. eigenvalues --   -0.42494  -0.42232  -0.42133  -0.41791  -0.41763
 Alpha  occ. eigenvalues --   -0.41513  -0.41157  -0.41076  -0.40521  -0.40280
 Alpha  occ. eigenvalues --   -0.39990  -0.39786  -0.39623  -0.39284  -0.39199
 Alpha  occ. eigenvalues --   -0.39168  -0.38602  -0.38558  -0.38498  -0.38261
 Alpha  occ. eigenvalues --   -0.38186  -0.38033  -0.37948  -0.37908  -0.37776
 Alpha  occ. eigenvalues --   -0.37514  -0.37192  -0.37071  -0.36997  -0.36708
 Alpha  occ. eigenvalues --   -0.36629  -0.36395  -0.36137  -0.36050  -0.35754
 Alpha  occ. eigenvalues --   -0.35426  -0.35288  -0.35018  -0.34799  -0.34766
 Alpha  occ. eigenvalues --   -0.34716  -0.34363  -0.34022  -0.33895  -0.33591
 Alpha  occ. eigenvalues --   -0.33448  -0.33332  -0.33102  -0.32460  -0.32331
 Alpha  occ. eigenvalues --   -0.32005  -0.31922  -0.31731  -0.31613  -0.31290
 Alpha  occ. eigenvalues --   -0.31072  -0.30648  -0.30382  -0.30144  -0.29859
 Alpha  occ. eigenvalues --   -0.29427  -0.28830  -0.27787  -0.27765  -0.27044
 Alpha  occ. eigenvalues --   -0.26935  -0.26728  -0.26388  -0.25698  -0.25095
 Alpha  occ. eigenvalues --   -0.24873  -0.24795  -0.22717  -0.22352  -0.19764
 Alpha  occ. eigenvalues --   -0.19143
 Alpha virt. eigenvalues --   -0.10517  -0.07554  -0.03870  -0.01879  -0.00621
 Alpha virt. eigenvalues --    0.00762   0.01974   0.02275   0.03012   0.03186
 Alpha virt. eigenvalues --    0.03349   0.03710   0.04111   0.04237   0.04509

 Mulliken charges:
               1
     1  C    0.062280
     2  C   -0.089649
     3  C   -0.077365
     4  C   -0.127247
     5  N   -0.244544
     6  C   -0.069663
     7  C    0.137722
     8  C    0.086408
     9  C    0.049809
    10  C    0.039914
    11  C    0.077254
    12  C   -0.003651
    13  C    0.122271
    14  O   -0.290425
    15  O   -0.221731
    16  N   -0.068550
    17  C    0.117745
    18  C   -0.160952
    19  C    0.011370
    20  C    0.097863
    21  C    0.116290
    22  C   -0.031621
    23  C   -0.020928
    24  N   -0.272913
    25  C    0.055465
    26  C   -0.111447
    27  C   -0.106498
    28  C    0.077399
    29  C    0.144885
    30  C    0.164129
    31  C   -0.077442
    32  N   -0.079145
    33  C    0.132432
    34  C   -0.087740
    35  C    0.018750
    36  C    0.107818
    37  C    0.051865
    38  C   -0.022133
    39  O   -0.171928
    40  C   -0.120295
    41  C    0.141519
    42  O   -0.234280
    43  O   -0.249779
    44  C    0.346492
    45  C    0.263638
    46  C   -0.085527
    47  C   -0.101231
    48  C    0.023490
    49  C    0.163655
    50  C   -0.030526
    51  C    0.014084
    52  C   -0.084537
    53  C   -0.029398
    54  C    0.078037
    55  C   -0.013443
    56  C   -0.061286
    57  C   -0.096848
    58  C    0.057723
    59  C    0.092825
    60  C   -0.014073
    61  C   -0.008504
    62  C   -0.172642
    63  C    0.182821
    64  C   -0.061306
    65  H   -0.052716
    66  H   -0.025788
    67  H   -0.000546
    68  H   -0.103510
    69  H   -0.101814
    70  H    0.029725
    71  H    0.019288
    72  H   -0.016350
    73  H    0.004758
    74  H    0.001578
    75  H    0.058239
    76  H    0.036459
    77  H    0.026884
    78  H    0.033489
    79  H    0.020058
    80  H    0.031640
    81  H   -0.003747
    82  H    0.034596
    83  H   -0.011594
    84  H    0.013823
    85  H    0.008377
    86  H   -0.037329
    87  H   -0.016457
    88  H    0.026741
    89  H    0.029629
    90  H    0.019742
    91  H    0.044547
    92  H    0.039464
    93  H    0.059638
    94  H    0.016631
    95  H    0.028133
    96  H   -0.031077
    97  H   -0.030947
    98  H    0.065820
    99  H    0.015937
   100  H   -0.048751
   101  H    0.021037
   102  H    0.041471
   103  H    0.018304
   104  H   -0.038217
   105  H    0.004456
   106  H   -0.008042
   107  H   -0.023133
   108  H    0.001984
   109  H    0.016498
   110  H   -0.004786
   111  H    0.029077
   112  H   -0.003072
   113  H    0.032061
   114  H   -0.036602
   115  H   -0.025286
   116  H    0.046272
   117  H    0.018177
   118  H    0.018685
   119  H    0.023712
   120  H   -0.009427
   121  H   -0.033374
   122  H    0.017673
   123  H    0.028000
   124  H   -0.064051
   125  H    0.001108
   126  H    0.001558
   127  H    0.014689
   128  H    0.001372
   129  H    0.020478
   130  H    0.000723
   131  H   -0.017710
   132  H    0.005497
   133  H   -0.073652
   134  H    0.051388
   135  H    0.027935
   136  H    0.037645
   137  H    0.152271
   138  H    0.184010
 Sum of Mulliken charges =   0.00000

 Dipole moment (field-independent basis, Debye):
    X=              2.7701    Y=              5.4502    Z=              0.1642  Tot=              6.1160
 Quadrupole moment (field-independent basis, Debye-Ang):
   XX=           -341.6170   YY=           -384.0485   ZZ=           -395.7845
   XY=            -19.5684   XZ=              1.1182   YZ=              0.0189

 Normal termination of Gaussian 09 at Sun Aug  4 05:59:03 2019.
