 Gaussian 09, Revision D.01,
 Gaussian 09:  ES64L-G09RevD.01 24-Apr-2013

 --------------------------
 # td=(NStates=1) B3LYP/SVP
 --------------------------

 --
 TD
 --
 Symbolic Z-matrix:
 Charge =  0 Multiplicity = 1

                         Standard orientation:
 ---------------------------------------------------------------------
 Center     Atomic      Atomic             Coordinates (Angstroms)
 Number     Number       Type             X           Y           Z
 ---------------------------------------------------------------------
      1          6           0       -5.124478   -1.988110    0.443867
      2          6           0       -4.914291    2.727503    1.501071
      3          6           0       -9.335381    3.301144   -0.309691
      4          6           0       -9.702060   -1.418756   -0.912851
      5          7           0       -5.281572    0.355869    0.936552
      6          6           0       -4.575527   -0.727940    0.871454
      7          6           0       -3.091159   -0.518880    1.329632
      8          6           0       -3.177644    0.879082    1.941831
      9          6           0       -4.526185    1.383253    1.329133
     10          6           0       -2.994176    1.091169    3.452593
     11          6           0       -2.102609   -0.676807    0.300100
     12          6           0       -0.552738   -0.704266    0.717662
     13          6           0        0.361435   -0.844881   -0.565696
     14          8           0        0.127507   -1.371331   -1.588384
     15          8           0        1.620789   -0.506891   -0.140567
     16          7           0       -7.126441    2.677605    0.493709
     17          6           0       -6.028372    3.359526    1.073304
     18          6           0       -6.401350    4.839271    1.126973
     19          6           0       -7.641791    4.890034    0.559361
     20          6           0       -8.085988    3.677717    0.197717
     21          6           0       -5.451025    5.784275    1.663941
     22          6           0       -8.304963    6.161228    0.336932
     23          6           0       -9.177216    6.458153   -0.684620
     24          7           0       -9.077632    0.880532   -0.606915
     25          6           0       -9.875722    2.049097   -0.653841
     26          6           0      -11.236068    1.778220   -1.127193
     27          6           0      -11.381166    0.362531   -1.259967
     28          6           0       -9.977101   -0.112613   -1.014385
     29          6           0      -12.302097    2.793544   -1.283132
     30          6           0      -12.526468   -0.407691   -1.736266
     31          6           0      -12.734849   -0.655961   -3.216823
     32          7           0       -7.363520   -1.215220   -0.263124
     33          6           0       -8.426315   -2.115387   -0.690920
     34          6           0       -8.120771   -3.436682   -0.593206
     35          6           0       -6.747756   -3.477678   -0.262731
     36          6           0       -6.333896   -2.128713    0.014903
     37          6           0       -8.997762   -4.657514   -0.904178
     38          6           0       -5.575117   -4.237831    0.129932
     39          8           0       -5.499338   -5.534390    0.045538
     40          6           0       -4.440142   -3.253514    0.536047
     41          6           0       -3.859916   -3.861216    1.761997
     42          8           0       -4.159877   -3.502441    2.848884
     43          8           0       -2.980933   -4.843258    1.459298
     44          6           0       -2.483399   -5.536844    2.534849
     45          6           0        2.655659   -0.745854   -1.205717
     46          6           0        3.904129   -0.577771   -0.593898
     47          6           0        4.943989    0.345006   -1.045076
     48          6           0        4.844253    1.279811   -2.134074
     49          6           0        6.247169    0.404425   -0.275132
     50          6           0        7.450208   -0.194543   -0.864830
     51          6           0        8.717008   -0.267116   -0.152726
     52          6           0        9.992792   -0.605300   -0.854614
     53          6           0       10.014373   -2.125044   -1.307943
     54          6           0       11.278023   -0.309384   -0.026555
     55          6           0       12.638585   -0.492386   -0.706747
     56          6           0       13.855484   -0.096648    0.132580
     57          6           0       15.212599   -0.231145   -0.507107
     58          6           0       15.655038   -1.715926   -0.847874
     59          6           0       16.279567    0.459955    0.396316
     60          6           0       17.674183    0.697396   -0.191250
     61          6           0       18.658872    1.440634    0.624411
     62          6           0       20.093582    1.570579    0.157575
     63          6           0       20.261630    2.313784   -1.172653
     64          6           0       21.004612    2.145253    1.287006
     65          1           0       -4.031656    3.284936    2.033453
     66          1           0       -9.989020    4.243932   -0.406272
     67          1           0      -10.431930   -2.087153   -1.249862
     68          1           0       -2.872181   -1.118045    2.122092
     69          1           0       -2.451217    1.366139    1.452594
     70          1           0       -2.000563    0.951641    3.691456
     71          1           0       -3.152405    2.177973    3.823854
     72          1           0       -3.630325    0.667552    4.309507
     73          1           0       -2.241142   -1.608160   -0.156319
     74          1           0       -2.301855    0.250528   -0.564708
     75          1           0       -0.305010    0.114389    1.396191
     76          1           0       -0.250377   -1.755139    1.297003
     77          1           0       -4.314890    5.489140    1.273882
     78          1           0       -5.718733    6.823667    1.340963
     79          1           0       -5.303825    5.740091    2.856977
     80          1           0       -8.296807    6.934400    1.091237
     81          1           0       -9.279745    5.763710   -1.497829
     82          1           0       -9.878692    7.230552   -0.748527
     83          1           0      -12.473015    3.333997   -0.383207
     84          1           0      -12.072569    3.628351   -2.002249
     85          1           0      -13.247392    2.298447   -1.510261
     86          1           0      -12.565689   -1.464508   -1.171934
     87          1           0      -13.387760    0.134852   -1.396384
     88          1           0      -12.569673    0.441840   -3.741907
     89          1           0      -11.962105   -1.293290   -3.575003
     90          1           0      -13.625840   -1.196846   -3.522192
     91          1           0       -9.698934   -4.895696   -0.029679
     92          1           0       -9.548921   -4.531194   -1.939906
     93          1           0       -8.237224   -5.643745   -0.891615
     94          1           0       -3.790643   -3.439291   -0.340379
     95          1           0       -1.661945   -6.083029    1.978396
     96          1           0       -1.872474   -4.915128    3.037498
     97          1           0       -3.209613   -6.282233    3.240164
     98          1           0        2.492592   -1.674684   -1.521159
     99          1           0        2.687961   -0.019721   -2.055776
    100          1           0        4.188386   -1.294628    0.149316
    101          1           0        4.732117    2.470726   -1.746232
    102          1           0        5.847706    1.126007   -2.856521
    103          1           0        3.872351    1.177852   -2.693663
    104          1           0        6.325465    1.499217   -0.152251
    105          1           0        6.126698   -0.184479    0.672444
    106          1           0        7.282197   -1.318891   -1.302452
    107          1           0        7.675806    0.637743   -1.865859
    108          1           0        9.135965    0.746528    0.270006
    109          1           0        8.622913   -0.945374    0.821260
    110          1           0        9.763857   -0.094070   -1.912069
    111          1           0        9.127861   -2.310020   -1.874116
    112          1           0       10.859223   -2.491402   -1.942103
    113          1           0       10.001321   -2.670139   -0.254617
    114          1           0       11.302917    0.692894    0.256960
    115          1           0       11.219170   -0.976210    1.013117
    116          1           0       12.922466   -1.532117   -0.927822
    117          1           0       12.540331    0.082709   -1.709549
    118          1           0       13.787052    0.877990    0.478136
    119          1           0       13.734399   -0.689428    1.168307
    120          1           0       15.065173    0.239186   -1.573237
    121          1           0       14.937660   -2.145729   -1.612791
    122          1           0       16.716848   -1.747164   -1.264193
    123          1           0       15.626841   -2.581810   -0.024771
    124          1           0       15.765962    1.450283    0.948206
    125          1           0       16.677256   -0.343152    1.387649
    126          1           0       18.209895   -0.355719   -0.208416
    127          1           0       17.570977    1.176757   -1.166997
    128          1           0       18.429424    2.581585    0.848114
    129          1           0       18.737989    0.852988    1.731624
    130          1           0       20.406390    0.477047   -0.020845
    131          1           0       20.126219    3.328876   -1.005167
    132          1           0       21.202315    2.144162   -1.728704
    133          1           0       19.569247    1.841860   -2.129823
    134          1           0       20.936322    1.439624    2.248551
    135          1           0       21.948140    2.036398    1.148066
    136          1           0       20.578930    3.202087    1.819229
    137          1           0       -7.284110    1.651875    0.467619
    138          1           0       -7.243261   -0.168485   -0.533161
 ---------------------------------------------------------------------

 SCF Done:  E(RB3LYP) =  -2732.99356663     A.U. after   17 cycles

 Excitation energies and oscillator strengths:

 Excited State   1:      Singlet-A      2.0413 eV  607.39 nm  f=0.1814  <S**2>=0.000
     235 -> 237       -0.20972
     235 -> 238        0.28471
     236 -> 237        0.58786
     236 -> 238        0.16368
 This state for optimization and/or second-order correction.
 Total Energy, E(TD-HF/TD-KS) =  -2732.91855115
 Copying the excited state density for this state as the 1-particle RhoCI density.

 The electronic state is 1-A.
 Alpha  occ. eigenvalues --  -19.17661 -19.16826 -19.13310 -19.12341 -19.10673
 Alpha  occ. eigenvalues --  -14.36617 -14.35964 -14.32365 -14.30504 -10.31588
 Alpha  occ. eigenvalues --  -10.31248 -10.27280 -10.24166 -10.24131 -10.23324
 Alpha  occ. eigenvalues --  -10.23201 -10.23109 -10.23079 -10.23069 -10.22368
 Alpha  occ. eigenvalues --  -10.22366 -10.22228 -10.21974 -10.21767 -10.21748
 Alpha  occ. eigenvalues --  -10.21686 -10.21642 -10.21550 -10.21452 -10.21245
 Alpha  occ. eigenvalues --  -10.21016 -10.21009 -10.20850 -10.20751 -10.20622
 Alpha  occ. eigenvalues --  -10.20295 -10.20242 -10.20239 -10.19958 -10.19909
 Alpha  occ. eigenvalues --  -10.19867 -10.19687 -10.19679 -10.19651 -10.19635
 Alpha  occ. eigenvalues --  -10.19601 -10.19586 -10.19546 -10.19495 -10.19492
 Alpha  occ. eigenvalues --  -10.19355 -10.19229 -10.19180 -10.19050 -10.19035
 Alpha  occ. eigenvalues --  -10.19032 -10.18918 -10.18888 -10.18880 -10.18876
 Alpha  occ. eigenvalues --  -10.18838 -10.18624 -10.18326 -10.18267  -1.10757
 Alpha  occ. eigenvalues --   -1.09289  -1.02408  -1.00964  -0.97555  -0.96902
 Alpha  occ. eigenvalues --   -0.96212  -0.95116  -0.91422  -0.86366  -0.83538
 Alpha  occ. eigenvalues --   -0.83185  -0.82254  -0.81891  -0.81229  -0.81063
 Alpha  occ. eigenvalues --   -0.80058  -0.80000  -0.79746  -0.78802  -0.78084
 Alpha  occ. eigenvalues --   -0.77277  -0.76082  -0.75988  -0.75387  -0.74642
 Alpha  occ. eigenvalues --   -0.74060  -0.73578  -0.72624  -0.71967  -0.71146
 Alpha  occ. eigenvalues --   -0.70285  -0.69680  -0.68507  -0.67863  -0.67631
 Alpha  occ. eigenvalues --   -0.67579  -0.66863  -0.65845  -0.65682  -0.64851
 Alpha  occ. eigenvalues --   -0.64442  -0.63217  -0.62464  -0.62113  -0.61288
 Alpha  occ. eigenvalues --   -0.60764  -0.58832  -0.58775  -0.58075  -0.56994
 Alpha  occ. eigenvalues --   -0.56236  -0.55638  -0.55509  -0.55443  -0.54780
 Alpha  occ. eigenvalues --   -0.54346  -0.53891  -0.53393  -0.53341  -0.52783
 Alpha  occ. eigenvalues --   -0.52403  -0.52021  -0.51889  -0.51370  -0.50919
 Alpha  occ. eigenvalues --   -0.50258  -0.49651  -0.49291  -0.49217  -0.48806
 Alpha  occ. eigenvalues --   -0.48332  -0.48051  -0.47739  -0.47480  -0.47317
 Alpha  occ. eigenvalues --   -0.47158  -0.47013  -0.46683  -0.45915  -0.45857
 Alpha  occ. eigenvalues --   -0.45496  -0.45112  -0.45086  -0.44919  -0.44668
 Alpha  occ. eigenvalues --   -0.44418  -0.44320  -0.44027  -0.43744  -0.43543
 Alpha  occ. eigenvalues --   -0.43136  -0.43005  -0.42778  -0.42676  -0.42302
 Alpha  occ. eigenvalues --   -0.42101  -0.41953  -0.41911  -0.41479  -0.41358
 Alpha  occ. eigenvalues --   -0.41020  -0.40849  -0.40755  -0.40565  -0.40443
 Alpha  occ. eigenvalues --   -0.40164  -0.39852  -0.39742  -0.39550  -0.39534
 Alpha  occ. eigenvalues --   -0.39002  -0.38688  -0.38595  -0.38492  -0.38431
 Alpha  occ. eigenvalues --   -0.38272  -0.37939  -0.37759  -0.37725  -0.37380
 Alpha  occ. eigenvalues --   -0.37113  -0.36991  -0.36952  -0.36823  -0.36613
 Alpha  occ. eigenvalues --   -0.36550  -0.36377  -0.36227  -0.35965  -0.35739
 Alpha  occ. eigenvalues --   -0.35438  -0.35416  -0.34863  -0.34649  -0.34563
 Alpha  occ. eigenvalues --   -0.34507  -0.34119  -0.34106  -0.33903  -0.33371
 Alpha  occ. eigenvalues --   -0.32978  -0.32928  -0.32830  -0.32517  -0.32427
 Alpha  occ. eigenvalues --   -0.32034  -0.31774  -0.31515  -0.31210  -0.30962
 Alpha  occ. eigenvalues --   -0.30851  -0.30770  -0.30696  -0.30506  -0.30411
 Alpha  occ. eigenvalues --   -0.29942  -0.29644  -0.29236  -0.28886  -0.28454
 Alpha  occ. eigenvalues --   -0.27635  -0.27391  -0.27142  -0.26614  -0.25611
 Alpha  occ. eigenvalues --   -0.24369  -0.23694  -0.23522  -0.22454  -0.20005
 Alpha  occ. eigenvalues --   -0.18838
 Alpha virt. eigenvalues --   -0.10505  -0.07873  -0.04996  -0.03071  -0.02380
 Alpha virt. eigenvalues --   -0.00516   0.00018   0.00815   0.01679   0.02292
 Alpha virt. eigenvalues --    0.02893   0.03710   0.04090   0.04504   0.04769

 Mulliken charges:
               1
     1  C    0.021106
     2  C   -0.112230
     3  C   -0.113150
     4  C   -0.037528
     5  N   -0.095952
     6  C   -0.144195
     7  C    0.066749
     8  C    0.058512
     9  C   -0.068234
    10  C    0.066267
    11  C    0.043748
    12  C   -0.035868
    13  C    0.186694
    14  O   -0.189406
    15  O   -0.356630
    16  N   -0.137751
    17  C    0.150714
    18  C   -0.063701
    19  C    0.090559
    20  C    0.095346
    21  C   -0.006829
    22  C   -0.084352
    23  C   -0.017292
    24  N   -0.297920
    25  C    0.103943
    26  C   -0.128719
    27  C   -0.092538
    28  C    0.114750
    29  C    0.134717
    30  C    0.024384
    31  C    0.026157
    32  N   -0.145489
    33  C    0.072615
    34  C   -0.124060
    35  C    0.095624
    36  C    0.063667
    37  C   -0.010469
    38  C   -0.025590
    39  O   -0.267231
    40  C    0.051299
    41  C    0.179878
    42  O   -0.187513
    43  O   -0.277198
    44  C    0.193981
    45  C    0.389567
    46  C   -0.104329
    47  C   -0.156539
    48  C   -0.031010
    49  C    0.134449
    50  C   -0.066687
    51  C    0.020283
    52  C   -0.118326
    53  C    0.004877
    54  C    0.049054
    55  C    0.019490
    56  C    0.038838
    57  C   -0.040167
    58  C   -0.046439
    59  C   -0.078398
    60  C    0.069794
    61  C   -0.055860
    62  C   -0.084804
    63  C    0.011210
    64  C    0.057651
    65  H    0.005712
    66  H   -0.013624
    67  H   -0.052427
    68  H   -0.047822
    69  H   -0.062792
    70  H   -0.010488
    71  H   -0.002039
    72  H    0.035441
    73  H   -0.004066
    74  H    0.025962
    75  H    0.029958
    76  H    0.060254
    77  H    0.052354
    78  H    0.033464
    79  H    0.055300
    80  H    0.006966
    81  H    0.024110
    82  H    0.011873
    83  H    0.004465
    84  H    0.018596
    85  H    0.001486
    86  H    0.018559
    87  H   -0.003950
    88  H    0.028619
    89  H   -0.004866
    90  H    0.017467
    91  H    0.049159
    92  H    0.058381
    93  H    0.072820
    94  H    0.064501
    95  H    0.013119
    96  H   -0.025408
    97  H    0.072914
    98  H   -0.021088
    99  H    0.006057
   100  H   -0.022253
   101  H    0.051879
   102  H    0.067067
   103  H    0.020214
   104  H    0.007096
   105  H   -0.001830
   106  H    0.031149
   107  H   -0.002126
   108  H   -0.001150
   109  H   -0.000471
   110  H    0.002598
   111  H   -0.003847
   112  H    0.023903
   113  H    0.008366
   114  H   -0.019546
   115  H    0.014943
   116  H    0.001085
   117  H    0.005215
   118  H   -0.039957
   119  H   -0.000051
   120  H    0.012849
   121  H    0.016939
   122  H    0.025189
   123  H    0.022501
   124  H    0.026707
   125  H    0.012403
   126  H    0.018393
   127  H    0.000858
   128  H   -0.003277
   129  H    0.006618
   130  H   -0.010266
   131  H    0.001034
   132  H    0.009710
   133  H    0.017898
   134  H    0.000411
   135  H   -0.038513
   136  H    0.032534
   137  H    0.158924
   138  H    0.194321
 Sum of Mulliken charges =   0.00000

 Dipole moment (field-independent basis, Debye):
    X=              2.3332    Y=              5.9727    Z=              0.0527  Tot=              6.4125
 Quadrupole moment (field-independent basis, Debye-Ang):
   XX=           -333.8679   YY=           -389.8949   ZZ=           -396.7764
   XY=            -32.5661   XZ=              3.4794   YZ=              2.2282

 Normal termination of Gaussian 09 at Wed Jul 31 20:57:08 2019.
