 Gaussian 09, Revision D.01,
 Gaussian 09:  ES64L-G09RevD.01 24-Apr-2013

 --------------------------
 # td=(NStates=1) B3LYP/SVP
 --------------------------

 --
 TD
 --
 Symbolic Z-matrix:
 Charge =  0 Multiplicity = 1

                         Standard orientation:
 ---------------------------------------------------------------------
 Center     Atomic      Atomic             Coordinates (Angstroms)
 Number     Number       Type             X           Y           Z
 ---------------------------------------------------------------------
      1          6           0       -5.115359   -1.874227    0.519948
      2          6           0       -4.623504    2.781446    1.393203
      3          6           0       -9.235891    3.363849   -0.172091
      4          6           0       -9.928148   -1.411807   -0.944823
      5          7           0       -5.183426    0.438427    0.868647
      6          6           0       -4.499182   -0.735010    0.902740
      7          6           0       -3.077817   -0.589435    1.250789
      8          6           0       -3.053495    0.817381    1.911099
      9          6           0       -4.406353    1.453483    1.320383
     10          6           0       -3.092690    0.888499    3.513496
     11          6           0       -2.075157   -0.848634    0.088800
     12          6           0       -0.615824   -0.812568    0.520685
     13          6           0        0.328991   -1.031919   -0.632972
     14          8           0        0.052527   -1.420586   -1.753771
     15          8           0        1.599619   -0.667691   -0.270663
     16          7           0       -6.968063    2.825079    0.445003
     17          6           0       -5.925817    3.401119    0.981084
     18          6           0       -6.205460    4.784285    1.065151
     19          6           0       -7.412802    4.970627    0.526721
     20          6           0       -7.942453    3.729999    0.188071
     21          6           0       -5.155704    5.792654    1.675337
     22          6           0       -8.155050    6.267285    0.424889
     23          6           0       -8.851370    6.609074   -0.577214
     24          7           0       -9.174808    0.885771   -0.497319
     25          6           0       -9.794831    2.080467   -0.577536
     26          6           0      -11.279315    1.906350   -0.934012
     27          6           0      -11.325377    0.584649   -1.201283
     28          6           0      -10.036741   -0.008586   -0.865298
     29          6           0      -12.204234    3.078456   -1.128017
     30          6           0      -12.505225   -0.181358   -1.709065
     31          6           0      -12.525964   -0.347013   -3.300257
     32          7           0       -7.550899   -1.221974   -0.215027
     33          6           0       -8.631558   -1.988788   -0.591633
     34          6           0       -8.176774   -3.420442   -0.684837
     35          6           0       -6.826364   -3.423505   -0.222105
     36          6           0       -6.498824   -2.010163   -0.002275
     37          6           0       -8.975029   -4.628357   -1.002171
     38          6           0       -5.753210   -4.314291   -0.001575
     39          8           0       -5.594493   -5.409321   -0.043477
     40          6           0       -4.566309   -3.325825    0.466473
     41          6           0       -3.842538   -3.783591    1.679647
     42          8           0       -4.060131   -3.375926    2.808712
     43          8           0       -3.195390   -4.961981    1.580576
     44          6           0       -2.763007   -5.655277    2.649482
     45          6           0        2.707014   -1.050520   -1.158624
     46          6           0        4.049477   -0.768967   -0.497057
     47          6           0        4.979111   -0.040975   -1.192500
     48          6           0        4.869600    0.704468   -2.469524
     49          6           0        6.244453    0.062279   -0.403356
     50          6           0        7.467514   -0.649640   -1.027486
     51          6           0        8.720119   -0.269919   -0.219870
     52          6           0       10.018649   -0.799859   -0.773491
     53          6           0       10.194162   -2.393109   -0.824373
     54          6           0       11.155957   -0.275546    0.025421
     55          6           0       12.664298   -0.668708   -0.522040
     56          6           0       13.803917    0.065666    0.200710
     57          6           0       15.203404   -0.137652   -0.353280
     58          6           0       15.571002   -1.656734   -0.511111
     59          6           0       16.248396    0.580851    0.512092
     60          6           0       17.608545    0.684804   -0.167757
     61          6           0       18.532574    1.678768    0.581567
     62          6           0       19.944307    1.793960    0.118598
     63          6           0       20.075133    2.319855   -1.290535
     64          6           0       20.885954    2.584094    1.132646
     65          1           0       -3.861422    3.392188    1.711235
     66          1           0       -9.997208    4.047562   -0.236695
     67          1           0      -10.773588   -2.086722   -1.316721
     68          1           0       -2.909510   -1.347890    2.124400
     69          1           0       -2.206650    1.416043    1.462477
     70          1           0       -2.284440    0.305709    3.795679
     71          1           0       -3.078857    2.035503    3.671069
     72          1           0       -3.874996    0.413310    4.207888
     73          1           0       -2.496128   -1.812991   -0.318342
     74          1           0       -2.240837   -0.134194   -0.716365
     75          1           0       -0.496224    0.308489    0.931446
     76          1           0       -0.653123   -1.667205    1.363124
     77          1           0       -4.284491    5.643460    1.020633
     78          1           0       -5.578618    6.751886    1.679446
     79          1           0       -4.907311    5.556230    2.708144
     80          1           0       -7.950411    7.051700    1.170423
     81          1           0       -8.996873    5.997853   -1.490980
     82          1           0       -9.103254    7.732289   -0.638794
     83          1           0      -12.423530    3.768218   -0.254344
     84          1           0      -11.693125    3.524721   -2.071546
     85          1           0      -13.227931    2.808596   -1.409760
     86          1           0      -12.222098   -1.137660   -1.031562
     87          1           0      -13.477711    0.416425   -1.154349
     88          1           0      -12.470192    0.747672   -3.770436
     89          1           0      -11.901382   -1.182869   -3.850007
     90          1           0      -13.596604   -0.670623   -3.663911
     91          1           0       -9.879125   -4.720348   -0.057211
     92          1           0       -9.449069   -4.303117   -2.013451
     93          1           0       -8.188945   -5.383643   -0.960475
     94          1           0       -3.753281   -3.265315   -0.368032
     95          1           0       -2.065678   -6.516159    2.356145
     96          1           0       -2.291581   -5.140087    3.509460
     97          1           0       -3.538340   -6.174847    3.228675
     98          1           0        2.587946   -2.069237   -1.466964
     99          1           0        2.582156   -0.481589   -2.099968
    100          1           0        4.299359   -1.457266    0.284371
    101          1           0        5.482495    1.681301   -2.275253
    102          1           0        5.039738    0.100984   -3.366867
    103          1           0        3.801241    0.865630   -2.772444
    104          1           0        6.464234    1.113878   -0.208359
    105          1           0        5.927097   -0.263953    0.605173
    106          1           0        7.293622   -1.677425   -1.135730
    107          1           0        7.692017   -0.367219   -2.155044
    108          1           0        8.745704    0.769480    0.076104
    109          1           0        8.732185   -0.754241    0.876567
    110          1           0       10.025091   -0.509193   -1.909713
    111          1           0        9.476076   -2.892840   -1.481125
    112          1           0       11.126231   -2.727310   -1.315384
    113          1           0       10.056026   -2.923272    0.027719
    114          1           0       11.103340    0.959519   -0.081218
    115          1           0       10.975606   -0.380471    1.088103
    116          1           0       12.751638   -1.752909   -0.447218
    117          1           0       12.650965   -0.466465   -1.672125
    118          1           0       13.624817    1.090843    0.327405
    119          1           0       13.659890   -0.043985    1.234206
    120          1           0       15.217262    0.306438   -1.360234
    121          1           0       14.938764   -1.995019   -1.320449
    122          1           0       16.501707   -1.785150   -1.136363
    123          1           0       15.374597   -2.088770    0.546854
    124          1           0       15.865513    1.543507    1.095312
    125          1           0       16.323585   -0.099723    1.556872
    126          1           0       18.238716   -0.207780   -0.162439
    127          1           0       17.702663    1.029023   -1.137792
    128          1           0       18.102755    2.613396    0.478520
    129          1           0       18.494122    1.303471    1.680387
    130          1           0       20.359609    0.841531    0.137722
    131          1           0       19.584144    3.284837   -1.343240
    132          1           0       21.199624    2.378005   -1.595966
    133          1           0       19.712075    1.487484   -2.184590
    134          1           0       20.786881    2.168399    2.231561
    135          1           0       21.951529    2.574750    0.832386
    136          1           0       20.577653    3.738915    0.992255
    137          1           0       -6.980536    1.795946    0.191869
    138          1           0       -7.623492   -0.176430   -0.177473
 ---------------------------------------------------------------------

 SCF Done:  E(RB3LYP) =  -2733.11155157     A.U. after   16 cycles

 Excitation energies and oscillator strengths:

 Excited State   1:      Singlet-A      2.0602 eV  601.80 nm  f=0.2045  <S**2>=0.000
     235 -> 237       -0.14606
     235 -> 238        0.27587
     236 -> 237        0.62940
 This state for optimization and/or second-order correction.
 Total Energy, E(TD-HF/TD-KS) =  -2733.03583986
 Copying the excited state density for this state as the 1-particle RhoCI density.

 The electronic state is 1-A.
 Alpha  occ. eigenvalues --  -19.17099 -19.16414 -19.13168 -19.12302 -19.11079
 Alpha  occ. eigenvalues --  -14.37641 -14.37235 -14.31204 -14.30400 -10.31377
 Alpha  occ. eigenvalues --  -10.31026 -10.27736 -10.24154 -10.24069 -10.23792
 Alpha  occ. eigenvalues --  -10.23715 -10.23348 -10.22888 -10.22164 -10.22050
 Alpha  occ. eigenvalues --  -10.22009 -10.21994 -10.21804 -10.21709 -10.21680
 Alpha  occ. eigenvalues --  -10.21590 -10.21391 -10.20978 -10.20960 -10.20444
 Alpha  occ. eigenvalues --  -10.20393 -10.20311 -10.20272 -10.19983 -10.19976
 Alpha  occ. eigenvalues --  -10.19783 -10.19746 -10.19734 -10.19708 -10.19685
 Alpha  occ. eigenvalues --  -10.19621 -10.19450 -10.19408 -10.19400 -10.19311
 Alpha  occ. eigenvalues --  -10.19264 -10.19264 -10.19132 -10.19099 -10.19047
 Alpha  occ. eigenvalues --  -10.18971 -10.18916 -10.18745 -10.18708 -10.18691
 Alpha  occ. eigenvalues --  -10.18584 -10.18575 -10.18351 -10.17969 -10.17546
 Alpha  occ. eigenvalues --  -10.17123 -10.17114 -10.17014 -10.16687  -1.10458
 Alpha  occ. eigenvalues --   -1.09720  -1.07475  -1.00808  -0.99590  -0.99290
 Alpha  occ. eigenvalues --   -0.98656  -0.95348  -0.93399  -0.83856  -0.82908
 Alpha  occ. eigenvalues --   -0.82567  -0.81741  -0.80974  -0.80857  -0.80284
 Alpha  occ. eigenvalues --   -0.79833  -0.79805  -0.79441  -0.78516  -0.77193
 Alpha  occ. eigenvalues --   -0.76390  -0.76009  -0.75220  -0.74610  -0.74245
 Alpha  occ. eigenvalues --   -0.73270  -0.72681  -0.72320  -0.71195  -0.71012
 Alpha  occ. eigenvalues --   -0.69688  -0.69041  -0.68937  -0.68214  -0.67762
 Alpha  occ. eigenvalues --   -0.67419  -0.66313  -0.66182  -0.65913  -0.64817
 Alpha  occ. eigenvalues --   -0.63569  -0.63010  -0.62668  -0.61581  -0.61127
 Alpha  occ. eigenvalues --   -0.60647  -0.59364  -0.58681  -0.57744  -0.57583
 Alpha  occ. eigenvalues --   -0.57213  -0.56525  -0.55816  -0.55697  -0.55415
 Alpha  occ. eigenvalues --   -0.54924  -0.54823  -0.54748  -0.53952  -0.52996
 Alpha  occ. eigenvalues --   -0.52828  -0.52106  -0.51759  -0.51053  -0.50169
 Alpha  occ. eigenvalues --   -0.49369  -0.49092  -0.49008  -0.48243  -0.47636
 Alpha  occ. eigenvalues --   -0.47404  -0.47269  -0.47200  -0.47003  -0.46966
 Alpha  occ. eigenvalues --   -0.46417  -0.46008  -0.45955  -0.45860  -0.45596
 Alpha  occ. eigenvalues --   -0.45346  -0.45146  -0.44951  -0.44892  -0.44426
 Alpha  occ. eigenvalues --   -0.44374  -0.44275  -0.44080  -0.43767  -0.43556
 Alpha  occ. eigenvalues --   -0.43248  -0.43007  -0.42969  -0.42855  -0.42602
 Alpha  occ. eigenvalues --   -0.42398  -0.42292  -0.42066  -0.41920  -0.41518
 Alpha  occ. eigenvalues --   -0.41161  -0.41013  -0.40918  -0.40862  -0.40654
 Alpha  occ. eigenvalues --   -0.40427  -0.40031  -0.39973  -0.39767  -0.39485
 Alpha  occ. eigenvalues --   -0.39278  -0.38663  -0.38515  -0.38389  -0.38241
 Alpha  occ. eigenvalues --   -0.38142  -0.38059  -0.37870  -0.37739  -0.37652
 Alpha  occ. eigenvalues --   -0.37509  -0.37163  -0.37040  -0.36679  -0.36490
 Alpha  occ. eigenvalues --   -0.36397  -0.36057  -0.35956  -0.35874  -0.35376
 Alpha  occ. eigenvalues --   -0.35318  -0.35010  -0.34812  -0.34651  -0.34383
 Alpha  occ. eigenvalues --   -0.34313  -0.34220  -0.34009  -0.33720  -0.33592
 Alpha  occ. eigenvalues --   -0.33551  -0.32869  -0.32695  -0.32257  -0.32223
 Alpha  occ. eigenvalues --   -0.31706  -0.31633  -0.31513  -0.31322  -0.31224
 Alpha  occ. eigenvalues --   -0.30684  -0.30531  -0.30102  -0.29780  -0.29438
 Alpha  occ. eigenvalues --   -0.29355  -0.28806  -0.28775  -0.27716  -0.27583
 Alpha  occ. eigenvalues --   -0.26953  -0.26880  -0.26364  -0.26156  -0.25569
 Alpha  occ. eigenvalues --   -0.25348  -0.25233  -0.24626  -0.23177  -0.19385
 Alpha  occ. eigenvalues --   -0.18868
 Alpha virt. eigenvalues --   -0.10426  -0.06744  -0.03596  -0.01081  -0.00791
 Alpha virt. eigenvalues --   -0.00353  -0.00081   0.01361   0.02655   0.03349
 Alpha virt. eigenvalues --    0.03673   0.04012   0.04213   0.04314   0.04987

 Mulliken charges:
               1
     1  C    0.051498
     2  C   -0.039589
     3  C   -0.019774
     4  C   -0.135184
     5  N   -0.193605
     6  C   -0.096178
     7  C   -0.064348
     8  C   -0.089656
     9  C    0.036354
    10  C    0.065683
    11  C    0.067517
    12  C   -0.016148
    13  C    0.211432
    14  O   -0.236068
    15  O   -0.341474
    16  N    0.000353
    17  C    0.031409
    18  C   -0.189111
    19  C    0.040012
    20  C    0.105620
    21  C    0.162697
    22  C   -0.028842
    23  C   -0.047130
    24  N   -0.178242
    25  C   -0.046250
    26  C   -0.119450
    27  C   -0.082514
    28  C    0.063563
    29  C    0.056867
    30  C   -0.059926
    31  C   -0.043986
    32  N   -0.003754
    33  C    0.057436
    34  C   -0.142348
    35  C   -0.075011
    36  C    0.054178
    37  C    0.014374
    38  C    0.070690
    39  O   -0.032700
    40  C   -0.108018
    41  C    0.184215
    42  O   -0.247526
    43  O   -0.246557
    44  C    0.169382
    45  C    0.274749
    46  C   -0.060751
    47  C   -0.177971
    48  C    0.092395
    49  C    0.076065
    50  C    0.069348
    51  C    0.009907
    52  C   -0.056223
    53  C    0.052168
    54  C   -0.023480
    55  C    0.021699
    56  C    0.110399
    57  C   -0.059283
    58  C    0.043500
    59  C   -0.025756
    60  C    0.099970
    61  C    0.011820
    62  C   -0.032196
    63  C   -0.044208
    64  C   -0.030324
    65  H   -0.061070
    66  H   -0.070458
    67  H    0.026260
    68  H    0.030235
    69  H   -0.001687
    70  H    0.000087
    71  H    0.025135
    72  H    0.039477
    73  H    0.002406
    74  H   -0.002520
    75  H    0.060807
    76  H    0.065277
    77  H    0.036019
    78  H   -0.006071
    79  H    0.023236
    80  H    0.001561
    81  H    0.032109
    82  H    0.031162
    83  H    0.044729
    84  H    0.051707
    85  H    0.000141
    86  H    0.036355
    87  H    0.040558
    88  H    0.038092
    89  H    0.049390
    90  H    0.020831
    91  H    0.072796
    92  H    0.057542
    93  H    0.054884
    94  H    0.073630
    95  H    0.026829
    96  H    0.011522
    97  H    0.002346
    98  H    0.008627
    99  H   -0.007328
   100  H   -0.000329
   101  H    0.046827
   102  H    0.028151
   103  H    0.011600
   104  H   -0.008887
   105  H   -0.005981
   106  H   -0.018878
   107  H    0.004458
   108  H   -0.012535
   109  H   -0.009089
   110  H   -0.002334
   111  H   -0.017572
   112  H    0.010192
   113  H   -0.021495
   114  H   -0.004122
   115  H   -0.007393
   116  H    0.013807
   117  H    0.003191
   118  H   -0.050129
   119  H   -0.049980
   120  H   -0.014608
   121  H   -0.008232
   122  H    0.006417
   123  H    0.038694
   124  H    0.011869
   125  H   -0.005828
   126  H   -0.010925
   127  H   -0.035173
   128  H   -0.033235
   129  H   -0.003826
   130  H   -0.034936
   131  H    0.015660
   132  H    0.019589
   133  H    0.031490
   134  H    0.033780
   135  H    0.012604
   136  H    0.013234
   137  H    0.166557
   138  H    0.161032
 Sum of Mulliken charges =   0.00000

 Dipole moment (field-independent basis, Debye):
    X=              1.3149    Y=              3.7953    Z=             -1.0274  Tot=              4.1459
 Quadrupole moment (field-independent basis, Debye-Ang):
   XX=           -344.8390   YY=           -380.3504   ZZ=           -393.7973
   XY=            -27.3616   XZ=              7.3188   YZ=              1.0321

 Normal termination of Gaussian 09 at Sun Aug  4 10:23:06 2019.
