 Gaussian 09, Revision D.01,
 Gaussian 09:  ES64L-G09RevD.01 24-Apr-2013

 --------------------------
 # td=(NStates=1) B3LYP/SVP
 --------------------------

 --
 TD
 --
 Symbolic Z-matrix:
 Charge =  0 Multiplicity = 1

                         Standard orientation:
 ---------------------------------------------------------------------
 Center     Atomic      Atomic             Coordinates (Angstroms)
 Number     Number       Type             X           Y           Z
 ---------------------------------------------------------------------
      1          6           0       -5.146601   -1.922647    0.628436
      2          6           0       -4.790552    2.746161    1.286273
      3          6           0       -9.336831    3.263799   -0.232080
      4          6           0       -9.860015   -1.560747   -0.944311
      5          7           0       -5.260929    0.490497    0.886348
      6          6           0       -4.492724   -0.667685    0.872000
      7          6           0       -3.108560   -0.464109    1.236472
      8          6           0       -3.131841    0.904138    1.847582
      9          6           0       -4.487316    1.410373    1.246622
     10          6           0       -3.155602    1.048127    3.376884
     11          6           0       -2.031804   -0.511368    0.065988
     12          6           0       -0.594505   -0.568899    0.548425
     13          6           0        0.380702   -0.991326   -0.571451
     14          8           0        0.025639   -1.450559   -1.608708
     15          8           0        1.631034   -0.717166   -0.243075
     16          7           0       -7.119234    2.683557    0.541709
     17          6           0       -6.007625    3.391281    0.950621
     18          6           0       -6.317233    4.817923    1.010930
     19          6           0       -7.680791    4.930648    0.587505
     20          6           0       -8.106642    3.590774    0.202048
     21          6           0       -5.394801    5.935736    1.593626
     22          6           0       -8.333918    6.232524    0.351576
     23          6           0       -9.196905    6.524941   -0.652080
     24          7           0       -9.220491    0.771448   -0.526012
     25          6           0       -9.836796    1.984323   -0.558713
     26          6           0      -11.265305    1.772686   -1.079573
     27          6           0      -11.404987    0.433006   -1.287068
     28          6           0      -10.094763   -0.250499   -0.923937
     29          6           0      -12.255407    2.941685   -1.175024
     30          6           0      -12.600987   -0.375895   -1.769162
     31          6           0      -12.655801   -0.648372   -3.297651
     32          7           0       -7.608552   -1.344009   -0.046986
     33          6           0       -8.649240   -2.129100   -0.532613
     34          6           0       -8.164460   -3.525209   -0.536831
     35          6           0       -6.812895   -3.423930   -0.100937
     36          6           0       -6.462132   -2.079420    0.110721
     37          6           0       -9.004234   -4.710351   -0.856496
     38          6           0       -5.637784   -4.380816    0.028234
     39          8           0       -5.436076   -5.597072   -0.135991
     40          6           0       -4.542116   -3.337298    0.449205
     41          6           0       -3.865074   -3.705638    1.817857
     42          8           0       -4.175298   -3.278161    2.863841
     43          8           0       -2.877174   -4.721291    1.658805
     44          6           0       -2.234885   -5.096460    2.855573
     45          6           0        2.653268   -0.982548   -1.273682
     46          6           0        3.969240   -0.676415   -0.699867
     47          6           0        5.018415    0.038968   -1.169129
     48          6           0        4.890850    0.885657   -2.378829
     49          6           0        6.298464    0.254692   -0.463956
     50          6           0        7.574126   -0.402272   -1.094050
     51          6           0        8.835779   -0.205759   -0.179108
     52          6           0       10.138399   -0.720290   -0.880562
     53          6           0       10.084155   -2.328910   -1.093692
     54          6           0       11.416146   -0.331819   -0.034007
     55          6           0       12.731747   -0.434150   -0.752688
     56          6           0       13.851809   -0.084797    0.259968
     57          6           0       15.296224   -0.194239   -0.285020
     58          6           0       15.603721   -1.729300   -0.431940
     59          6           0       16.336401    0.576071    0.478916
     60          6           0       17.768162    0.680281   -0.094787
     61          6           0       18.618234    1.546163    0.781500
     62          6           0       20.016947    1.634212    0.123441
     63          6           0       20.235215    2.201565   -1.225641
     64          6           0       20.892032    2.455351    1.087693
     65          1           0       -3.857527    3.330551    1.813614
     66          1           0      -10.162928    4.075164   -0.426905
     67          1           0      -10.726464   -2.216237   -1.184554
     68          1           0       -2.776829   -1.148649    1.927748
     69          1           0       -2.294309    1.494994    1.566755
     70          1           0       -2.137977    0.724550    3.824691
     71          1           0       -3.338968    2.083288    3.843392
     72          1           0       -3.849644    0.259166    3.861242
     73          1           0       -2.244711   -1.335190   -0.806393
     74          1           0       -2.157294    0.451182   -0.513606
     75          1           0       -0.156329    0.401724    0.853964
     76          1           0       -0.497004   -1.199438    1.436359
     77          1           0       -4.567795    6.095480    0.872325
     78          1           0       -5.921473    6.728913    1.505015
     79          1           0       -5.175620    5.726959    2.675006
     80          1           0       -7.994973    6.939127    1.019943
     81          1           0       -9.487035    5.954672   -1.527611
     82          1           0       -9.697587    7.588648   -0.553557
     83          1           0      -12.912780    3.405951   -0.303078
     84          1           0      -11.788066    3.807959   -2.103315
     85          1           0      -13.303937    2.674907   -1.652447
     86          1           0      -12.667680   -1.509977   -1.219102
     87          1           0      -13.538579   -0.030432   -1.347436
     88          1           0      -12.448769    0.385319   -3.682275
     89          1           0      -11.774913   -1.238422   -3.496298
     90          1           0      -13.624550   -1.024162   -3.547639
     91          1           0       -9.544965   -4.949731    0.221292
     92          1           0       -9.888213   -4.566898   -1.777973
     93          1           0       -8.357486   -5.665269   -0.936069
     94          1           0       -3.662230   -3.393694   -0.253665
     95          1           0       -1.412130   -5.723222    2.517813
     96          1           0       -1.774215   -4.182014    3.330608
     97          1           0       -2.904419   -5.748961    3.536979
     98          1           0        2.530995   -1.936053   -1.514935
     99          1           0        2.322035   -0.575950   -2.256333
    100          1           0        4.102367   -1.160293    0.214594
    101          1           0        5.109141    1.833319   -2.239471
    102          1           0        5.570241    0.518275   -3.239851
    103          1           0        3.925658    0.776042   -2.711492
    104          1           0        6.719715    1.421074   -0.218709
    105          1           0        6.107897   -0.233248    0.495686
    106          1           0        7.359536   -1.444601   -1.425760
    107          1           0        8.010116   -0.006232   -1.849310
    108          1           0        8.890378    0.902484    0.068203
    109          1           0        8.759153   -0.701746    0.826720
    110          1           0       10.237111   -0.109970   -1.723924
    111          1           0        9.341601   -2.644638   -1.649764
    112          1           0       10.855556   -2.612985   -1.533235
    113          1           0        9.979080   -2.744244   -0.119668
    114          1           0       11.273929    0.711097    0.223076
    115          1           0       11.228488   -1.051399    0.804402
    116          1           0       12.792876   -1.477230   -1.149158
    117          1           0       12.796352    0.210255   -1.626123
    118          1           0       13.668863    0.905635    0.671807
    119          1           0       13.796017   -0.627112    1.088174
    120          1           0       15.300108    0.120848   -1.221515
    121          1           0       14.810028   -2.006254   -1.102767
    122          1           0       16.617415   -1.855253   -0.943549
    123          1           0       15.414329   -2.317866    0.294922
    124          1           0       15.766000    1.522688    0.561961
    125          1           0       16.495592   -0.099484    1.363596
    126          1           0       18.088380   -0.356916   -0.405702
    127          1           0       17.667820    1.203333   -1.227319
    128          1           0       18.190303    2.569464    0.810301
    129          1           0       18.611045    1.080364    1.829537
    130          1           0       20.248386    0.613609    0.000677
    131          1           0       20.150809    3.370008   -1.145462
    132          1           0       21.197528    2.233415   -1.523589
    133          1           0       19.569915    1.877327   -1.967707
    134          1           0       20.827118    1.961095    2.180056
    135          1           0       22.117584    2.485378    0.772224
    136          1           0       20.393641    3.397831    1.204430
    137          1           0       -7.139473    1.720442    0.155490
    138          1           0       -7.630212   -0.330142    0.150997
 ---------------------------------------------------------------------

 SCF Done:  E(RB3LYP) =  -2733.06590232     A.U. after   17 cycles

 Excitation energies and oscillator strengths:

 Excited State   1:      Singlet-A      2.0940 eV  592.10 nm  f=0.1761  <S**2>=0.000
     235 -> 238        0.31394
     236 -> 237        0.62904
 This state for optimization and/or second-order correction.
 Total Energy, E(TD-HF/TD-KS) =  -2732.98895020
 Copying the excited state density for this state as the 1-particle RhoCI density.

 The electronic state is 1-A.
 Alpha  occ. eigenvalues --  -19.18059 -19.16241 -19.13329 -19.12593 -19.12377
 Alpha  occ. eigenvalues --  -14.37001 -14.36756 -14.32090 -14.30295 -10.31347
 Alpha  occ. eigenvalues --  -10.31320 -10.28570 -10.24570 -10.24492 -10.24035
 Alpha  occ. eigenvalues --  -10.23483 -10.23405 -10.23138 -10.23116 -10.22835
 Alpha  occ. eigenvalues --  -10.22506 -10.22010 -10.21725 -10.21672 -10.21633
 Alpha  occ. eigenvalues --  -10.21530 -10.21258 -10.21112 -10.20946 -10.20853
 Alpha  occ. eigenvalues --  -10.20776 -10.20714 -10.20539 -10.20500 -10.20416
 Alpha  occ. eigenvalues --  -10.20275 -10.20242 -10.19901 -10.19858 -10.19812
 Alpha  occ. eigenvalues --  -10.19730 -10.19726 -10.19724 -10.19452 -10.19426
 Alpha  occ. eigenvalues --  -10.19424 -10.19256 -10.19169 -10.19075 -10.19020
 Alpha  occ. eigenvalues --  -10.18920 -10.18741 -10.18450 -10.18240 -10.18012
 Alpha  occ. eigenvalues --  -10.17930 -10.17924 -10.17694 -10.17271 -10.16854
 Alpha  occ. eigenvalues --  -10.16783 -10.16630 -10.15983 -10.15679  -1.10444
 Alpha  occ. eigenvalues --   -1.08830  -1.01591  -1.01128  -1.00868  -0.98045
 Alpha  occ. eigenvalues --   -0.97443  -0.96765  -0.91814  -0.84251  -0.83336
 Alpha  occ. eigenvalues --   -0.82444  -0.82044  -0.81630  -0.81387  -0.80756
 Alpha  occ. eigenvalues --   -0.80268  -0.79266  -0.78932  -0.78288  -0.78260
 Alpha  occ. eigenvalues --   -0.76866  -0.76409  -0.75504  -0.75137  -0.74162
 Alpha  occ. eigenvalues --   -0.73780  -0.72749  -0.72599  -0.72104  -0.71519
 Alpha  occ. eigenvalues --   -0.69814  -0.69437  -0.68604  -0.68249  -0.68211
 Alpha  occ. eigenvalues --   -0.67831  -0.66757  -0.66359  -0.65711  -0.65475
 Alpha  occ. eigenvalues --   -0.63501  -0.62897  -0.62301  -0.61657  -0.61163
 Alpha  occ. eigenvalues --   -0.60780  -0.59319  -0.58619  -0.58182  -0.58117
 Alpha  occ. eigenvalues --   -0.57421  -0.56541  -0.56373  -0.56032  -0.56025
 Alpha  occ. eigenvalues --   -0.55313  -0.55258  -0.54307  -0.54039  -0.53780
 Alpha  occ. eigenvalues --   -0.52451  -0.52314  -0.51570  -0.50402  -0.50150
 Alpha  occ. eigenvalues --   -0.49768  -0.49272  -0.48967  -0.48746  -0.48058
 Alpha  occ. eigenvalues --   -0.48016  -0.47780  -0.47684  -0.47121  -0.47116
 Alpha  occ. eigenvalues --   -0.46954  -0.46782  -0.46328  -0.46138  -0.45907
 Alpha  occ. eigenvalues --   -0.45709  -0.45504  -0.45326  -0.45054  -0.45012
 Alpha  occ. eigenvalues --   -0.44805  -0.44377  -0.44147  -0.43782  -0.43642
 Alpha  occ. eigenvalues --   -0.43372  -0.43117  -0.42911  -0.42750  -0.42577
 Alpha  occ. eigenvalues --   -0.42423  -0.42194  -0.42068  -0.41835  -0.41697
 Alpha  occ. eigenvalues --   -0.41399  -0.41342  -0.40731  -0.40439  -0.40169
 Alpha  occ. eigenvalues --   -0.40054  -0.39991  -0.39732  -0.39668  -0.39442
 Alpha  occ. eigenvalues --   -0.39292  -0.39093  -0.38940  -0.38820  -0.38620
 Alpha  occ. eigenvalues --   -0.38539  -0.38223  -0.38161  -0.37862  -0.37766
 Alpha  occ. eigenvalues --   -0.37319  -0.37246  -0.37219  -0.37167  -0.37000
 Alpha  occ. eigenvalues --   -0.36736  -0.36600  -0.36539  -0.36234  -0.35975
 Alpha  occ. eigenvalues --   -0.35710  -0.35562  -0.35502  -0.35179  -0.34984
 Alpha  occ. eigenvalues --   -0.34811  -0.34780  -0.34396  -0.34239  -0.33812
 Alpha  occ. eigenvalues --   -0.33697  -0.33102  -0.32904  -0.32861  -0.32620
 Alpha  occ. eigenvalues --   -0.32588  -0.32155  -0.31935  -0.31597  -0.31463
 Alpha  occ. eigenvalues --   -0.31385  -0.31173  -0.30861  -0.30242  -0.29929
 Alpha  occ. eigenvalues --   -0.29677  -0.29274  -0.28533  -0.28420  -0.28329
 Alpha  occ. eigenvalues --   -0.27891  -0.27647  -0.26515  -0.25528  -0.25278
 Alpha  occ. eigenvalues --   -0.25087  -0.24881  -0.24267  -0.23207  -0.19790
 Alpha  occ. eigenvalues --   -0.18936
 Alpha virt. eigenvalues --   -0.10107  -0.07528  -0.04837  -0.02154  -0.01401
 Alpha virt. eigenvalues --   -0.00130   0.00858   0.01111   0.01950   0.02776
 Alpha virt. eigenvalues --    0.03476   0.03790   0.04557   0.04635   0.04876

 Mulliken charges:
               1
     1  C    0.010669
     2  C   -0.105796
     3  C   -0.128098
     4  C   -0.091508
     5  N   -0.111441
     6  C   -0.004274
     7  C    0.059519
     8  C   -0.032193
     9  C   -0.071711
    10  C    0.004839
    11  C   -0.018813
    12  C    0.044898
    13  C    0.140796
    14  O   -0.217831
    15  O   -0.311789
    16  N   -0.075501
    17  C    0.117473
    18  C   -0.191566
    19  C   -0.005124
    20  C    0.129369
    21  C    0.244335
    22  C    0.006348
    23  C   -0.045496
    24  N   -0.266981
    25  C    0.023807
    26  C   -0.065100
    27  C   -0.047011
    28  C    0.087404
    29  C   -0.077608
    30  C   -0.051436
    31  C    0.070469
    32  N   -0.060846
    33  C    0.093860
    34  C   -0.093044
    35  C   -0.104032
    36  C    0.088267
    37  C   -0.032791
    38  C    0.176277
    39  O   -0.185353
    40  C   -0.099301
    41  C    0.191878
    42  O   -0.171309
    43  O   -0.339488
    44  C    0.164792
    45  C    0.336890
    46  C   -0.045571
    47  C   -0.154096
    48  C    0.192541
    49  C    0.051103
    50  C    0.095419
    51  C   -0.025401
    52  C   -0.086220
    53  C    0.216515
    54  C   -0.001132
    55  C    0.060083
    56  C    0.083421
    57  C   -0.003612
    58  C    0.094642
    59  C    0.068960
    60  C   -0.083866
    61  C    0.063408
    62  C   -0.064653
    63  C    0.112944
    64  C   -0.009551
    65  H    0.008758
    66  H    0.023331
    67  H   -0.008620
    68  H   -0.036405
    69  H   -0.025716
    70  H    0.012735
    71  H    0.033943
    72  H    0.036964
    73  H    0.063878
    74  H    0.007227
    75  H    0.027766
    76  H    0.024806
    77  H    0.028135
    78  H   -0.075957
    79  H    0.049246
    80  H   -0.016811
    81  H    0.039000
    82  H    0.037071
    83  H    0.060117
    84  H    0.049005
    85  H    0.011496
    86  H    0.002561
    87  H   -0.001502
    88  H    0.016999
    89  H    0.009559
    90  H    0.021113
    91  H    0.057509
    92  H    0.067964
    93  H    0.057335
    94  H    0.060708
    95  H    0.019856
    96  H    0.024194
    97  H    0.043250
    98  H   -0.029116
    99  H    0.016418
   100  H   -0.035703
   101  H   -0.023252
   102  H    0.017589
   103  H   -0.038606
   104  H    0.028624
   105  H   -0.012036
   106  H    0.005687
   107  H   -0.062420
   108  H   -0.005616
   109  H   -0.010474
   110  H   -0.035268
   111  H   -0.043191
   112  H   -0.067724
   113  H   -0.005621
   114  H   -0.014601
   115  H   -0.000573
   116  H    0.001604
   117  H   -0.010803
   118  H   -0.033270
   119  H   -0.058277
   120  H   -0.074419
   121  H   -0.030602
   122  H    0.015042
   123  H   -0.052836
   124  H   -0.000073
   125  H   -0.008684
   126  H    0.007127
   127  H   -0.001560
   128  H   -0.005351
   129  H    0.011795
   130  H   -0.027767
   131  H   -0.023317
   132  H   -0.030378
   133  H   -0.004918
   134  H    0.008577
   135  H    0.031991
   136  H    0.006236
   137  H    0.166646
   138  H    0.148222
 Sum of Mulliken charges =   0.00000

 Dipole moment (field-independent basis, Debye):
    X=              2.3667    Y=              5.4164    Z=              0.2585  Tot=              5.9166
 Quadrupole moment (field-independent basis, Debye-Ang):
   XX=           -360.3536   YY=           -387.6646   ZZ=           -395.3616
   XY=            -32.6893   XZ=              0.7130   YZ=             -0.8870

 Normal termination of Gaussian 09 at Wed Jul 24 19:35:07 2019.
