 Gaussian 09, Revision D.01,
 Gaussian 09:  ES64L-G09RevD.01 24-Apr-2013

 --------------------------
 # td=(NStates=1) B3LYP/SVP
 --------------------------

 --
 TD
 --
 Symbolic Z-matrix:
 Charge =  0 Multiplicity = 1

                         Standard orientation:
 ---------------------------------------------------------------------
 Center     Atomic      Atomic             Coordinates (Angstroms)
 Number     Number       Type             X           Y           Z
 ---------------------------------------------------------------------
      1          6           0       -5.059801   -2.011723    0.398098
      2          6           0       -4.805856    2.798415    1.323113
      3          6           0       -9.420167    3.309808   -0.208576
      4          6           0       -9.740792   -1.538828   -0.898818
      5          7           0       -5.174296    0.473734    0.680064
      6          6           0       -4.466123   -0.736346    0.714068
      7          6           0       -3.062807   -0.533594    1.161338
      8          6           0       -3.062695    0.940392    1.745746
      9          6           0       -4.412107    1.395245    1.144383
     10          6           0       -3.134436    0.935157    3.300595
     11          6           0       -2.053085   -0.696162    0.008756
     12          6           0       -0.608663   -0.584005    0.447925
     13          6           0        0.348869   -0.865016   -0.657130
     14          8           0        0.087168   -1.219633   -1.783142
     15          8           0        1.642138   -0.666858   -0.243148
     16          7           0       -7.148565    2.731041    0.549399
     17          6           0       -5.981992    3.403797    0.941341
     18          6           0       -6.343388    4.691355    1.115106
     19          6           0       -7.512981    4.961179    0.589705
     20          6           0       -8.139110    3.651610    0.289300
     21          6           0       -5.319905    5.731060    1.533620
     22          6           0       -8.377936    6.204721    0.469306
     23          6           0       -9.347191    6.535523   -0.462178
     24          7           0       -9.245326    0.802365   -0.471111
     25          6           0       -9.906703    1.936422   -0.527457
     26          6           0      -11.297390    1.741346   -0.853352
     27          6           0      -11.352014    0.425590   -1.166313
     28          6           0      -10.101121   -0.116432   -0.855367
     29          6           0      -12.298984    2.776758   -1.105183
     30          6           0      -12.585113   -0.349233   -1.644139
     31          6           0      -12.486911   -0.556898   -3.250567
     32          7           0       -7.471490   -1.265617   -0.192208
     33          6           0       -8.542080   -2.064829   -0.642157
     34          6           0       -8.117837   -3.466128   -0.609589
     35          6           0       -6.781688   -3.433256   -0.224474
     36          6           0       -6.387930   -2.037333   -0.080834
     37          6           0       -9.062812   -4.657383   -0.814423
     38          6           0       -5.690745   -4.327470    0.089422
     39          8           0       -5.600012   -5.537135    0.135647
     40          6           0       -4.473616   -3.333283    0.463905
     41          6           0       -3.912837   -3.931466    1.776719
     42          8           0       -4.119896   -3.421767    2.906571
     43          8           0       -3.030156   -4.833249    1.524891
     44          6           0       -2.495229   -5.583384    2.706028
     45          6           0        2.627767   -0.973755   -1.145600
     46          6           0        4.069820   -0.686759   -0.639276
     47          6           0        5.065718    0.202274   -1.102223
     48          6           0        4.830007    1.053363   -2.355643
     49          6           0        6.261195    0.443640   -0.258920
     50          6           0        7.446513   -0.146872   -1.000470
     51          6           0        8.773027    0.128078   -0.395318
     52          6           0       10.008666   -0.476150   -0.937834
     53          6           0        9.918384   -1.982390   -1.111828
     54          6           0       11.251880   -0.137451   -0.053520
     55          6           0       12.675595   -0.399092   -0.694303
     56          6           0       13.841728    0.048233    0.244111
     57          6           0       15.268682   -0.252689   -0.335301
     58          6           0       15.549829   -1.755210   -0.430773
     59          6           0       16.375895    0.552324    0.395284
     60          6           0       17.722346    0.588694   -0.101061
     61          6           0       18.664159    1.406995    0.776880
     62          6           0       20.213996    1.436372    0.311386
     63          6           0       20.440493    1.738001   -1.262124
     64          6           0       20.966980    2.356975    1.244079
     65          1           0       -3.928062    3.433851    1.681049
     66          1           0      -10.159488    4.196497   -0.480792
     67          1           0      -10.432702   -2.162487   -1.219546
     68          1           0       -2.709800   -1.127007    1.966299
     69          1           0       -2.365929    1.650631    1.246837
     70          1           0       -2.181450    0.463002    3.678118
     71          1           0       -3.209765    2.052868    3.595689
     72          1           0       -4.017296    0.258131    3.759502
     73          1           0       -2.216483   -1.784749   -0.265161
     74          1           0       -2.417418   -0.092327   -0.650501
     75          1           0       -0.338217    0.295720    1.173691
     76          1           0       -0.534722   -1.478192    1.214536
     77          1           0       -4.639030    5.792554    0.605542
     78          1           0       -5.931932    6.573768    1.695656
     79          1           0       -4.808940    5.705668    2.500934
     80          1           0       -8.169220    6.947100    1.394543
     81          1           0       -9.731909    5.823741   -1.155298
     82          1           0       -9.825262    7.502677   -0.308412
     83          1           0      -12.639193    3.400105   -0.094196
     84          1           0      -12.118824    3.644289   -1.698748
     85          1           0      -13.353894    2.371273   -1.558328
     86          1           0      -12.565612   -1.369624   -1.183058
     87          1           0      -13.551150    0.065162   -1.427929
     88          1           0      -12.524025    0.496472   -3.640690
     89          1           0      -11.539347   -1.210192   -3.507406
     90          1           0      -13.375638   -1.068685   -3.698440
     91          1           0      -10.114178   -4.300712   -0.594877
     92          1           0       -9.183309   -4.767993   -1.909378
     93          1           0       -8.434530   -5.602278   -0.332764
     94          1           0       -3.655257   -3.587788   -0.330844
     95          1           0       -1.665065   -6.312737    2.344069
     96          1           0       -1.997212   -4.895190    3.486159
     97          1           0       -3.315593   -5.841962    3.219429
     98          1           0        2.361014   -2.101796   -1.478866
     99          1           0        2.426018   -0.411107   -2.055544
    100          1           0        4.180533   -1.021218    0.295498
    101          1           0        5.009967    2.168309   -1.999631
    102          1           0        5.618168    0.766602   -3.192946
    103          1           0        3.639844    1.057306   -2.620963
    104          1           0        6.406979    1.476671   -0.051220
    105          1           0        6.255592   -0.049483    0.900850
    106          1           0        7.282693   -1.244660   -1.086845
    107          1           0        7.628175    0.170415   -2.094966
    108          1           0        8.918740    1.218282   -0.361127
    109          1           0        8.551716   -0.116288    0.747846
    110          1           0       10.252018   -0.110816   -1.963196
    111          1           0        8.992419   -2.169808   -1.802233
    112          1           0       11.076770   -2.269698   -1.487405
    113          1           0        9.445141   -2.649708   -0.282800
    114          1           0       11.455299    0.901479    0.172812
    115          1           0       11.373431   -0.657579    1.049785
    116          1           0       12.950109   -1.409934   -0.752868
    117          1           0       12.829906   -0.097986   -1.647502
    118          1           0       13.883706    1.114429    0.381440
    119          1           0       13.900362   -0.550476    1.204429
    120          1           0       15.341794    0.104506   -1.407706
    121          1           0       14.909091   -2.278349   -1.064737
    122          1           0       16.561078   -2.143815   -1.003578
    123          1           0       15.682020   -2.160389    0.559108
    124          1           0       15.927694    1.573538    0.653191
    125          1           0       16.325639    0.142193    1.362361
    126          1           0       18.273917   -0.399102   -0.117174
    127          1           0       17.685049    1.033522   -1.123566
    128          1           0       18.281475    2.424677    0.657893
    129          1           0       18.517085    0.985421    1.692509
    130          1           0       20.618495    0.379993    0.255377
    131          1           0       20.111792    2.877497   -1.415238
    132          1           0       21.558359    1.534615   -1.412787
    133          1           0       19.808646    1.190579   -1.962016
    134          1           0       21.035158    2.206682    2.455578
    135          1           0       22.095476    2.184368    1.015786
    136          1           0       20.756399    3.508769    1.029591
    137          1           0       -7.050897    1.698193    0.058205
    138          1           0       -7.659662   -0.270079   -0.095361
 ---------------------------------------------------------------------

 SCF Done:  E(RB3LYP) =  -2733.09820530     A.U. after   17 cycles

 Excitation energies and oscillator strengths:

 Excited State   1:      Singlet-A      2.0710 eV  598.68 nm  f=0.1044  <S**2>=0.000
     235 -> 237       -0.18168
     235 -> 238       -0.28917
     236 -> 237        0.56310
     236 -> 238       -0.24936
 This state for optimization and/or second-order correction.
 Total Energy, E(TD-HF/TD-KS) =  -2733.02209925
 Copying the excited state density for this state as the 1-particle RhoCI density.

 The electronic state is 1-A.
 Alpha  occ. eigenvalues --  -19.19213 -19.17397 -19.13145 -19.12751 -19.11359
 Alpha  occ. eigenvalues --  -14.37390 -14.36452 -14.32778 -14.29377 -10.32048
 Alpha  occ. eigenvalues --  -10.31762 -10.28156 -10.25989 -10.24840 -10.24285
 Alpha  occ. eigenvalues --  -10.23779 -10.23530 -10.23072 -10.22901 -10.22692
 Alpha  occ. eigenvalues --  -10.22599 -10.22250 -10.22230 -10.22009 -10.21726
 Alpha  occ. eigenvalues --  -10.21672 -10.21402 -10.21038 -10.21002 -10.20982
 Alpha  occ. eigenvalues --  -10.20827 -10.20606 -10.20582 -10.20578 -10.20521
 Alpha  occ. eigenvalues --  -10.20304 -10.20287 -10.20280 -10.20247 -10.20055
 Alpha  occ. eigenvalues --  -10.19737 -10.19715 -10.19668 -10.19604 -10.19477
 Alpha  occ. eigenvalues --  -10.19415 -10.19374 -10.19345 -10.19312 -10.19267
 Alpha  occ. eigenvalues --  -10.19173 -10.19103 -10.18933 -10.18888 -10.18661
 Alpha  occ. eigenvalues --  -10.18518 -10.18412 -10.17941 -10.17506 -10.17404
 Alpha  occ. eigenvalues --  -10.17318 -10.17242 -10.17150 -10.17115  -1.10533
 Alpha  occ. eigenvalues --   -1.10230  -1.03097  -1.01511  -0.98773  -0.98124
 Alpha  occ. eigenvalues --   -0.97611  -0.96037  -0.95454  -0.85462  -0.83075
 Alpha  occ. eigenvalues --   -0.82292  -0.81944  -0.81921  -0.81032  -0.80698
 Alpha  occ. eigenvalues --   -0.79804  -0.79177  -0.79025  -0.78772  -0.77613
 Alpha  occ. eigenvalues --   -0.76611  -0.76192  -0.75376  -0.74946  -0.74041
 Alpha  occ. eigenvalues --   -0.73881  -0.72893  -0.72232  -0.71783  -0.70370
 Alpha  occ. eigenvalues --   -0.69941  -0.69471  -0.68558  -0.67351  -0.67293
 Alpha  occ. eigenvalues --   -0.67130  -0.66270  -0.65883  -0.65688  -0.65509
 Alpha  occ. eigenvalues --   -0.64235  -0.63076  -0.62666  -0.61777  -0.61104
 Alpha  occ. eigenvalues --   -0.60867  -0.58920  -0.58710  -0.58487  -0.57592
 Alpha  occ. eigenvalues --   -0.57316  -0.56723  -0.56211  -0.55471  -0.55273
 Alpha  occ. eigenvalues --   -0.54862  -0.54452  -0.54085  -0.53796  -0.53411
 Alpha  occ. eigenvalues --   -0.53213  -0.52040  -0.51356  -0.51195  -0.50330
 Alpha  occ. eigenvalues --   -0.50110  -0.49660  -0.49299  -0.48831  -0.48797
 Alpha  occ. eigenvalues --   -0.48218  -0.47863  -0.47562  -0.47350  -0.47293
 Alpha  occ. eigenvalues --   -0.46901  -0.46812  -0.46643  -0.46199  -0.45801
 Alpha  occ. eigenvalues --   -0.45523  -0.45405  -0.45124  -0.44922  -0.44692
 Alpha  occ. eigenvalues --   -0.44366  -0.44035  -0.43864  -0.43684  -0.43483
 Alpha  occ. eigenvalues --   -0.43262  -0.43190  -0.42907  -0.42613  -0.42488
 Alpha  occ. eigenvalues --   -0.42389  -0.42242  -0.41975  -0.41637  -0.41527
 Alpha  occ. eigenvalues --   -0.41175  -0.40986  -0.40958  -0.40408  -0.40249
 Alpha  occ. eigenvalues --   -0.39873  -0.39625  -0.39565  -0.39401  -0.39381
 Alpha  occ. eigenvalues --   -0.39328  -0.38963  -0.38722  -0.38455  -0.38309
 Alpha  occ. eigenvalues --   -0.38084  -0.37724  -0.37708  -0.37546  -0.37489
 Alpha  occ. eigenvalues --   -0.37394  -0.37228  -0.36820  -0.36733  -0.36649
 Alpha  occ. eigenvalues --   -0.36327  -0.36243  -0.36002  -0.35854  -0.35671
 Alpha  occ. eigenvalues --   -0.35436  -0.35309  -0.35246  -0.34976  -0.34792
 Alpha  occ. eigenvalues --   -0.34624  -0.34601  -0.34464  -0.34239  -0.34147
 Alpha  occ. eigenvalues --   -0.34025  -0.33481  -0.33131  -0.33035  -0.32575
 Alpha  occ. eigenvalues --   -0.31969  -0.31688  -0.31354  -0.31289  -0.30616
 Alpha  occ. eigenvalues --   -0.30454  -0.30404  -0.30290  -0.30111  -0.29842
 Alpha  occ. eigenvalues --   -0.29767  -0.29609  -0.28944  -0.28822  -0.28561
 Alpha  occ. eigenvalues --   -0.27511  -0.27135  -0.26996  -0.26681  -0.25662
 Alpha  occ. eigenvalues --   -0.25077  -0.24863  -0.24161  -0.22673  -0.20333
 Alpha  occ. eigenvalues --   -0.18518
 Alpha virt. eigenvalues --   -0.09615  -0.08665  -0.04935  -0.02081  -0.01447
 Alpha virt. eigenvalues --   -0.00984  -0.00246   0.00315   0.02288   0.03592
 Alpha virt. eigenvalues --    0.03781   0.03929   0.04422   0.04480   0.04695

 Mulliken charges:
               1
     1  C    0.012362
     2  C   -0.093543
     3  C   -0.115261
     4  C   -0.028562
     5  N   -0.133729
     6  C   -0.022739
     7  C   -0.012579
     8  C   -0.079572
     9  C   -0.071758
    10  C    0.026056
    11  C    0.142103
    12  C   -0.025712
    13  C    0.204139
    14  O   -0.219520
    15  O   -0.297923
    16  N   -0.158163
    17  C    0.150485
    18  C   -0.166894
    19  C    0.041388
    20  C    0.072751
    21  C    0.118627
    22  C   -0.087072
    23  C   -0.002008
    24  N   -0.154570
    25  C    0.011002
    26  C   -0.087320
    27  C   -0.070408
    28  C    0.019016
    29  C    0.002320
    30  C    0.062736
    31  C   -0.051224
    32  N   -0.020118
    33  C    0.103826
    34  C   -0.146031
    35  C   -0.036724
    36  C    0.117773
    37  C    0.086260
    38  C    0.051107
    39  O   -0.167859
    40  C   -0.103231
    41  C    0.193463
    42  O   -0.284399
    43  O   -0.266669
    44  C    0.208952
    45  C    0.222349
    46  C   -0.021345
    47  C   -0.136836
    48  C   -0.015784
    49  C    0.086141
    50  C   -0.038110
    51  C    0.033468
    52  C    0.016043
    53  C   -0.063070
    54  C    0.016668
    55  C    0.074506
    56  C    0.010351
    57  C   -0.099925
    58  C    0.024222
    59  C    0.049626
    60  C    0.049402
    61  C    0.065554
    62  C   -0.096775
    63  C   -0.042603
    64  C   -0.033778
    65  H   -0.002427
    66  H    0.011891
    67  H   -0.113312
    68  H   -0.026926
    69  H    0.005742
    70  H    0.024493
    71  H    0.028900
    72  H    0.066757
    73  H    0.020536
    74  H   -0.047741
    75  H    0.054795
    76  H    0.045048
    77  H    0.052977
    78  H   -0.019809
    79  H    0.020873
    80  H    0.039418
    81  H    0.027128
    82  H    0.032624
    83  H    0.018725
    84  H    0.011986
    85  H    0.026190
    86  H    0.002149
    87  H   -0.002157
    88  H    0.025117
    89  H    0.035908
    90  H    0.015007
    91  H    0.030451
    92  H    0.025020
    93  H    0.091926
    94  H    0.082867
    95  H    0.071775
    96  H    0.036540
    97  H    0.010886
    98  H    0.021355
    99  H   -0.012746
   100  H   -0.051147
   101  H    0.031792
   102  H    0.061340
   103  H    0.051787
   104  H   -0.008617
   105  H    0.027324
   106  H    0.002832
   107  H    0.004267
   108  H   -0.017214
   109  H   -0.010765
   110  H   -0.004552
   111  H    0.015072
   112  H    0.047466
   113  H    0.018789
   114  H   -0.012004
   115  H    0.012050
   116  H   -0.027377
   117  H   -0.041260
   118  H   -0.008203
   119  H    0.006203
   120  H   -0.021061
   121  H    0.000017
   122  H    0.005102
   123  H   -0.000755
   124  H   -0.018688
   125  H   -0.049474
   126  H   -0.002543
   127  H   -0.008272
   128  H   -0.011990
   129  H   -0.025826
   130  H    0.002870
   131  H    0.016382
   132  H    0.032292
   133  H    0.029712
   134  H    0.036581
   135  H    0.007477
   136  H    0.030744
   137  H    0.217655
   138  H    0.129148
 Sum of Mulliken charges =   0.00000

 Dipole moment (field-independent basis, Debye):
    X=              2.6882    Y=              3.2558    Z=              0.6360  Tot=              4.2698
 Quadrupole moment (field-independent basis, Debye-Ang):
   XX=           -367.6475   YY=           -379.4295   ZZ=           -398.9728
   XY=            -19.3480   XZ=             12.2899   YZ=             -1.9743

 Normal termination of Gaussian 09 at Tue Jul 30 00:57:25 2019.
