 Gaussian 09, Revision D.01,
 Gaussian 09:  ES64L-G09RevD.01 24-Apr-2013

 --------------------------
 # td=(NStates=1) B3LYP/SVP
 --------------------------

 --
 TD
 --
 Symbolic Z-matrix:
 Charge =  0 Multiplicity = 1

                         Standard orientation:
 ---------------------------------------------------------------------
 Center     Atomic      Atomic             Coordinates (Angstroms)
 Number     Number       Type             X           Y           Z
 ---------------------------------------------------------------------
      1          6           0       -5.156372   -2.009589    0.434767
      2          6           0       -4.767340    2.689029    1.384081
      3          6           0       -9.399881    3.386305   -0.264060
      4          6           0       -9.931986   -1.428365   -0.927463
      5          7           0       -5.218338    0.366515    0.884101
      6          6           0       -4.528340   -0.813636    0.829969
      7          6           0       -3.110162   -0.561774    1.280019
      8          6           0       -3.076272    0.828178    1.975901
      9          6           0       -4.439344    1.371297    1.343240
     10          6           0       -3.065916    0.790901    3.473675
     11          6           0       -2.097004   -0.753378    0.098139
     12          6           0       -0.615343   -0.713154    0.596438
     13          6           0        0.355643   -1.107880   -0.546757
     14          8           0        0.053331   -1.653512   -1.575553
     15          8           0        1.688255   -0.741931   -0.253272
     16          7           0       -7.110510    2.744077    0.604600
     17          6           0       -5.914164    3.314143    1.075561
     18          6           0       -6.138801    4.771380    1.091860
     19          6           0       -7.463185    4.976930    0.540983
     20          6           0       -8.008411    3.646863    0.262453
     21          6           0       -5.177715    5.731155    1.520618
     22          6           0       -8.100124    6.295126    0.372911
     23          6           0       -8.838339    6.787704   -0.695315
     24          7           0       -9.272757    0.940625   -0.524168
     25          6           0       -9.856218    2.104767   -0.552548
     26          6           0      -11.285188    1.999475   -0.886257
     27          6           0      -11.491962    0.599967   -1.081049
     28          6           0      -10.193868   -0.023356   -0.889451
     29          6           0      -12.206839    3.033730   -1.021166
     30          6           0      -12.649464   -0.069660   -1.616072
     31          6           0      -12.704410   -0.352825   -3.155938
     32          7           0       -7.590977   -1.254353   -0.245062
     33          6           0       -8.601041   -2.047886   -0.709857
     34          6           0       -8.160408   -3.343388   -0.774937
     35          6           0       -6.846596   -3.405019   -0.298654
     36          6           0       -6.501463   -2.082713   -0.061242
     37          6           0       -9.053080   -4.482463   -1.124139
     38          6           0       -5.816090   -4.238195   -0.013318
     39          8           0       -5.789738   -5.470281   -0.032704
     40          6           0       -4.587138   -3.379319    0.327844
     41          6           0       -3.965084   -3.928547    1.693211
     42          8           0       -4.272666   -3.396660    2.831396
     43          8           0       -3.176291   -4.858643    1.500179
     44          6           0       -2.741932   -5.521131    2.757167
     45          6           0        2.659609   -1.124842   -1.201593
     46          6           0        4.002025   -0.647866   -0.629537
     47          6           0        4.998602   -0.046503   -1.251813
     48          6           0        4.961812    0.484426   -2.677647
     49          6           0        6.350992    0.198981   -0.537843
     50          6           0        7.598725   -0.488405   -1.152033
     51          6           0        8.820686   -0.202164   -0.247879
     52          6           0       10.142680   -0.797718   -0.751133
     53          6           0       10.163034   -2.287435   -0.651365
     54          6           0       11.339254   -0.225745    0.083433
     55          6           0       12.748356   -0.489315   -0.500978
     56          6           0       13.951439    0.190344    0.204429
     57          6           0       15.232861    0.002947   -0.444747
     58          6           0       15.634303   -1.467949   -0.628637
     59          6           0       16.311575    0.653551    0.530783
     60          6           0       17.755111    0.726466   -0.088543
     61          6           0       18.741360    1.566977    0.789931
     62          6           0       20.121934    1.559518    0.104577
     63          6           0       20.123106    2.207788   -1.298925
     64          6           0       21.021677    2.297280    1.147066
     65          1           0       -3.921595    3.416222    1.670224
     66          1           0      -10.021728    4.458124   -0.680961
     67          1           0      -10.961664   -2.138149   -1.025426
     68          1           0       -3.119963   -1.396925    2.125871
     69          1           0       -2.195637    1.398678    1.354256
     70          1           0       -2.148163    0.373231    3.832306
     71          1           0       -3.149637    1.780700    3.769963
     72          1           0       -3.944215    0.221740    4.094503
     73          1           0       -2.268954   -1.803640   -0.147679
     74          1           0       -2.301958   -0.008708   -0.675603
     75          1           0       -0.351665    0.192422    1.096087
     76          1           0       -0.504807   -1.396727    1.548729
     77          1           0       -4.212451    5.803473    1.107005
     78          1           0       -5.492411    6.780476    1.239310
     79          1           0       -4.874493    5.763280    2.625791
     80          1           0       -7.691261    6.979911    1.203930
     81          1           0       -9.045591    6.191502   -1.466625
     82          1           0       -9.375143    7.685211   -0.706816
     83          1           0      -12.332384    3.603721   -0.138340
     84          1           0      -12.109713    3.794297   -1.955159
     85          1           0      -13.215771    2.660747   -1.365202
     86          1           0      -12.659241   -1.001959   -0.933507
     87          1           0      -13.511772    0.545909   -1.299805
     88          1           0      -12.595878    0.648325   -3.739923
     89          1           0      -11.711624   -0.910087   -3.305472
     90          1           0      -13.560420   -1.112288   -3.150745
     91          1           0       -9.996937   -4.622180   -0.633625
     92          1           0       -9.293867   -4.379365   -2.237346
     93          1           0       -8.385758   -5.499271   -1.144677
     94          1           0       -3.813189   -3.353320   -0.328366
     95          1           0       -2.192070   -6.313156    2.403500
     96          1           0       -2.108977   -4.766854    3.489687
     97          1           0       -3.582933   -5.796139    3.411409
     98          1           0        2.851699   -2.154168   -1.244005
     99          1           0        2.531900   -0.731018   -2.095414
    100          1           0        4.161432   -0.977700    0.448249
    101          1           0        5.572955    1.440430   -2.605368
    102          1           0        5.423526   -0.223418   -3.513643
    103          1           0        3.784800    0.611097   -2.823560
    104          1           0        6.672661    1.269035   -0.365162
    105          1           0        6.323918    0.058915    0.440123
    106          1           0        7.573322   -1.758815   -1.261206
    107          1           0        7.566491   -0.267038   -2.230277
    108          1           0        8.777052    0.924992   -0.192022
    109          1           0        8.631776   -0.487771    0.710200
    110          1           0       10.271419   -0.494751   -1.827204
    111          1           0        9.381111   -3.004135   -1.210217
    112          1           0       11.117616   -2.730685   -0.906777
    113          1           0        9.875503   -2.781710    0.240458
    114          1           0       11.248455    0.827226    0.307994
    115          1           0       11.391779   -0.774100    1.181366
    116          1           0       12.998617   -1.541421   -0.554853
    117          1           0       12.633446   -0.029118   -1.537180
    118          1           0       13.764126    1.345513    0.207727
    119          1           0       13.882291   -0.268221    1.333249
    120          1           0       15.326813    0.473486   -1.663919
    121          1           0       14.912798   -1.996306   -1.105223
    122          1           0       16.463297   -1.448368   -1.245512
    123          1           0       15.852338   -2.114464    0.361887
    124          1           0       16.124350    1.696605    0.771236
    125          1           0       16.419445    0.058443    1.444931
    126          1           0       18.085777   -0.303693   -0.313708
    127          1           0       17.569979    1.112749   -1.140535
    128          1           0       18.482359    2.622310    0.952443
    129          1           0       18.686840    1.133657    1.934357
    130          1           0       20.550897    0.532794   -0.237772
    131          1           0       19.564063    3.271014   -1.317621
    132          1           0       21.156259    2.297683   -1.660829
    133          1           0       19.652776    1.561034   -1.967086
    134          1           0       20.973459    1.924244    2.112345
    135          1           0       22.011189    2.695894    0.696167
    136          1           0       20.524987    3.198255    1.373341
    137          1           0       -7.377552    1.730741    0.621440
    138          1           0       -7.710976   -0.158293   -0.381333
 ---------------------------------------------------------------------

 SCF Done:  E(RB3LYP) =  -2733.08148031     A.U. after   16 cycles

 Excitation energies and oscillator strengths:

 Excited State   1:      Singlet-A      2.0159 eV  615.04 nm  f=0.1823  <S**2>=0.000
     235 -> 237        0.11686
     235 -> 238       -0.29194
     236 -> 237        0.62610
 This state for optimization and/or second-order correction.
 Total Energy, E(TD-HF/TD-KS) =  -2733.00739897
 Copying the excited state density for this state as the 1-particle RhoCI density.

 The electronic state is 1-A.
 Alpha  occ. eigenvalues --  -19.21067 -19.17261 -19.13679 -19.11129 -19.10796
 Alpha  occ. eigenvalues --  -14.37754 -14.36631 -14.32012 -14.30094 -10.32451
 Alpha  occ. eigenvalues --  -10.31955 -10.26529 -10.26258 -10.24669 -10.23947
 Alpha  occ. eigenvalues --  -10.23211 -10.23089 -10.22876 -10.22598 -10.22530
 Alpha  occ. eigenvalues --  -10.22397 -10.21894 -10.21884 -10.21807 -10.21632
 Alpha  occ. eigenvalues --  -10.21407 -10.21305 -10.21221 -10.21204 -10.20823
 Alpha  occ. eigenvalues --  -10.20556 -10.20464 -10.20402 -10.20378 -10.20219
 Alpha  occ. eigenvalues --  -10.20154 -10.20107 -10.19932 -10.19781 -10.19742
 Alpha  occ. eigenvalues --  -10.19665 -10.19616 -10.19609 -10.19528 -10.19406
 Alpha  occ. eigenvalues --  -10.19366 -10.19185 -10.19118 -10.19084 -10.19072
 Alpha  occ. eigenvalues --  -10.19030 -10.18418 -10.18166 -10.18155 -10.18137
 Alpha  occ. eigenvalues --  -10.18132 -10.18062 -10.18008 -10.17942 -10.17827
 Alpha  occ. eigenvalues --  -10.17809 -10.17550 -10.17135 -10.16920  -1.13769
 Alpha  occ. eigenvalues --   -1.08621  -1.01245  -1.01046  -0.98672  -0.98160
 Alpha  occ. eigenvalues --   -0.96752  -0.94316  -0.93649  -0.85981  -0.82216
 Alpha  occ. eigenvalues --   -0.82070  -0.81623  -0.81050  -0.80647  -0.80280
 Alpha  occ. eigenvalues --   -0.80142  -0.79751  -0.79726  -0.78739  -0.77317
 Alpha  occ. eigenvalues --   -0.76674  -0.76435  -0.75872  -0.74669  -0.74401
 Alpha  occ. eigenvalues --   -0.73420  -0.73192  -0.72499  -0.71569  -0.71332
 Alpha  occ. eigenvalues --   -0.69994  -0.69438  -0.68489  -0.68427  -0.67637
 Alpha  occ. eigenvalues --   -0.67559  -0.67543  -0.66315  -0.65837  -0.65226
 Alpha  occ. eigenvalues --   -0.63572  -0.63296  -0.62831  -0.62079  -0.61612
 Alpha  occ. eigenvalues --   -0.61234  -0.58577  -0.58336  -0.58019  -0.57534
 Alpha  occ. eigenvalues --   -0.57120  -0.57012  -0.56401  -0.55776  -0.55696
 Alpha  occ. eigenvalues --   -0.54942  -0.53935  -0.53821  -0.53065  -0.52902
 Alpha  occ. eigenvalues --   -0.52727  -0.52191  -0.51655  -0.51039  -0.50630
 Alpha  occ. eigenvalues --   -0.50048  -0.50006  -0.49510  -0.48511  -0.48227
 Alpha  occ. eigenvalues --   -0.48035  -0.47881  -0.47032  -0.46957  -0.46711
 Alpha  occ. eigenvalues --   -0.46511  -0.46339  -0.46045  -0.45920  -0.45797
 Alpha  occ. eigenvalues --   -0.45574  -0.45326  -0.44913  -0.44838  -0.44636
 Alpha  occ. eigenvalues --   -0.44444  -0.44251  -0.44200  -0.44093  -0.43767
 Alpha  occ. eigenvalues --   -0.43635  -0.43358  -0.43035  -0.42985  -0.42595
 Alpha  occ. eigenvalues --   -0.42456  -0.42092  -0.41889  -0.41592  -0.41278
 Alpha  occ. eigenvalues --   -0.40978  -0.40931  -0.40878  -0.40652  -0.40525
 Alpha  occ. eigenvalues --   -0.40392  -0.39921  -0.39680  -0.39446  -0.39327
 Alpha  occ. eigenvalues --   -0.39242  -0.38703  -0.38427  -0.38403  -0.38264
 Alpha  occ. eigenvalues --   -0.37999  -0.37783  -0.37625  -0.37559  -0.37298
 Alpha  occ. eigenvalues --   -0.37206  -0.37006  -0.36853  -0.36820  -0.36610
 Alpha  occ. eigenvalues --   -0.36450  -0.36365  -0.36340  -0.35934  -0.35802
 Alpha  occ. eigenvalues --   -0.35779  -0.35696  -0.35463  -0.35358  -0.35032
 Alpha  occ. eigenvalues --   -0.35006  -0.34698  -0.34690  -0.33767  -0.33193
 Alpha  occ. eigenvalues --   -0.33057  -0.32855  -0.32830  -0.32200  -0.31874
 Alpha  occ. eigenvalues --   -0.31768  -0.31647  -0.31496  -0.31382  -0.31307
 Alpha  occ. eigenvalues --   -0.31009  -0.30952  -0.30561  -0.30305  -0.29953
 Alpha  occ. eigenvalues --   -0.29910  -0.29021  -0.28732  -0.27988  -0.27902
 Alpha  occ. eigenvalues --   -0.27184  -0.26446  -0.26389  -0.25669  -0.25507
 Alpha  occ. eigenvalues --   -0.24860  -0.24433  -0.23620  -0.21962  -0.19390
 Alpha  occ. eigenvalues --   -0.19245
 Alpha virt. eigenvalues --   -0.10841  -0.07595  -0.04647  -0.02718  -0.00988
 Alpha virt. eigenvalues --   -0.00442   0.00296   0.01221   0.02228   0.03579
 Alpha virt. eigenvalues --    0.03668   0.03887   0.04381   0.04644   0.04916

 Mulliken charges:
               1
     1  C   -0.033762
     2  C   -0.060454
     3  C   -0.180800
     4  C   -0.108782
     5  N   -0.161869
     6  C   -0.062655
     7  C   -0.117679
     8  C   -0.086290
     9  C   -0.055213
    10  C    0.119555
    11  C    0.111375
    12  C    0.004018
    13  C    0.216928
    14  O   -0.210457
    15  O   -0.351202
    16  N   -0.042611
    17  C    0.131878
    18  C   -0.067145
    19  C   -0.017995
    20  C    0.025338
    21  C    0.054396
    22  C   -0.079397
    23  C    0.034593
    24  N   -0.223507
    25  C    0.100188
    26  C   -0.116438
    27  C   -0.090769
    28  C    0.046873
    29  C    0.055970
    30  C   -0.008892
    31  C    0.017696
    32  N   -0.084358
    33  C    0.049856
    34  C   -0.139785
    35  C    0.114989
    36  C    0.088397
    37  C    0.045660
    38  C   -0.020375
    39  O   -0.204160
    40  C    0.054864
    41  C    0.162910
    42  O   -0.330661
    43  O   -0.188691
    44  C    0.172437
    45  C    0.417355
    46  C   -0.161030
    47  C   -0.098455
    48  C   -0.006687
    49  C    0.127825
    50  C   -0.049484
    51  C    0.067619
    52  C    0.016726
    53  C    0.014997
    54  C    0.005631
    55  C    0.008995
    56  C    0.019077
    57  C   -0.145400
    58  C    0.084685
    59  C    0.053659
    60  C   -0.010939
    61  C   -0.004772
    62  C   -0.129770
    63  C    0.021602
    64  C    0.134227
    65  H   -0.003201
    66  H    0.064134
    67  H    0.045629
    68  H    0.044072
    69  H    0.021861
    70  H    0.007502
    71  H   -0.015711
    72  H    0.054846
    73  H    0.015200
    74  H    0.022916
    75  H    0.008485
    76  H    0.042688
    77  H    0.006141
    78  H    0.011040
    79  H    0.031458
    80  H    0.027314
    81  H   -0.005433
    82  H    0.016503
    83  H    0.020640
    84  H    0.025069
    85  H   -0.001260
    86  H    0.010104
    87  H   -0.002944
    88  H    0.042938
    89  H    0.018028
    90  H    0.042144
    91  H    0.031064
    92  H    0.019372
    93  H    0.051750
    94  H    0.017056
    95  H    0.028372
    96  H    0.062953
    97  H    0.059491
    98  H    0.005536
    99  H   -0.052320
   100  H    0.000033
   101  H    0.035070
   102  H    0.058540
   103  H    0.040649
   104  H   -0.015273
   105  H   -0.078519
   106  H    0.001088
   107  H   -0.002365
   108  H   -0.012626
   109  H   -0.030597
   110  H   -0.002338
   111  H    0.004320
   112  H   -0.001353
   113  H   -0.017282
   114  H   -0.012592
   115  H   -0.004581
   116  H    0.008823
   117  H   -0.009366
   118  H    0.004848
   119  H    0.014487
   120  H    0.017169
   121  H   -0.026250
   122  H   -0.014354
   123  H    0.015282
   124  H   -0.012814
   125  H   -0.004359
   126  H   -0.002832
   127  H   -0.001730
   128  H    0.002251
   129  H    0.014193
   130  H    0.006186
   131  H    0.014257
   132  H    0.008071
   133  H   -0.000460
   134  H   -0.023258
   135  H    0.008720
   136  H   -0.042301
   137  H    0.163581
   138  H    0.194415
 Sum of Mulliken charges =   0.00000

 Dipole moment (field-independent basis, Debye):
    X=              2.4577    Y=              4.0245    Z=              1.1108  Tot=              4.8446
 Quadrupole moment (field-independent basis, Debye-Ang):
   XX=           -375.7335   YY=           -380.2700   ZZ=           -392.8516
   XY=            -30.4484   XZ=              7.6763   YZ=             -4.9825

 Normal termination of Gaussian 09 at Mon Jul 29 21:29:23 2019.
