 Gaussian 09, Revision D.01,
 Gaussian 09:  ES64L-G09RevD.01 24-Apr-2013

 --------------------------
 # td=(NStates=1) B3LYP/SVP
 --------------------------

 --
 TD
 --
 Symbolic Z-matrix:
 Charge =  0 Multiplicity = 1

                         Standard orientation:
 ---------------------------------------------------------------------
 Center     Atomic      Atomic             Coordinates (Angstroms)
 Number     Number       Type             X           Y           Z
 ---------------------------------------------------------------------
      1          6           0       -5.118197   -1.948580    0.392695
      2          6           0       -4.740010    2.776865    1.311432
      3          6           0       -9.282950    3.305152   -0.146939
      4          6           0       -9.762867   -1.498579   -1.027673
      5          7           0       -5.133721    0.454298    0.666680
      6          6           0       -4.473734   -0.713495    0.819798
      7          6           0       -3.070570   -0.612996    1.215037
      8          6           0       -3.076937    0.837891    1.755158
      9          6           0       -4.341369    1.367201    1.303416
     10          6           0       -3.152858    0.868718    3.364598
     11          6           0       -2.090768   -0.670311   -0.061021
     12          6           0       -0.684214   -0.903214    0.476124
     13          6           0        0.383918   -1.043383   -0.707801
     14          8           0        0.096852   -1.251565   -1.892892
     15          8           0        1.645174   -0.821704   -0.219207
     16          7           0       -6.990376    2.788448    0.464246
     17          6           0       -5.920060    3.291010    1.020166
     18          6           0       -6.253925    4.771587    1.097636
     19          6           0       -7.468594    5.063055    0.468404
     20          6           0       -8.032891    3.688748    0.262406
     21          6           0       -5.221318    5.837960    1.551405
     22          6           0       -8.239416    6.360905    0.371068
     23          6           0       -9.204322    6.629070   -0.471222
     24          7           0       -9.127105    0.877213   -0.566650
     25          6           0       -9.847999    2.058515   -0.491758
     26          6           0      -11.243505    1.853312   -0.934625
     27          6           0      -11.341410    0.521372   -1.115089
     28          6           0      -10.028836   -0.107903   -0.886117
     29          6           0      -12.220029    2.973034   -0.908202
     30          6           0      -12.669573   -0.260678   -1.601209
     31          6           0      -12.653834   -0.288324   -3.105985
     32          7           0       -7.400715   -1.250902   -0.333056
     33          6           0       -8.548773   -1.999906   -0.690308
     34          6           0       -8.216437   -3.401125   -0.576066
     35          6           0       -6.788745   -3.395558   -0.213138
     36          6           0       -6.362853   -2.026707   -0.086839
     37          6           0       -9.002658   -4.579266   -0.888754
     38          6           0       -5.761978   -4.287272    0.133214
     39          8           0       -5.695089   -5.507717    0.131806
     40          6           0       -4.518938   -3.384988    0.472439
     41          6           0       -3.933377   -3.768662    1.784996
     42          8           0       -4.131402   -3.339506    2.904875
     43          8           0       -2.953335   -4.767970    1.536936
     44          6           0       -2.746733   -5.628604    2.675749
     45          6           0        2.664932   -1.175773   -1.224179
     46          6           0        3.973733   -0.793965   -0.626149
     47          6           0        5.032011   -0.014998   -1.091508
     48          6           0        4.944650    0.593713   -2.442605
     49          6           0        6.247283    0.201069   -0.327594
     50          6           0        7.434975   -0.451064   -1.006999
     51          6           0        8.717899   -0.225668   -0.220155
     52          6           0       10.108668   -0.811055   -0.771930
     53          6           0       10.070694   -2.350463   -0.890733
     54          6           0       11.354641   -0.336938    0.047906
     55          6           0       12.630921   -0.521774   -0.627245
     56          6           0       13.749373   -0.019473    0.231649
     57          6           0       15.217404   -0.118823   -0.416381
     58          6           0       15.507794   -1.677134   -0.710542
     59          6           0       16.238279    0.634051    0.422737
     60          6           0       17.686518    0.836583   -0.159356
     61          6           0       18.599976    1.556569    0.818097
     62          6           0       20.072695    1.680297    0.255702
     63          6           0       20.143836    2.361231   -1.211157
     64          6           0       21.012986    2.351744    1.259650
     65          1           0       -3.991628    3.516019    1.847625
     66          1           0       -9.903501    4.149558   -0.186324
     67          1           0      -10.775836   -2.104498   -1.183356
     68          1           0       -2.939120   -1.401967    2.100960
     69          1           0       -2.193465    1.413483    1.480359
     70          1           0       -2.280718    0.446283    3.622842
     71          1           0       -2.963837    1.966849    3.660929
     72          1           0       -4.010042    0.342066    3.795011
     73          1           0       -2.307844   -1.679809   -0.622466
     74          1           0       -2.316398    0.051985   -0.578199
     75          1           0       -0.432765    0.044833    1.069136
     76          1           0       -0.530798   -1.786561    1.168175
     77          1           0       -4.161271    5.434650    1.217125
     78          1           0       -5.650221    6.824161    1.260548
     79          1           0       -5.083182    5.771180    2.580288
     80          1           0       -7.796414    7.143133    1.276568
     81          1           0       -9.743723    6.120052   -1.305885
     82          1           0       -9.393217    7.710556   -0.535651
     83          1           0      -12.497818    3.572182    0.010225
     84          1           0      -11.979129    3.859080   -1.673306
     85          1           0      -13.095911    2.642329   -1.415536
     86          1           0      -12.864965   -1.259190   -1.042150
     87          1           0      -13.391173    0.522297   -1.403364
     88          1           0      -12.812855    0.571681   -3.744554
     89          1           0      -11.737722   -0.644417   -3.620682
     90          1           0      -13.500094   -0.866162   -3.373712
     91          1           0       -9.777135   -4.740676   -0.184940
     92          1           0       -9.604478   -4.533616   -1.669801
     93          1           0       -8.482033   -5.518018   -0.936601
     94          1           0       -3.507731   -3.524557   -0.059279
     95          1           0       -1.920401   -6.503539    2.270499
     96          1           0       -2.123080   -5.156437    3.294578
     97          1           0       -3.647293   -5.985823    3.265582
     98          1           0        2.545262   -2.283599   -1.414329
     99          1           0        2.530793   -0.603351   -2.105605
    100          1           0        4.024619   -1.203197    0.390053
    101          1           0        5.376090    1.679598   -2.587931
    102          1           0        5.638323    0.109776   -3.216241
    103          1           0        3.859527    0.613952   -2.943531
    104          1           0        6.417813    1.298611   -0.204340
    105          1           0        6.053669   -0.322650    0.712327
    106          1           0        7.138612   -1.507481   -1.135402
    107          1           0        7.616831   -0.076792   -2.050625
    108          1           0        8.810256    0.873213   -0.406590
    109          1           0        8.704517   -0.240117    0.899632
    110          1           0       10.007165   -0.220924   -1.875127
    111          1           0        9.434801   -2.912179   -1.544557
    112          1           0       11.178008   -2.587361   -1.312907
    113          1           0        9.791050   -2.763363    0.194667
    114          1           0       11.121988    0.735782    0.135764
    115          1           0       11.091596   -0.694536    0.996298
    116          1           0       12.942631   -1.505839   -0.613648
    117          1           0       12.553554    0.043517   -1.522212
    118          1           0       13.690471    1.114275    0.310643
    119          1           0       13.647521   -0.317666    1.385469
    120          1           0       15.204233    0.401847   -1.429244
    121          1           0       15.098212   -1.897702   -1.745354
    122          1           0       16.707895   -1.502882   -0.901918
    123          1           0       15.073805   -2.322628    0.137502
    124          1           0       15.738150    1.706349    0.623743
    125          1           0       16.408568    0.191705    1.444324
    126          1           0       18.204357   -0.085237   -0.255681
    127          1           0       17.701397    1.218521   -1.130497
    128          1           0       18.328506    2.553408    1.040756
    129          1           0       18.520730    1.113288    1.853255
    130          1           0       20.592664    0.781522    0.044827
    131          1           0       19.827407    3.433625   -1.019764
    132          1           0       21.168183    2.529951   -1.414097
    133          1           0       19.450001    1.947301   -1.867999
    134          1           0       21.063835    1.696231    2.111058
    135          1           0       22.116679    2.368880    0.839690
    136          1           0       20.845292    3.541944    1.202787
    137          1           0       -7.123773    1.893895   -0.003782
    138          1           0       -7.454678   -0.190313   -0.549961
 ---------------------------------------------------------------------

 SCF Done:  E(RB3LYP) =  -2733.07646148     A.U. after   17 cycles

 Excitation energies and oscillator strengths:

 Excited State   1:      Singlet-A      2.0607 eV  601.66 nm  f=0.1530  <S**2>=0.000
     235 -> 238        0.32289
     236 -> 237        0.62189
 This state for optimization and/or second-order correction.
 Total Energy, E(TD-HF/TD-KS) =  -2733.00073221
 Copying the excited state density for this state as the 1-particle RhoCI density.

 The electronic state is 1-A.
 Alpha  occ. eigenvalues --  -19.18173 -19.16601 -19.13127 -19.13106 -19.10921
 Alpha  occ. eigenvalues --  -14.36704 -14.36582 -14.32527 -14.30024 -10.32215
 Alpha  occ. eigenvalues --  -10.31599 -10.26740 -10.24723 -10.24234 -10.23717
 Alpha  occ. eigenvalues --  -10.23587 -10.23402 -10.23127 -10.23073 -10.22900
 Alpha  occ. eigenvalues --  -10.22574 -10.21963 -10.21880 -10.21278 -10.21201
 Alpha  occ. eigenvalues --  -10.21185 -10.21159 -10.21003 -10.20929 -10.20929
 Alpha  occ. eigenvalues --  -10.20865 -10.20813 -10.20687 -10.20669 -10.20407
 Alpha  occ. eigenvalues --  -10.20344 -10.20296 -10.19994 -10.19860 -10.19856
 Alpha  occ. eigenvalues --  -10.19845 -10.19747 -10.19738 -10.19655 -10.19374
 Alpha  occ. eigenvalues --  -10.19347 -10.19330 -10.19212 -10.19168 -10.19056
 Alpha  occ. eigenvalues --  -10.18881 -10.18810 -10.18743 -10.18720 -10.18588
 Alpha  occ. eigenvalues --  -10.18439 -10.18272 -10.18120 -10.17664 -10.17599
 Alpha  occ. eigenvalues --  -10.17528 -10.17514 -10.17463 -10.17161  -1.08169
 Alpha  occ. eigenvalues --   -1.07379  -1.01209  -0.99805  -0.99687  -0.98925
 Alpha  occ. eigenvalues --   -0.97874  -0.95638  -0.92351  -0.84894  -0.83251
 Alpha  occ. eigenvalues --   -0.82195  -0.81696  -0.81313  -0.80945  -0.80562
 Alpha  occ. eigenvalues --   -0.80307  -0.78993  -0.78856  -0.78692  -0.77683
 Alpha  occ. eigenvalues --   -0.77127  -0.76346  -0.75797  -0.75281  -0.74677
 Alpha  occ. eigenvalues --   -0.73838  -0.73403  -0.72803  -0.71791  -0.71024
 Alpha  occ. eigenvalues --   -0.70197  -0.68942  -0.68369  -0.67587  -0.67469
 Alpha  occ. eigenvalues --   -0.67377  -0.66369  -0.65965  -0.65820  -0.65146
 Alpha  occ. eigenvalues --   -0.64872  -0.63031  -0.62697  -0.61718  -0.61524
 Alpha  occ. eigenvalues --   -0.61493  -0.59213  -0.58718  -0.58122  -0.57625
 Alpha  occ. eigenvalues --   -0.57552  -0.56395  -0.55680  -0.55576  -0.55170
 Alpha  occ. eigenvalues --   -0.54488  -0.54450  -0.53616  -0.53529  -0.53022
 Alpha  occ. eigenvalues --   -0.52560  -0.52022  -0.51219  -0.50775  -0.49909
 Alpha  occ. eigenvalues --   -0.49833  -0.49425  -0.48797  -0.48774  -0.48157
 Alpha  occ. eigenvalues --   -0.47816  -0.47714  -0.47233  -0.47026  -0.46987
 Alpha  occ. eigenvalues --   -0.46678  -0.46497  -0.46142  -0.45879  -0.45686
 Alpha  occ. eigenvalues --   -0.45403  -0.45332  -0.45065  -0.44914  -0.44562
 Alpha  occ. eigenvalues --   -0.44428  -0.44130  -0.44053  -0.43870  -0.43559
 Alpha  occ. eigenvalues --   -0.43401  -0.43202  -0.42913  -0.42496  -0.42410
 Alpha  occ. eigenvalues --   -0.42202  -0.42109  -0.41918  -0.41836  -0.41752
 Alpha  occ. eigenvalues --   -0.41412  -0.41056  -0.40709  -0.40529  -0.40441
 Alpha  occ. eigenvalues --   -0.40159  -0.39919  -0.39864  -0.39630  -0.39479
 Alpha  occ. eigenvalues --   -0.39284  -0.39145  -0.38821  -0.38694  -0.38412
 Alpha  occ. eigenvalues --   -0.38290  -0.38125  -0.38020  -0.37999  -0.37636
 Alpha  occ. eigenvalues --   -0.37565  -0.37241  -0.37077  -0.36958  -0.36632
 Alpha  occ. eigenvalues --   -0.36563  -0.36528  -0.36356  -0.36282  -0.35736
 Alpha  occ. eigenvalues --   -0.35586  -0.35333  -0.35144  -0.34938  -0.34857
 Alpha  occ. eigenvalues --   -0.34838  -0.34749  -0.34548  -0.34514  -0.34015
 Alpha  occ. eigenvalues --   -0.33617  -0.32787  -0.32780  -0.32582  -0.32314
 Alpha  occ. eigenvalues --   -0.32083  -0.32025  -0.31687  -0.31682  -0.31398
 Alpha  occ. eigenvalues --   -0.30949  -0.30724  -0.30327  -0.30247  -0.29887
 Alpha  occ. eigenvalues --   -0.29748  -0.29432  -0.28562  -0.28296  -0.27966
 Alpha  occ. eigenvalues --   -0.27706  -0.27620  -0.26349  -0.25858  -0.25150
 Alpha  occ. eigenvalues --   -0.24545  -0.24279  -0.24259  -0.22830  -0.19943
 Alpha  occ. eigenvalues --   -0.18240
 Alpha virt. eigenvalues --   -0.09503  -0.07939  -0.04663  -0.02079  -0.01310
 Alpha virt. eigenvalues --   -0.00961  -0.00599   0.00235   0.02033   0.02884
 Alpha virt. eigenvalues --    0.03468   0.03907   0.04249   0.04291   0.04842

 Mulliken charges:
               1
     1  C   -0.021453
     2  C   -0.165616
     3  C   -0.026062
     4  C   -0.137546
     5  N   -0.162286
     6  C   -0.096214
     7  C   -0.074498
     8  C   -0.086855
     9  C    0.028833
    10  C    0.112861
    11  C    0.185624
    12  C   -0.003120
    13  C    0.206992
    14  O   -0.251999
    15  O   -0.332394
    16  N   -0.018013
    17  C    0.182393
    18  C   -0.203430
    19  C    0.023582
    20  C    0.018015
    21  C    0.112534
    22  C   -0.053474
    23  C   -0.045754
    24  N   -0.279625
    25  C    0.068534
    26  C   -0.085509
    27  C   -0.134703
    28  C    0.022190
    29  C    0.076813
    30  C    0.082715
    31  C    0.022567
    32  N   -0.049592
    33  C    0.155392
    34  C   -0.127055
    35  C   -0.038303
    36  C    0.114125
    37  C    0.241350
    38  C    0.059749
    39  O   -0.185502
    40  C   -0.052095
    41  C    0.190962
    42  O   -0.217831
    43  O   -0.357490
    44  C    0.197864
    45  C    0.320083
    46  C   -0.135335
    47  C   -0.085919
    48  C   -0.036365
    49  C    0.083401
    50  C    0.010681
    51  C    0.011303
    52  C   -0.139939
    53  C   -0.001431
    54  C    0.047718
    55  C    0.227177
    56  C   -0.087106
    57  C   -0.075613
    58  C   -0.036046
    59  C    0.003913
    60  C    0.070110
    61  C    0.061990
    62  C   -0.119767
    63  C    0.048866
    64  C   -0.004611
    65  H   -0.002071
    66  H   -0.065354
    67  H    0.027172
    68  H    0.050152
    69  H    0.000317
    70  H   -0.024908
    71  H    0.015344
    72  H    0.046881
    73  H    0.038638
    74  H   -0.077412
    75  H    0.029785
    76  H    0.054516
    77  H    0.040049
    78  H    0.031600
    79  H   -0.000362
    80  H    0.055423
    81  H    0.052593
    82  H    0.027593
    83  H    0.044651
    84  H    0.006764
    85  H   -0.015276
    86  H    0.037831
    87  H   -0.006301
    88  H   -0.001546
    89  H    0.009143
    90  H   -0.008699
    91  H   -0.012374
    92  H   -0.039732
    93  H    0.027053
    94  H    0.066718
    95  H    0.037205
    96  H   -0.018750
    97  H    0.055128
    98  H    0.036077
    99  H   -0.004109
   100  H   -0.013010
   101  H    0.020976
   102  H    0.035996
   103  H    0.040303
   104  H    0.008615
   105  H    0.015366
   106  H   -0.001242
   107  H    0.004784
   108  H   -0.015204
   109  H   -0.007830
   110  H   -0.005104
   111  H    0.010732
   112  H    0.024275
   113  H    0.019216
   114  H   -0.023728
   115  H   -0.027214
   116  H   -0.025256
   117  H   -0.014145
   118  H   -0.022103
   119  H    0.013972
   120  H   -0.005877
   121  H    0.028853
   122  H    0.026229
   123  H    0.049499
   124  H    0.008386
   125  H   -0.002911
   126  H   -0.009309
   127  H   -0.022364
   128  H   -0.028602
   129  H   -0.009405
   130  H   -0.014329
   131  H   -0.011713
   132  H   -0.003679
   133  H    0.011509
   134  H    0.019700
   135  H    0.001785
   136  H    0.024667
   137  H    0.140660
   138  H    0.183975
 Sum of Mulliken charges =   0.00000

 Dipole moment (field-independent basis, Debye):
    X=              2.2851    Y=              5.1266    Z=              0.3340  Tot=              5.6227
 Quadrupole moment (field-independent basis, Debye-Ang):
   XX=           -337.1121   YY=           -387.4412   ZZ=           -395.1817
   XY=            -25.5147   XZ=              7.7226   YZ=             -2.3238

 Normal termination of Gaussian 09 at Sun Aug  4 13:26:47 2019.
