 Gaussian 09, Revision D.01,
 Gaussian 09:  ES64L-G09RevD.01 24-Apr-2013

 --------------------------
 # td=(NStates=1) B3LYP/SVP
 --------------------------

 --
 TD
 --
 Symbolic Z-matrix:
 Charge =  0 Multiplicity = 1

                         Standard orientation:
 ---------------------------------------------------------------------
 Center     Atomic      Atomic             Coordinates (Angstroms)
 Number     Number       Type             X           Y           Z
 ---------------------------------------------------------------------
      1          6           0       -5.063977   -1.961174    0.402583
      2          6           0       -4.683725    2.720020    1.406053
      3          6           0       -9.287488    3.327620   -0.187525
      4          6           0       -9.752821   -1.389987   -0.990734
      5          7           0       -5.251929    0.411515    0.741393
      6          6           0       -4.531487   -0.755833    0.835834
      7          6           0       -3.036366   -0.565648    1.260237
      8          6           0       -3.072690    0.860884    1.899289
      9          6           0       -4.395342    1.338013    1.305872
     10          6           0       -3.014749    0.902846    3.444051
     11          6           0       -2.148108   -0.669557   -0.003220
     12          6           0       -0.678049   -0.800646    0.405723
     13          6           0        0.263418   -1.005851   -0.708967
     14          8           0        0.001009   -1.284342   -1.806001
     15          8           0        1.632235   -0.760564   -0.293949
     16          7           0       -6.990374    2.792479    0.514310
     17          6           0       -5.878855    3.363073    1.017497
     18          6           0       -6.094848    4.727804    1.063900
     19          6           0       -7.463339    5.003155    0.616935
     20          6           0       -8.038922    3.666665    0.280839
     21          6           0       -5.049474    5.734241    1.584383
     22          6           0       -8.129388    6.290849    0.415328
     23          6           0       -8.918535    6.717806   -0.524845
     24          7           0       -9.191891    0.963080   -0.532901
     25          6           0       -9.813499    2.032040   -0.604047
     26          6           0      -11.197903    1.926305   -0.921850
     27          6           0      -11.388688    0.606966   -1.071982
     28          6           0      -10.094449    0.000984   -0.808774
     29          6           0      -12.216733    3.030459   -1.092667
     30          6           0      -12.631156   -0.135019   -1.527586
     31          6           0      -12.755085   -0.555494   -2.978491
     32          7           0       -7.458022   -1.245304   -0.190998
     33          6           0       -8.550231   -1.993351   -0.721242
     34          6           0       -8.098327   -3.356862   -0.687424
     35          6           0       -6.767833   -3.371803   -0.455660
     36          6           0       -6.402022   -2.068587   -0.016355
     37          6           0       -8.947286   -4.524836   -0.931240
     38          6           0       -5.678407   -4.307793   -0.022894
     39          8           0       -5.713574   -5.554470   -0.176096
     40          6           0       -4.550757   -3.440678    0.378005
     41          6           0       -3.978791   -3.937105    1.766551
     42          8           0       -4.269269   -3.479512    2.850841
     43          8           0       -3.170101   -4.977175    1.479300
     44          6           0       -2.490929   -5.510957    2.559191
     45          6           0        2.607063   -1.043483   -1.089512
     46          6           0        3.879012   -0.618643   -0.625102
     47          6           0        4.949965    0.084250   -1.235669
     48          6           0        4.855594    0.463743   -2.697157
     49          6           0        6.249785    0.394814   -0.513633
     50          6           0        7.454525   -0.431292   -0.940687
     51          6           0        8.745628   -0.050415   -0.193452
     52          6           0       10.026863   -0.769882   -0.642839
     53          6           0        9.965472   -2.374714   -0.484449
     54          6           0       11.274113   -0.187433    0.165586
     55          6           0       12.624605   -0.636241   -0.423607
     56          6           0       13.861653    0.129972    0.301120
     57          6           0       15.245809   -0.211419   -0.290918
     58          6           0       15.634427   -1.745592   -0.064587
     59          6           0       16.206829    0.736756    0.383436
     60          6           0       17.658068    0.622515   -0.085822
     61          6           0       18.559652    1.722620    0.516943
     62          6           0       19.998326    1.644388    0.063204
     63          6           0       20.211389    1.945017   -1.426528
     64          6           0       20.951767    2.557452    0.854098
     65          1           0       -4.016875    3.343967    1.757108
     66          1           0      -10.019308    4.154996   -0.257568
     67          1           0      -10.776222   -1.902322   -1.210164
     68          1           0       -2.846225   -1.331554    1.836149
     69          1           0       -2.275870    1.599928    1.676594
     70          1           0       -2.101329    0.315574    3.805253
     71          1           0       -3.018494    1.937648    3.896624
     72          1           0       -3.768802    0.098498    3.799933
     73          1           0       -2.389202   -1.569598   -0.502107
     74          1           0       -2.408236    0.226242   -0.656658
     75          1           0       -0.398609    0.040528    1.121833
     76          1           0       -0.595139   -1.752155    1.089677
     77          1           0       -3.927822    5.568092    0.889553
     78          1           0       -5.398969    6.927160    1.196623
     79          1           0       -4.800051    5.592581    2.634061
     80          1           0       -7.958386    7.128001    1.084293
     81          1           0       -9.307550    6.052633   -1.496220
     82          1           0       -9.275709    7.707602   -0.293832
     83          1           0      -12.414417    3.606908   -0.017423
     84          1           0      -11.948464    3.902279   -1.718928
     85          1           0      -13.119449    2.565770   -1.422858
     86          1           0      -12.857980   -1.083384   -0.980640
     87          1           0      -13.483902    0.808340   -1.453444
     88          1           0      -12.712277    0.199716   -3.627379
     89          1           0      -12.057446   -1.309548   -3.397379
     90          1           0      -13.859525   -0.960951   -3.182138
     91          1           0       -9.690349   -4.695068   -0.305963
     92          1           0       -9.499290   -4.676193   -1.819748
     93          1           0       -8.251020   -5.338005   -1.181922
     94          1           0       -3.775231   -3.503634   -0.469232
     95          1           0       -1.854519   -6.294218    2.290595
     96          1           0       -2.002319   -4.813519    3.475166
     97          1           0       -3.118353   -6.001439    3.500020
     98          1           0        2.829267   -2.161957   -1.212830
     99          1           0        2.420033   -0.650151   -2.209470
    100          1           0        3.979126   -0.946425    0.365110
    101          1           0        5.180709    1.499913   -2.904485
    102          1           0        5.534118   -0.107688   -3.179807
    103          1           0        4.000264    0.288751   -3.159304
    104          1           0        6.390809    1.677032   -0.637126
    105          1           0        6.068224    0.125697    0.572339
    106          1           0        7.497331   -1.500355   -1.028683
    107          1           0        7.585385   -0.136496   -2.006595
    108          1           0        8.769516    1.097920   -0.348509
    109          1           0        8.633271   -0.243996    0.779166
    110          1           0       10.228707   -0.632143   -1.756347
    111          1           0        8.922955   -2.712139   -0.935193
    112          1           0       10.645917   -2.746687   -0.970872
    113          1           0        9.981587   -2.768157    0.649560
    114          1           0       11.325206    0.894152   -0.122956
    115          1           0       11.214730   -0.516038    1.251638
    116          1           0       12.764483   -1.679284   -0.419157
    117          1           0       12.716979   -0.522688   -1.631549
    118          1           0       13.691520    1.013057    0.191375
    119          1           0       14.010542   -0.099385    1.421655
    120          1           0       15.289823    0.058472   -1.541146
    121          1           0       14.912162   -2.255136   -0.539921
    122          1           0       16.592196   -2.014636   -0.562955
    123          1           0       15.824959   -1.795895    1.242502
    124          1           0       15.902068    1.731019    0.177583
    125          1           0       16.393974    0.586800    1.460675
    126          1           0       18.039822   -0.462570    0.104087
    127          1           0       17.800478    0.794679   -1.207476
    128          1           0       18.212729    2.816324    0.348011
    129          1           0       18.509756    1.607447    1.604693
    130          1           0       20.323882    0.795816    0.257026
    131          1           0       20.040004    3.009414   -1.701063
    132          1           0       21.154528    1.933197   -1.674983
    133          1           0       19.588113    1.228824   -2.083851
    134          1           0       20.681477    2.148319    1.859511
    135          1           0       22.080684    2.168842    0.544606
    136          1           0       20.756529    3.640510    0.747298
    137          1           0       -7.155470    1.810978    0.430957
    138          1           0       -7.550180   -0.309873   -0.131925
 ---------------------------------------------------------------------

 SCF Done:  E(RB3LYP) =  -2732.95765571     A.U. after   17 cycles

 Excitation energies and oscillator strengths:

 Excited State   1:      Singlet-A      2.0822 eV  595.46 nm  f=0.1440  <S**2>=0.000
     235 -> 237        0.11325
     235 -> 238        0.32082
     236 -> 237        0.61219
 This state for optimization and/or second-order correction.
 Total Energy, E(TD-HF/TD-KS) =  -2732.88113778
 Copying the excited state density for this state as the 1-particle RhoCI density.

 The electronic state is 1-A.
 Alpha  occ. eigenvalues --  -19.20957 -19.16536 -19.14966 -19.14850 -19.12454
 Alpha  occ. eigenvalues --  -14.36567 -14.36531 -14.33242 -14.29366 -10.33928
 Alpha  occ. eigenvalues --  -10.32692 -10.28434 -10.26729 -10.23938 -10.23735
 Alpha  occ. eigenvalues --  -10.23710 -10.23694 -10.23599 -10.23551 -10.23479
 Alpha  occ. eigenvalues --  -10.23348 -10.23291 -10.22469 -10.21908 -10.21439
 Alpha  occ. eigenvalues --  -10.21372 -10.21184 -10.21120 -10.21024 -10.20959
 Alpha  occ. eigenvalues --  -10.20798 -10.20675 -10.20659 -10.20493 -10.20472
 Alpha  occ. eigenvalues --  -10.20364 -10.20325 -10.20293 -10.20223 -10.20187
 Alpha  occ. eigenvalues --  -10.20147 -10.19909 -10.19830 -10.19295 -10.19024
 Alpha  occ. eigenvalues --  -10.18797 -10.18769 -10.18576 -10.18451 -10.18292
 Alpha  occ. eigenvalues --  -10.18248 -10.18134 -10.18103 -10.17998 -10.17997
 Alpha  occ. eigenvalues --  -10.17794 -10.17418 -10.17335 -10.17261 -10.17241
 Alpha  occ. eigenvalues --  -10.17125 -10.16457 -10.16419 -10.16338  -1.12233
 Alpha  occ. eigenvalues --   -1.11283  -1.04772  -1.03392  -1.00853  -0.98743
 Alpha  occ. eigenvalues --   -0.98430  -0.97289  -0.94148  -0.85570  -0.82505
 Alpha  occ. eigenvalues --   -0.81873  -0.81846  -0.81397  -0.81319  -0.80987
 Alpha  occ. eigenvalues --   -0.80430  -0.80093  -0.79528  -0.79113  -0.78406
 Alpha  occ. eigenvalues --   -0.77171  -0.76481  -0.76181  -0.75206  -0.74615
 Alpha  occ. eigenvalues --   -0.74323  -0.73557  -0.73110  -0.71653  -0.71231
 Alpha  occ. eigenvalues --   -0.70598  -0.70184  -0.68744  -0.68253  -0.67842
 Alpha  occ. eigenvalues --   -0.67676  -0.67437  -0.66390  -0.66217  -0.65433
 Alpha  occ. eigenvalues --   -0.64544  -0.63033  -0.62791  -0.62115  -0.61786
 Alpha  occ. eigenvalues --   -0.60596  -0.59786  -0.58814  -0.58643  -0.57924
 Alpha  occ. eigenvalues --   -0.57608  -0.57315  -0.56334  -0.56071  -0.55739
 Alpha  occ. eigenvalues --   -0.55264  -0.55065  -0.53910  -0.53698  -0.53592
 Alpha  occ. eigenvalues --   -0.53210  -0.52887  -0.52254  -0.52063  -0.51490
 Alpha  occ. eigenvalues --   -0.50462  -0.50090  -0.49867  -0.49677  -0.49254
 Alpha  occ. eigenvalues --   -0.48635  -0.48405  -0.48130  -0.48034  -0.47661
 Alpha  occ. eigenvalues --   -0.47181  -0.47112  -0.46875  -0.46529  -0.46135
 Alpha  occ. eigenvalues --   -0.45952  -0.45602  -0.45319  -0.45145  -0.44705
 Alpha  occ. eigenvalues --   -0.44423  -0.44349  -0.44149  -0.44024  -0.43774
 Alpha  occ. eigenvalues --   -0.43372  -0.43289  -0.43267  -0.43070  -0.42672
 Alpha  occ. eigenvalues --   -0.42429  -0.42284  -0.42203  -0.41712  -0.41658
 Alpha  occ. eigenvalues --   -0.41441  -0.41398  -0.40835  -0.40774  -0.40570
 Alpha  occ. eigenvalues --   -0.40283  -0.40097  -0.39971  -0.39888  -0.39573
 Alpha  occ. eigenvalues --   -0.39221  -0.39068  -0.38903  -0.38643  -0.38300
 Alpha  occ. eigenvalues --   -0.38049  -0.38030  -0.37916  -0.37787  -0.37696
 Alpha  occ. eigenvalues --   -0.37607  -0.37397  -0.37237  -0.36907  -0.36855
 Alpha  occ. eigenvalues --   -0.36773  -0.36704  -0.36315  -0.36080  -0.35731
 Alpha  occ. eigenvalues --   -0.35598  -0.35527  -0.35417  -0.35385  -0.35091
 Alpha  occ. eigenvalues --   -0.34718  -0.34621  -0.34486  -0.34358  -0.33737
 Alpha  occ. eigenvalues --   -0.33602  -0.33288  -0.32889  -0.32490  -0.32355
 Alpha  occ. eigenvalues --   -0.32199  -0.32075  -0.31899  -0.31893  -0.31521
 Alpha  occ. eigenvalues --   -0.30983  -0.30972  -0.30859  -0.30279  -0.30048
 Alpha  occ. eigenvalues --   -0.29995  -0.29801  -0.29364  -0.29017  -0.28601
 Alpha  occ. eigenvalues --   -0.28550  -0.27991  -0.27234  -0.26845  -0.26502
 Alpha  occ. eigenvalues --   -0.25423  -0.24160  -0.23610  -0.22316  -0.20092
 Alpha  occ. eigenvalues --   -0.19349
 Alpha virt. eigenvalues --   -0.10372  -0.08253  -0.04966  -0.02240  -0.01405
 Alpha virt. eigenvalues --   -0.01255   0.00328   0.00452   0.01350   0.02994
 Alpha virt. eigenvalues --    0.03336   0.03822   0.04262   0.04629   0.04792

 Mulliken charges:
               1
     1  C   -0.024411
     2  C   -0.033139
     3  C   -0.089754
     4  C   -0.069917
     5  N   -0.195278
     6  C   -0.099676
     7  C    0.094539
     8  C   -0.057273
     9  C    0.077649
    10  C    0.024381
    11  C    0.089426
    12  C   -0.019002
    13  C    0.203738
    14  O   -0.143675
    15  O   -0.304803
    16  N   -0.029635
    17  C    0.120777
    18  C   -0.119111
    19  C    0.071834
    20  C    0.086176
    21  C   -0.037654
    22  C   -0.074472
    23  C   -0.062578
    24  N   -0.090016
    25  C   -0.020089
    26  C   -0.149796
    27  C   -0.037330
    28  C   -0.069889
    29  C    0.090107
    30  C   -0.017439
    31  C    0.033903
    32  N    0.011446
    33  C    0.128477
    34  C   -0.116169
    35  C   -0.038664
    36  C    0.086581
    37  C    0.181550
    38  C    0.091239
    39  O   -0.210445
    40  C    0.000207
    41  C    0.218938
    42  O   -0.202372
    43  O   -0.237450
    44  C    0.112768
    45  C    0.244969
    46  C   -0.108426
    47  C   -0.158954
    48  C    0.210710
    49  C    0.024079
    50  C    0.038635
    51  C    0.095525
    52  C   -0.121363
    53  C    0.063402
    54  C    0.059484
    55  C   -0.027215
    56  C    0.189248
    57  C   -0.168664
    58  C    0.044018
    59  C    0.083663
    60  C   -0.033653
    61  C    0.019749
    62  C    0.013103
    63  C    0.092961
    64  C   -0.024180
    65  H   -0.119323
    66  H   -0.022098
    67  H    0.008540
    68  H   -0.095541
    69  H    0.004400
    70  H    0.012968
    71  H    0.041510
    72  H    0.030071
    73  H   -0.007102
    74  H    0.031138
    75  H    0.046208
    76  H    0.050267
    77  H    0.046581
    78  H    0.059383
    79  H    0.052893
    80  H    0.000226
    81  H    0.054860
    82  H    0.018239
    83  H    0.031444
    84  H    0.023236
    85  H   -0.006224
    86  H    0.022558
    87  H    0.025170
    88  H   -0.028998
    89  H    0.013882
    90  H    0.014031
    91  H   -0.016969
    92  H   -0.014893
    93  H    0.023932
    94  H    0.085599
    95  H    0.028505
    96  H    0.041144
    97  H    0.028098
    98  H   -0.001268
    99  H    0.001254
   100  H   -0.044215
   101  H   -0.002684
   102  H   -0.021324
   103  H   -0.049656
   104  H    0.034748
   105  H    0.002845
   106  H   -0.016058
   107  H   -0.019082
   108  H   -0.002946
   109  H   -0.043292
   110  H   -0.006941
   111  H    0.015344
   112  H   -0.055699
   113  H    0.023056
   114  H    0.008112
   115  H    0.019120
   116  H   -0.021558
   117  H   -0.003450
   118  H   -0.104639
   119  H   -0.001957
   120  H    0.005345
   121  H   -0.016759
   122  H    0.019221
   123  H    0.029615
   124  H   -0.019768
   125  H   -0.009385
   126  H    0.007664
   127  H   -0.005863
   128  H   -0.003094
   129  H   -0.026589
   130  H   -0.087886
   131  H   -0.014158
   132  H   -0.057900
   133  H    0.018454
   134  H    0.006179
   135  H    0.027685
   136  H    0.022799
   137  H    0.128980
   138  H    0.071223
 Sum of Mulliken charges =   0.00000

 Dipole moment (field-independent basis, Debye):
    X=              1.0855    Y=              3.1548    Z=              1.3477  Tot=              3.5983
 Quadrupole moment (field-independent basis, Debye-Ang):
   XX=           -369.9680   YY=           -384.5535   ZZ=           -394.8925
   XY=            -30.2045   XZ=              7.5113   YZ=             -0.9155

 Normal termination of Gaussian 09 at Sat Aug  3 23:42:18 2019.
