 Gaussian 09, Revision D.01,
 Gaussian 09:  ES64L-G09RevD.01 24-Apr-2013

 --------------------------
 # td=(NStates=1) B3LYP/SVP
 --------------------------

 --
 TD
 --
 Symbolic Z-matrix:
 Charge =  0 Multiplicity = 1

                         Standard orientation:
 ---------------------------------------------------------------------
 Center     Atomic      Atomic             Coordinates (Angstroms)
 Number     Number       Type             X           Y           Z
 ---------------------------------------------------------------------
      1          6           0       -5.064791   -2.009581    0.381997
      2          6           0       -4.880216    2.751087    1.289961
      3          6           0       -9.483968    3.140041   -0.196618
      4          6           0       -9.832733   -1.666804   -0.950140
      5          7           0       -5.224335    0.440524    0.721173
      6          6           0       -4.532507   -0.705609    0.758580
      7          6           0       -3.072446   -0.485821    1.332879
      8          6           0       -3.175445    0.994629    1.921015
      9          6           0       -4.465262    1.379008    1.242438
     10          6           0       -3.026321    1.173916    3.426259
     11          6           0       -2.088246   -0.756030    0.140269
     12          6           0       -0.635478   -0.505760    0.626349
     13          6           0        0.379225   -0.646186   -0.547881
     14          8           0        0.104770   -0.990667   -1.716279
     15          8           0        1.655916   -0.431966   -0.055469
     16          7           0       -7.133987    2.631750    0.554939
     17          6           0       -6.085488    3.359473    1.036884
     18          6           0       -6.408519    4.747883    1.034772
     19          6           0       -7.645863    4.911138    0.481827
     20          6           0       -8.200468    3.503117    0.204746
     21          6           0       -5.444997    5.848727    1.462909
     22          6           0       -8.403995    6.239300    0.217570
     23          6           0       -9.278374    6.524452   -0.727724
     24          7           0       -9.263994    0.686313   -0.500464
     25          6           0       -9.924330    1.887875   -0.504414
     26          6           0      -11.252099    1.659370   -0.986445
     27          6           0      -11.426195    0.274385   -1.188970
     28          6           0      -10.203717   -0.349050   -0.927115
     29          6           0      -12.429356    2.682135   -1.132712
     30          6           0      -12.604338   -0.392533   -1.684954
     31          6           0      -12.419994   -0.742736   -3.181640
     32          7           0       -7.442452   -1.356361   -0.308107
     33          6           0       -8.562045   -2.148510   -0.722253
     34          6           0       -8.111314   -3.528877   -0.710242
     35          6           0       -6.692219   -3.436970   -0.356987
     36          6           0       -6.386321   -2.090643   -0.018820
     37          6           0       -8.886391   -4.812012   -0.973203
     38          6           0       -5.580349   -4.323240   -0.033173
     39          8           0       -5.445305   -5.499008   -0.018382
     40          6           0       -4.442607   -3.318836    0.368202
     41          6           0       -3.872648   -3.715749    1.795126
     42          8           0       -4.054713   -3.164205    2.866771
     43          8           0       -3.025378   -4.739453    1.628881
     44          6           0       -2.500343   -5.291999    2.868647
     45          6           0        2.657877   -0.636593   -1.031875
     46          6           0        3.996465   -0.329376   -0.419101
     47          6           0        5.073928    0.352465   -0.904176
     48          6           0        4.881391    1.039576   -2.233467
     49          6           0        6.353486    0.593394   -0.051070
     50          6           0        7.494967   -0.217754   -0.794649
     51          6           0        8.825419   -0.149932   -0.069998
     52          6           0       10.077627   -0.690755   -0.755599
     53          6           0        9.889404   -2.253954   -0.983331
     54          6           0       11.294132   -0.269552    0.036633
     55          6           0       12.677182   -0.566500   -0.662972
     56          6           0       13.877564   -0.018754    0.082130
     57          6           0       15.226561   -0.239673   -0.585255
     58          6           0       15.546207   -1.800886   -0.577564
     59          6           0       16.299001    0.575900    0.214182
     60          6           0       17.697049    0.601139   -0.316652
     61          6           0       18.671911    1.418070    0.439985
     62          6           0       20.218066    1.315042    0.214828
     63          6           0       20.424083    1.965685   -1.216275
     64          6           0       21.053647    2.205286    1.207466
     65          1           0       -4.148090    3.481287    1.754764
     66          1           0       -9.998866    3.973212   -0.324075
     67          1           0      -10.566692   -2.375018   -1.304960
     68          1           0       -2.822875   -1.018597    2.256931
     69          1           0       -2.482040    1.623939    1.458424
     70          1           0       -1.981881    0.999411    3.755026
     71          1           0       -3.232135    2.172608    3.668534
     72          1           0       -3.781739    0.459009    3.631978
     73          1           0       -2.151194   -1.696413   -0.112894
     74          1           0       -2.479050   -0.142354   -0.626844
     75          1           0       -0.521573    0.497969    0.913258
     76          1           0       -0.187244   -1.220739    1.536988
     77          1           0       -4.604912    5.935988    0.770947
     78          1           0       -5.898108    6.858398    1.471954
     79          1           0       -5.105334    5.739265    2.470314
     80          1           0       -7.958248    7.049456    0.892891
     81          1           0       -9.647831    5.806802   -1.376612
     82          1           0       -9.742703    7.454290   -0.769520
     83          1           0      -12.418562    3.215341   -0.088821
     84          1           0      -12.218937    3.347441   -1.881133
     85          1           0      -13.242357    2.359101   -1.539769
     86          1           0      -12.838468   -1.296867   -1.067898
     87          1           0      -13.369722    0.233766   -1.551837
     88          1           0      -12.443313    0.164485   -3.793696
     89          1           0      -11.394547   -1.182678   -3.319593
     90          1           0      -13.294087   -1.444678   -3.595652
     91          1           0      -10.070206   -4.708966   -0.927433
     92          1           0       -8.784882   -5.069923   -2.337882
     93          1           0       -8.371358   -5.670333   -0.147711
     94          1           0       -3.543444   -3.482632   -0.304015
     95          1           0       -2.144437   -6.217179    2.518132
     96          1           0       -2.076375   -4.327589    3.471899
     97          1           0       -3.396981   -5.348070    3.549690
     98          1           0        2.726761   -1.503992   -1.454902
     99          1           0        2.468669   -0.022450   -1.899014
    100          1           0        4.008236   -0.503425    0.634610
    101          1           0        5.538493    1.939008   -2.322755
    102          1           0        5.395504    0.442725   -3.172738
    103          1           0        3.865248    1.489443   -2.724777
    104          1           0        6.678733    1.650888   -0.039080
    105          1           0        6.188535    0.179182    0.995546
    106          1           0        7.150567   -1.256080   -1.261395
    107          1           0        7.523589    0.256986   -1.872244
    108          1           0        9.098621    0.840535    0.043432
    109          1           0        8.757292   -0.786893    0.882968
    110          1           0       10.112310   -0.277740   -1.769712
    111          1           0        9.102001   -2.332264   -1.597557
    112          1           0       10.591651   -2.860337   -1.409941
    113          1           0        9.479876   -2.787169   -0.131024
    114          1           0       11.354837    0.689808    0.364637
    115          1           0       11.345192   -0.873099    1.062342
    116          1           0       12.690888   -1.797112   -0.919957
    117          1           0       12.482422   -0.050954   -1.731044
    118          1           0       13.678019    1.022718    0.293979
    119          1           0       13.945037   -0.407728    1.164877
    120          1           0       15.230094    0.153107   -1.537021
    121          1           0       14.870482   -2.377678   -0.972128
    122          1           0       16.501034   -1.857379   -1.073699
    123          1           0       15.421123   -2.210713    0.491290
    124          1           0       15.833544    1.775685    0.290124
    125          1           0       16.378024    0.117693    1.225309
    126          1           0       18.293840   -0.337620   -0.292981
    127          1           0       17.862616    0.854083   -1.399763
    128          1           0       18.400104    2.522810    0.346903
    129          1           0       18.662102    1.108397    1.603960
    130          1           0       20.412535   -0.038418    0.252154
    131          1           0       20.415729    3.086690   -1.201387
    132          1           0       21.532782    1.732471   -1.333058
    133          1           0       19.978013    1.534844   -2.170227
    134          1           0       21.069816    1.663537    2.249317
    135          1           0       22.195428    2.105570    0.848270
    136          1           0       20.712122    3.256855    1.049173
    137          1           0       -7.318697    1.566057    0.494763
    138          1           0       -7.718773   -0.345482   -0.017825
 ---------------------------------------------------------------------

 SCF Done:  E(RB3LYP) =  -2733.04043519     A.U. after   18 cycles

 Excitation energies and oscillator strengths:

 Excited State   1:      Singlet-A      2.1008 eV  590.19 nm  f=0.1117  <S**2>=0.000
     235 -> 238       -0.35443
     236 -> 237        0.59336
 This state for optimization and/or second-order correction.
 Total Energy, E(TD-HF/TD-KS) =  -2732.96323351
 Copying the excited state density for this state as the 1-particle RhoCI density.

 The electronic state is 1-A.
 Alpha  occ. eigenvalues --  -19.18454 -19.17568 -19.13293 -19.12754 -19.11727
 Alpha  occ. eigenvalues --  -14.37058 -14.36460 -14.32636 -14.29521 -10.32332
 Alpha  occ. eigenvalues --  -10.31492 -10.27022 -10.25019 -10.24325 -10.24142
 Alpha  occ. eigenvalues --  -10.23911 -10.23496 -10.23281 -10.23195 -10.22952
 Alpha  occ. eigenvalues --  -10.22832 -10.22162 -10.22081 -10.21902 -10.21886
 Alpha  occ. eigenvalues --  -10.21802 -10.21031 -10.21017 -10.20969 -10.20804
 Alpha  occ. eigenvalues --  -10.20622 -10.20587 -10.20582 -10.20524 -10.20264
 Alpha  occ. eigenvalues --  -10.20138 -10.20119 -10.20102 -10.20096 -10.19932
 Alpha  occ. eigenvalues --  -10.19817 -10.19395 -10.19374 -10.19103 -10.19082
 Alpha  occ. eigenvalues --  -10.19076 -10.18756 -10.18721 -10.18658 -10.18640
 Alpha  occ. eigenvalues --  -10.18555 -10.18457 -10.18382 -10.18312 -10.18184
 Alpha  occ. eigenvalues --  -10.18167 -10.18111 -10.17983 -10.17948 -10.17888
 Alpha  occ. eigenvalues --  -10.17662 -10.17219 -10.16856 -10.15848  -1.09362
 Alpha  occ. eigenvalues --   -1.08701  -1.03891  -1.00151  -0.99869  -0.97551
 Alpha  occ. eigenvalues --   -0.97053  -0.95609  -0.91491  -0.85301  -0.82130
 Alpha  occ. eigenvalues --   -0.81642  -0.81481  -0.81380  -0.81177  -0.80599
 Alpha  occ. eigenvalues --   -0.79666  -0.79409  -0.79265  -0.78892  -0.77716
 Alpha  occ. eigenvalues --   -0.76777  -0.76182  -0.75500  -0.75055  -0.74212
 Alpha  occ. eigenvalues --   -0.73467  -0.73325  -0.72166  -0.71500  -0.70759
 Alpha  occ. eigenvalues --   -0.69520  -0.69339  -0.68459  -0.68150  -0.67570
 Alpha  occ. eigenvalues --   -0.67370  -0.66406  -0.65964  -0.65651  -0.65089
 Alpha  occ. eigenvalues --   -0.64433  -0.63629  -0.62178  -0.61949  -0.61222
 Alpha  occ. eigenvalues --   -0.61074  -0.58649  -0.58502  -0.58295  -0.57938
 Alpha  occ. eigenvalues --   -0.57046  -0.56198  -0.56190  -0.55696  -0.55542
 Alpha  occ. eigenvalues --   -0.55462  -0.54280  -0.53314  -0.53142  -0.52945
 Alpha  occ. eigenvalues --   -0.52519  -0.51831  -0.51011  -0.50869  -0.50437
 Alpha  occ. eigenvalues --   -0.49935  -0.49211  -0.48800  -0.48411  -0.48251
 Alpha  occ. eigenvalues --   -0.48025  -0.47739  -0.47589  -0.47373  -0.47234
 Alpha  occ. eigenvalues --   -0.47066  -0.46308  -0.46160  -0.45919  -0.45593
 Alpha  occ. eigenvalues --   -0.45447  -0.45258  -0.45178  -0.44914  -0.44739
 Alpha  occ. eigenvalues --   -0.44416  -0.44301  -0.43991  -0.43893  -0.43558
 Alpha  occ. eigenvalues --   -0.43268  -0.43092  -0.42922  -0.42618  -0.42399
 Alpha  occ. eigenvalues --   -0.42208  -0.41950  -0.41836  -0.41721  -0.41497
 Alpha  occ. eigenvalues --   -0.41429  -0.41076  -0.40900  -0.40849  -0.40598
 Alpha  occ. eigenvalues --   -0.40282  -0.39945  -0.39601  -0.39521  -0.39207
 Alpha  occ. eigenvalues --   -0.39096  -0.38781  -0.38480  -0.38447  -0.38418
 Alpha  occ. eigenvalues --   -0.37937  -0.37882  -0.37693  -0.37543  -0.37387
 Alpha  occ. eigenvalues --   -0.37254  -0.37112  -0.36938  -0.36725  -0.36650
 Alpha  occ. eigenvalues --   -0.36596  -0.36302  -0.35943  -0.35897  -0.35789
 Alpha  occ. eigenvalues --   -0.35754  -0.35488  -0.35128  -0.34985  -0.34923
 Alpha  occ. eigenvalues --   -0.34837  -0.34516  -0.34381  -0.34249  -0.34014
 Alpha  occ. eigenvalues --   -0.33660  -0.33510  -0.33270  -0.33142  -0.32422
 Alpha  occ. eigenvalues --   -0.32286  -0.31978  -0.31873  -0.31554  -0.31549
 Alpha  occ. eigenvalues --   -0.31048  -0.31034  -0.30772  -0.30040  -0.29898
 Alpha  occ. eigenvalues --   -0.29716  -0.29576  -0.28677  -0.28260  -0.27936
 Alpha  occ. eigenvalues --   -0.27903  -0.27352  -0.26197  -0.25748  -0.25229
 Alpha  occ. eigenvalues --   -0.25012  -0.24488  -0.23844  -0.21350  -0.19771
 Alpha  occ. eigenvalues --   -0.19014
 Alpha virt. eigenvalues --   -0.09901  -0.08164  -0.04062  -0.01658  -0.01195
 Alpha virt. eigenvalues --   -0.00008   0.00027   0.00835   0.01947   0.02845
 Alpha virt. eigenvalues --    0.03230   0.03958   0.04180   0.04631   0.04763

 Mulliken charges:
               1
     1  C   -0.009350
     2  C   -0.071958
     3  C   -0.029451
     4  C   -0.076740
     5  N   -0.106380
     6  C   -0.055510
     7  C   -0.094561
     8  C   -0.011256
     9  C   -0.065864
    10  C    0.135140
    11  C    0.202222
    12  C    0.005907
    13  C    0.199859
    14  O   -0.261690
    15  O   -0.325498
    16  N   -0.128860
    17  C    0.106105
    18  C   -0.120852
    19  C   -0.007108
    20  C    0.032832
    21  C    0.124200
    22  C   -0.041415
    23  C    0.039531
    24  N   -0.341243
    25  C    0.189800
    26  C   -0.199812
    27  C   -0.098167
    28  C    0.087094
    29  C    0.233758
    30  C    0.160175
    31  C   -0.018931
    32  N   -0.061899
    33  C    0.104106
    34  C   -0.083628
    35  C   -0.079942
    36  C    0.113079
    37  C   -0.073653
    38  C    0.068272
    39  O   -0.135225
    40  C   -0.099311
    41  C    0.197193
    42  O   -0.240396
    43  O   -0.299113
    44  C    0.171787
    45  C    0.413766
    46  C   -0.126966
    47  C   -0.113934
    48  C   -0.046031
    49  C    0.119463
    50  C   -0.102152
    51  C    0.111246
    52  C   -0.069422
    53  C    0.127719
    54  C    0.059500
    55  C   -0.053713
    56  C    0.044628
    57  C   -0.008719
    58  C    0.102300
    59  C   -0.002100
    60  C    0.085088
    61  C   -0.025939
    62  C   -0.182490
    63  C   -0.013641
    64  C   -0.005877
    65  H   -0.022272
    66  H   -0.123537
    67  H   -0.026724
    68  H    0.003563
    69  H   -0.037110
    70  H    0.021259
    71  H   -0.008065
    72  H    0.032938
    73  H   -0.043172
    74  H    0.006457
    75  H    0.009924
    76  H    0.070612
    77  H    0.032292
    78  H    0.002031
    79  H    0.018461
    80  H    0.014687
    81  H    0.010963
    82  H    0.012208
    83  H    0.044826
    84  H   -0.027194
    85  H   -0.061352
    86  H   -0.001423
    87  H   -0.053370
    88  H    0.004437
    89  H    0.023448
    90  H    0.024267
    91  H    0.049475
    92  H    0.061261
    93  H    0.099431
    94  H    0.076653
    95  H    0.046289
    96  H    0.052502
    97  H    0.028585
    98  H   -0.033149
    99  H   -0.017660
   100  H   -0.020722
   101  H    0.004355
   102  H    0.028625
   103  H    0.056420
   104  H    0.012296
   105  H    0.014312
   106  H    0.023465
   107  H   -0.007448
   108  H   -0.029382
   109  H    0.011447
   110  H   -0.018454
   111  H   -0.050883
   112  H   -0.017309
   113  H   -0.017350
   114  H   -0.042294
   115  H   -0.008099
   116  H    0.025820
   117  H    0.003678
   118  H   -0.026021
   119  H   -0.008922
   120  H   -0.036864
   121  H   -0.045799
   122  H    0.013772
   123  H   -0.000883
   124  H    0.015228
   125  H   -0.001225
   126  H   -0.019275
   127  H   -0.017785
   128  H   -0.012515
   129  H   -0.006853
   130  H    0.018885
   131  H    0.017418
   132  H    0.000480
   133  H    0.034781
   134  H    0.040931
   135  H    0.026991
   136  H    0.037170
   137  H    0.187343
   138  H    0.177150
 Sum of Mulliken charges =   0.00000

 Dipole moment (field-independent basis, Debye):
    X=              1.5314    Y=              5.3591    Z=              1.2538  Tot=              5.7129
 Quadrupole moment (field-independent basis, Debye-Ang):
   XX=           -353.7012   YY=           -376.2425   ZZ=           -395.3155
   XY=            -22.0787   XZ=              3.1816   YZ=             -2.1526

 Normal termination of Gaussian 09 at Thu Aug  1 13:25:01 2019.
