 Gaussian 09, Revision D.01,
 Gaussian 09:  ES64L-G09RevD.01 24-Apr-2013

 --------------------------
 # td=(NStates=1) B3LYP/SVP
 --------------------------

 --
 TD
 --
 Symbolic Z-matrix:
 Charge =  0 Multiplicity = 1

                         Standard orientation:
 ---------------------------------------------------------------------
 Center     Atomic      Atomic             Coordinates (Angstroms)
 Number     Number       Type             X           Y           Z
 ---------------------------------------------------------------------
      1          6           0       -5.044025   -1.939131    0.401730
      2          6           0       -4.791202    2.726101    1.291216
      3          6           0       -9.456060    3.329478   -0.175629
      4          6           0       -9.860210   -1.540713   -0.824904
      5          7           0       -5.157247    0.441583    0.710994
      6          6           0       -4.453589   -0.737727    0.772817
      7          6           0       -3.025734   -0.553649    1.220624
      8          6           0       -3.076519    0.932942    1.828869
      9          6           0       -4.412780    1.403077    1.199136
     10          6           0       -2.944121    0.942652    3.284156
     11          6           0       -1.972579   -0.812835    0.111539
     12          6           0       -0.453326   -0.593568    0.621398
     13          6           0        0.443555   -1.015689   -0.568317
     14          8           0        0.057815   -1.803414   -1.522997
     15          8           0        1.679714   -0.623832   -0.405039
     16          7           0       -7.117347    2.664836    0.538179
     17          6           0       -6.097084    3.320519    1.013193
     18          6           0       -6.360959    4.696265    1.025266
     19          6           0       -7.600222    4.914951    0.466127
     20          6           0       -8.171996    3.609143    0.178640
     21          6           0       -5.323169    5.837608    1.393150
     22          6           0       -8.375846    6.205032    0.424709
     23          6           0       -9.215473    6.484457   -0.594666
     24          7           0       -9.202019    0.801879   -0.410920
     25          6           0       -9.907342    1.896682   -0.545067
     26          6           0      -11.268747    1.803576   -0.855515
     27          6           0      -11.478651    0.437468   -0.949722
     28          6           0      -10.140930   -0.149457   -0.734264
     29          6           0      -12.354204    2.931746   -1.080544
     30          6           0      -12.629246   -0.305782   -1.528339
     31          6           0      -12.666508   -0.557668   -3.043297
     32          7           0       -7.492986   -1.240316   -0.208507
     33          6           0       -8.596805   -2.049096   -0.554379
     34          6           0       -8.118098   -3.445602   -0.507432
     35          6           0       -6.803855   -3.437993   -0.216993
     36          6           0       -6.487837   -2.077143    0.078059
     37          6           0       -9.019308   -4.719864   -0.800873
     38          6           0       -5.710280   -4.348042    0.048883
     39          8           0       -5.493089   -5.507605   -0.090547
     40          6           0       -4.479286   -3.263189    0.461196
     41          6           0       -3.895896   -3.742226    1.742466
     42          8           0       -4.178532   -3.277812    2.754278
     43          8           0       -2.951495   -4.790301    1.579477
     44          6           0       -2.440860   -5.246588    2.779779
     45          6           0        2.783950   -0.948070   -1.319646
     46          6           0        4.047868   -0.481142   -0.790418
     47          6           0        5.011015    0.275524   -1.425947
     48          6           0        4.788828    0.737331   -2.830223
     49          6           0        6.268730    0.536117   -0.661074
     50          6           0        7.494044   -0.270173   -1.195765
     51          6           0        8.764952    0.008970   -0.334299
     52          6           0       10.141617   -0.525227   -0.911635
     53          6           0        9.915187   -2.107567   -0.958471
     54          6           0       11.213380   -0.181145   -0.098462
     55          6           0       12.613373   -0.449733   -0.701819
     56          6           0       13.822986    0.076826    0.260416
     57          6           0       15.230877   -0.161369   -0.269909
     58          6           0       15.522345   -1.588827   -0.182067
     59          6           0       16.329639    0.749006    0.517068
     60          6           0       17.636814    0.690367   -0.019847
     61          6           0       18.640448    1.518951    0.753194
     62          6           0       20.169755    1.385489    0.313749
     63          6           0       20.447979    1.710950   -1.136771
     64          6           0       21.077634    2.275939    1.289879
     65          1           0       -4.188855    3.365037    1.740653
     66          1           0      -10.157659    4.106969   -0.178241
     67          1           0      -10.680336   -2.271405   -1.116354
     68          1           0       -2.891244   -1.399864    1.868452
     69          1           0       -2.407075    1.540134    1.384959
     70          1           0       -1.897677    0.603680    3.606328
     71          1           0       -3.187953    2.062566    3.790717
     72          1           0       -3.610362    0.205281    3.650716
     73          1           0       -2.108609   -1.863747   -0.342457
     74          1           0       -1.994826   -0.262391   -0.817689
     75          1           0       -0.016029    0.413454    0.877147
     76          1           0       -0.162905   -1.061290    1.510626
     77          1           0       -4.518754    5.970430    0.566462
     78          1           0       -5.828465    6.912368    1.373258
     79          1           0       -5.144331    5.759756    2.464491
     80          1           0       -8.158922    7.091509    1.070431
     81          1           0       -9.459591    5.722997   -1.386131
     82          1           0       -9.839639    7.350944   -0.675297
     83          1           0      -12.667096    3.486065    0.057333
     84          1           0      -12.120302    3.864744   -1.846636
     85          1           0      -13.475024    2.528640   -1.249793
     86          1           0      -12.676868   -1.090593   -0.975307
     87          1           0      -13.375296    0.310923   -1.276132
     88          1           0      -12.732930    0.273273   -3.680224
     89          1           0      -11.855233   -1.221219   -3.232882
     90          1           0      -13.609797   -1.147312   -3.246283
     91          1           0       -9.836851   -4.870103   -0.017348
     92          1           0       -9.315690   -4.664899   -1.883798
     93          1           0       -8.391107   -5.665085   -0.843298
     94          1           0       -3.654247   -3.503988   -0.348424
     95          1           0       -2.010063   -6.394030    2.467228
     96          1           0       -1.743893   -4.405225    3.169664
     97          1           0       -3.391023   -5.483923    3.498716
     98          1           0        2.581468   -2.093489   -1.578977
     99          1           0        2.409400   -0.558109   -2.280525
    100          1           0        4.333381   -0.956478    0.301095
    101          1           0        5.006638    1.831939   -2.942106
    102          1           0        5.694894    0.250195   -3.366717
    103          1           0        3.900223    0.562207   -3.421871
    104          1           0        6.486774    1.698305   -0.652365
    105          1           0        6.131455    0.364354    0.348566
    106          1           0        7.386778   -1.270288   -1.018937
    107          1           0        7.673938   -0.203061   -2.291110
    108          1           0        8.836999    1.131469   -0.415383
    109          1           0        8.558133   -0.289273    0.795102
    110          1           0       10.194955   -0.208730   -1.898074
    111          1           0        8.952083   -2.538780   -1.379984
    112          1           0       10.749000   -2.623031   -1.432206
    113          1           0       10.065048   -2.476748    0.113519
    114          1           0       11.328821    0.811507   -0.091755
    115          1           0       11.015884   -0.621254    0.964949
    116          1           0       12.758332   -1.479496   -0.835336
    117          1           0       12.818124    0.007819   -1.731515
    118          1           0       13.775088    1.247789    0.492909
    119          1           0       13.699857   -0.397804    1.294283
    120          1           0       15.354284    0.201383   -1.359593
    121          1           0       15.213655   -2.353157   -1.053553
    122          1           0       16.534662   -1.703296   -0.341146
    123          1           0       15.385262   -1.998514    0.863422
    124          1           0       15.770470    1.699594    0.696582
    125          1           0       16.555867    0.527380    1.473725
    126          1           0       18.035650   -0.310879   -0.009488
    127          1           0       17.384892    0.968999   -1.146592
    128          1           0       18.399335    2.703704    0.565186
    129          1           0       18.726306    1.479608    1.818929
    130          1           0       20.285621    0.407282    0.444165
    131          1           0       20.171382    2.733048   -1.303759
    132          1           0       21.540403    1.408859   -1.472906
    133          1           0       20.068177    0.983920   -1.868831
    134          1           0       20.913329    2.089565    2.422756
    135          1           0       22.037485    2.206044    0.979734
    136          1           0       20.943162    3.328730    1.211268
    137          1           0       -7.396978    1.627061    0.374982
    138          1           0       -7.693082   -0.231942   -0.144706
 ---------------------------------------------------------------------

 SCF Done:  E(RB3LYP) =  -2733.06366533     A.U. after   17 cycles

 Excitation energies and oscillator strengths:

 Excited State   1:      Singlet-A      2.1084 eV  588.05 nm  f=0.0954  <S**2>=0.000
     235 -> 237       -0.25153
     235 -> 238        0.32942
     236 -> 237        0.54002
     236 -> 238        0.18241
 This state for optimization and/or second-order correction.
 Total Energy, E(TD-HF/TD-KS) =  -2732.98618272
 Copying the excited state density for this state as the 1-particle RhoCI density.

 The electronic state is 1-A.
 Alpha  occ. eigenvalues --  -19.17756 -19.15622 -19.13267 -19.12563 -19.10707
 Alpha  occ. eigenvalues --  -14.37279 -14.36931 -14.31036 -14.30878 -10.31230
 Alpha  occ. eigenvalues --  -10.30225 -10.28498 -10.25644 -10.25468 -10.24174
 Alpha  occ. eigenvalues --  -10.23864 -10.23448 -10.23184 -10.23159 -10.22140
 Alpha  occ. eigenvalues --  -10.21850 -10.21721 -10.21720 -10.21602 -10.21505
 Alpha  occ. eigenvalues --  -10.21419 -10.21242 -10.21182 -10.20869 -10.20799
 Alpha  occ. eigenvalues --  -10.20416 -10.20273 -10.20166 -10.20161 -10.20152
 Alpha  occ. eigenvalues --  -10.20030 -10.20029 -10.19918 -10.19732 -10.19510
 Alpha  occ. eigenvalues --  -10.19506 -10.19416 -10.19411 -10.19405 -10.19398
 Alpha  occ. eigenvalues --  -10.18909 -10.18884 -10.18775 -10.18770 -10.18684
 Alpha  occ. eigenvalues --  -10.18569 -10.18477 -10.18395 -10.18374 -10.18351
 Alpha  occ. eigenvalues --  -10.18171 -10.18065 -10.17899 -10.17646 -10.17454
 Alpha  occ. eigenvalues --  -10.17345 -10.17248 -10.16785 -10.16533  -1.09805
 Alpha  occ. eigenvalues --   -1.08573  -1.04604  -1.01903  -0.98518  -0.98013
 Alpha  occ. eigenvalues --   -0.95831  -0.95305  -0.94023  -0.84343  -0.83368
 Alpha  occ. eigenvalues --   -0.82703  -0.82214  -0.81543  -0.80751  -0.80169
 Alpha  occ. eigenvalues --   -0.79936  -0.79437  -0.79409  -0.78665  -0.77996
 Alpha  occ. eigenvalues --   -0.76708  -0.76150  -0.75524  -0.75168  -0.74590
 Alpha  occ. eigenvalues --   -0.73647  -0.72270  -0.71788  -0.71570  -0.69601
 Alpha  occ. eigenvalues --   -0.69516  -0.68452  -0.68211  -0.67806  -0.67348
 Alpha  occ. eigenvalues --   -0.67182  -0.66880  -0.65870  -0.65541  -0.64988
 Alpha  occ. eigenvalues --   -0.64390  -0.63098  -0.62838  -0.62520  -0.61813
 Alpha  occ. eigenvalues --   -0.60416  -0.59459  -0.58601  -0.57953  -0.57696
 Alpha  occ. eigenvalues --   -0.57378  -0.56408  -0.56173  -0.55890  -0.55827
 Alpha  occ. eigenvalues --   -0.54924  -0.54635  -0.53803  -0.53663  -0.53385
 Alpha  occ. eigenvalues --   -0.52956  -0.51628  -0.51238  -0.50664  -0.50156
 Alpha  occ. eigenvalues --   -0.49631  -0.49432  -0.49112  -0.48533  -0.48354
 Alpha  occ. eigenvalues --   -0.47967  -0.47453  -0.47265  -0.46986  -0.46386
 Alpha  occ. eigenvalues --   -0.46194  -0.45887  -0.45842  -0.45503  -0.45420
 Alpha  occ. eigenvalues --   -0.45303  -0.45274  -0.45197  -0.44714  -0.44705
 Alpha  occ. eigenvalues --   -0.44431  -0.44232  -0.44089  -0.43726  -0.43473
 Alpha  occ. eigenvalues --   -0.43435  -0.43111  -0.43034  -0.42970  -0.42564
 Alpha  occ. eigenvalues --   -0.42438  -0.41971  -0.41833  -0.41650  -0.41369
 Alpha  occ. eigenvalues --   -0.41147  -0.40918  -0.40735  -0.40416  -0.40068
 Alpha  occ. eigenvalues --   -0.39998  -0.39891  -0.39612  -0.39473  -0.39427
 Alpha  occ. eigenvalues --   -0.39156  -0.39119  -0.38788  -0.38413  -0.38350
 Alpha  occ. eigenvalues --   -0.38239  -0.38035  -0.37859  -0.37833  -0.37723
 Alpha  occ. eigenvalues --   -0.37258  -0.37073  -0.37043  -0.36950  -0.36882
 Alpha  occ. eigenvalues --   -0.36353  -0.36200  -0.35844  -0.35585  -0.35456
 Alpha  occ. eigenvalues --   -0.35419  -0.35236  -0.34996  -0.34838  -0.34726
 Alpha  occ. eigenvalues --   -0.34698  -0.34473  -0.34146  -0.33966  -0.33579
 Alpha  occ. eigenvalues --   -0.33428  -0.33267  -0.32958  -0.32833  -0.32629
 Alpha  occ. eigenvalues --   -0.32266  -0.32189  -0.31912  -0.31869  -0.31246
 Alpha  occ. eigenvalues --   -0.30986  -0.30750  -0.30582  -0.29717  -0.29218
 Alpha  occ. eigenvalues --   -0.28922  -0.28815  -0.28753  -0.28193  -0.28050
 Alpha  occ. eigenvalues --   -0.27655  -0.27389  -0.26545  -0.26323  -0.25098
 Alpha  occ. eigenvalues --   -0.24779  -0.24653  -0.24415  -0.23161  -0.19482
 Alpha  occ. eigenvalues --   -0.18759
 Alpha virt. eigenvalues --   -0.09666  -0.07992  -0.03914  -0.01706  -0.01487
 Alpha virt. eigenvalues --   -0.00119   0.00710   0.01348   0.02722   0.03833
 Alpha virt. eigenvalues --    0.04314   0.04372   0.04567   0.04868   0.05065

 Mulliken charges:
               1
     1  C    0.059062
     2  C   -0.007940
     3  C   -0.081034
     4  C   -0.093050
     5  N   -0.150203
     6  C   -0.076776
     7  C    0.009777
     8  C    0.088752
     9  C   -0.023917
    10  C    0.054807
    11  C    0.033265
    12  C    0.039766
    13  C    0.182223
    14  O   -0.330764
    15  O   -0.287572
    16  N   -0.090933
    17  C    0.085672
    18  C   -0.165993
    19  C    0.051290
    20  C    0.121998
    21  C    0.059180
    22  C   -0.035314
    23  C   -0.054945
    24  N   -0.241289
    25  C    0.045019
    26  C   -0.086389
    27  C   -0.169222
    28  C    0.044742
    29  C   -0.067391
    30  C    0.235591
    31  C    0.065993
    32  N   -0.022125
    33  C    0.053581
    34  C   -0.149869
    35  C   -0.006371
    36  C    0.074156
    37  C    0.051592
    38  C    0.093271
    39  O   -0.118689
    40  C   -0.158478
    41  C    0.180221
    42  O   -0.156272
    43  O   -0.322910
    44  C    0.089498
    45  C    0.224780
    46  C   -0.089317
    47  C   -0.135284
    48  C    0.072264
    49  C    0.104047
    50  C    0.051848
    51  C   -0.042774
    52  C   -0.013930
    53  C   -0.018584
    54  C    0.136161
    55  C    0.026366
    56  C   -0.013411
    57  C   -0.086781
    58  C    0.076113
    59  C    0.063857
    60  C    0.076483
    61  C   -0.028189
    62  C   -0.033477
    63  C    0.018239
    64  C    0.068502
    65  H   -0.101370
    66  H   -0.032788
    67  H    0.010208
    68  H   -0.012292
    69  H   -0.050980
    70  H    0.019602
    71  H    0.029468
    72  H    0.017016
    73  H    0.043307
    74  H   -0.001675
    75  H    0.021549
    76  H    0.008581
    77  H    0.063420
    78  H    0.012446
    79  H    0.033470
    80  H    0.017890
    81  H    0.040682
    82  H    0.019412
    83  H    0.035233
    84  H    0.061488
    85  H    0.040977
    86  H   -0.061605
    87  H   -0.059444
    88  H    0.006944
    89  H   -0.002056
    90  H    0.005250
    91  H    0.054470
    92  H    0.036843
    93  H    0.036022
    94  H    0.082116
    95  H    0.058693
    96  H    0.041910
    97  H    0.042080
    98  H    0.045876
    99  H    0.006166
   100  H    0.024472
   101  H    0.018091
   102  H    0.024827
   103  H    0.024626
   104  H    0.011315
   105  H   -0.028263
   106  H   -0.024769
   107  H    0.005481
   108  H   -0.009659
   109  H    0.014828
   110  H   -0.037185
   111  H    0.029022
   112  H   -0.001251
   113  H   -0.003880
   114  H   -0.049363
   115  H    0.009664
   116  H   -0.022666
   117  H    0.003280
   118  H   -0.002055
   119  H    0.000562
   120  H   -0.003800
   121  H    0.019494
   122  H   -0.050874
   123  H    0.006316
   124  H   -0.014403
   125  H   -0.061188
   126  H   -0.004529
   127  H    0.002340
   128  H   -0.007628
   129  H   -0.007367
   130  H   -0.049296
   131  H    0.013926
   132  H    0.003514
   133  H    0.001978
   134  H    0.017520
   135  H   -0.024692
   136  H   -0.013147
   137  H    0.190587
   138  H    0.146337
 Sum of Mulliken charges =   0.00000

 Dipole moment (field-independent basis, Debye):
    X=              2.7151    Y=              5.1926    Z=             -0.0641  Tot=              5.8600
 Quadrupole moment (field-independent basis, Debye-Ang):
   XX=           -310.2964   YY=           -386.1890   ZZ=           -392.1523
   XY=            -26.7651   XZ=              5.9295   YZ=             -0.9737

 Normal termination of Gaussian 09 at Mon Aug  5 06:27:22 2019.
