 Gaussian 09, Revision D.01,
 Gaussian 09:  ES64L-G09RevD.01 24-Apr-2013

 --------------------------
 # td=(NStates=1) B3LYP/SVP
 --------------------------

 --
 TD
 --
 Symbolic Z-matrix:
 Charge =  0 Multiplicity = 1

                         Standard orientation:
 ---------------------------------------------------------------------
 Center     Atomic      Atomic             Coordinates (Angstroms)
 Number     Number       Type             X           Y           Z
 ---------------------------------------------------------------------
      1          6           0       -5.094284   -1.851881    0.511400
      2          6           0       -4.817415    2.871135    1.424524
      3          6           0       -9.351370    3.249587   -0.278001
      4          6           0       -9.836611   -1.492818   -0.862603
      5          7           0       -5.250520    0.550597    0.797995
      6          6           0       -4.508875   -0.612096    0.846660
      7          6           0       -3.050991   -0.447027    1.306685
      8          6           0       -3.129874    0.936249    1.760932
      9          6           0       -4.417999    1.541982    1.324411
     10          6           0       -2.996184    0.956064    3.307620
     11          6           0       -2.110642   -0.629275    0.050409
     12          6           0       -0.608640   -0.762003    0.528672
     13          6           0        0.361681   -1.083125   -0.572640
     14          8           0        0.040898   -1.672947   -1.697613
     15          8           0        1.606005   -0.629569   -0.307003
     16          7           0       -7.026079    2.701860    0.358066
     17          6           0       -6.019479    3.402766    0.976313
     18          6           0       -6.379356    4.795359    1.149817
     19          6           0       -7.629810    4.895936    0.578387
     20          6           0       -8.169648    3.627113    0.190253
     21          6           0       -5.546984    5.905085    1.486101
     22          6           0       -8.347617    6.164398    0.339411
     23          6           0       -9.225113    6.493473   -0.619875
     24          7           0       -9.227860    0.826461   -0.509682
     25          6           0       -9.855073    1.998465   -0.575938
     26          6           0      -11.380939    1.794039   -1.017743
     27          6           0      -11.531415    0.429187   -1.125287
     28          6           0      -10.222000   -0.126562   -0.825434
     29          6           0      -12.335071    2.858166   -1.112186
     30          6           0      -12.671243   -0.384439   -1.616915
     31          6           0      -12.662272   -0.657958   -3.105852
     32          7           0       -7.540572   -1.302079   -0.199578
     33          6           0       -8.576765   -2.082915   -0.536301
     34          6           0       -8.167319   -3.408184   -0.552870
     35          6           0       -6.789001   -3.374069   -0.167509
     36          6           0       -6.432309   -2.016243    0.112281
     37          6           0       -8.978809   -4.605883   -0.905578
     38          6           0       -5.671967   -4.239445    0.051318
     39          8           0       -5.618180   -5.446964    0.213189
     40          6           0       -4.451975   -3.274830    0.450400
     41          6           0       -3.732148   -3.711469    1.766546
     42          8           0       -4.003353   -3.412179    2.876497
     43          8           0       -2.899950   -4.750403    1.461231
     44          6           0       -2.129908   -5.290967    2.603851
     45          6           0        2.575491   -1.003038   -1.231027
     46          6           0        3.910114   -0.655824   -0.760892
     47          6           0        4.930940    0.030033   -1.258242
     48          6           0        5.096265    0.553423   -2.707945
     49          6           0        6.322684    0.209908   -0.501512
     50          6           0        7.526932   -0.389815   -1.040060
     51          6           0        8.845932   -0.131436   -0.182786
     52          6           0       10.090084   -0.872645   -0.730703
     53          6           0       10.087444   -2.473102   -0.539403
     54          6           0       11.340212   -0.172874    0.031028
     55          6           0       12.745597   -0.868108   -0.409626
     56          6           0       13.837106    0.008042    0.201241
     57          6           0       15.283235   -0.125439   -0.332437
     58          6           0       15.605708   -1.647922   -0.304819
     59          6           0       16.356789    0.713008    0.448584
     60          6           0       17.714731    0.724532   -0.204032
     61          6           0       18.623713    1.704919    0.627532
     62          6           0       20.064793    1.722292    0.165827
     63          6           0       20.010564    2.319112   -1.320069
     64          6           0       20.857602    2.543313    1.060439
     65          1           0       -4.165667    3.556209    1.983026
     66          1           0      -10.057910    4.061535   -0.402478
     67          1           0      -10.553902   -2.150697   -1.113283
     68          1           0       -2.873407   -1.068921    2.120122
     69          1           0       -2.194230    1.479687    1.494725
     70          1           0       -1.787542    0.795483    3.397783
     71          1           0       -3.276522    2.066314    3.700231
     72          1           0       -3.578848    0.150888    3.830783
     73          1           0       -2.142238   -1.471740   -0.375777
     74          1           0       -2.078528    0.112048   -0.924992
     75          1           0        0.025002    0.013427    1.171660
     76          1           0       -0.595847   -1.741434    1.094234
     77          1           0       -4.978659    6.249049    0.501830
     78          1           0       -6.124910    6.749939    1.691729
     79          1           0       -4.809935    5.879023    2.388291
     80          1           0       -8.164133    6.954785    1.038927
     81          1           0       -9.355032    5.905042   -1.461331
     82          1           0       -9.471891    7.726969   -0.679231
     83          1           0      -12.270298    3.724208   -0.209021
     84          1           0      -12.098360    3.275354   -1.979506
     85          1           0      -13.425592    2.204932   -1.154400
     86          1           0      -12.529293   -1.404652   -1.233938
     87          1           0      -13.591474   -0.003009   -1.450302
     88          1           0      -12.605366    0.299237   -3.578097
     89          1           0      -11.781986   -1.310385   -3.421445
     90          1           0      -13.519106   -1.210925   -3.280734
     91          1           0       -9.558830   -4.947094   -0.133293
     92          1           0       -9.576933   -4.445807   -1.703799
     93          1           0       -8.292336   -5.504428   -1.250360
     94          1           0       -3.596214   -3.553197   -0.392264
     95          1           0       -1.341814   -6.081084    2.340536
     96          1           0       -1.322506   -4.409555    3.000596
     97          1           0       -2.711234   -5.459572    3.611335
     98          1           0        2.329244   -2.002153   -1.663212
     99          1           0        2.508320   -0.247414   -2.069381
    100          1           0        4.037689   -0.822516    0.237561
    101          1           0        5.108468    1.441532   -2.558704
    102          1           0        5.676828    0.020626   -3.333301
    103          1           0        4.218919    0.285738   -3.433603
    104          1           0        6.425542    1.249629   -0.400538
    105          1           0        6.224945   -0.101975    0.599258
    106          1           0        7.424254   -1.503127   -1.166020
    107          1           0        7.837153   -0.214367   -2.215245
    108          1           0        8.929180    0.920999   -0.209833
    109          1           0        8.639793   -0.235592    0.799889
    110          1           0       10.324525   -0.896056   -1.964996
    111          1           0        9.357945   -3.058209   -1.208916
    112          1           0       10.891319   -2.950300   -0.904316
    113          1           0        9.794151   -2.572596    0.507359
    114          1           0       11.339454    1.053640   -0.250375
    115          1           0       10.940822   -0.177085    1.270040
    116          1           0       12.841241   -2.067406   -0.361454
    117          1           0       12.736079   -0.799720   -1.565191
    118          1           0       13.662503    1.196563    0.106403
    119          1           0       13.865177   -0.109247    1.354215
    120          1           0       15.215608    0.245344   -1.321225
    121          1           0       15.116680   -2.269805   -1.141908
    122          1           0       16.675130   -1.913458   -0.949544
    123          1           0       15.550946   -2.185940    0.621527
    124          1           0       15.980516    1.879304    0.301173
    125          1           0       16.238497    0.187954    1.384517
    126          1           0       18.123021   -0.391716   -0.235096
    127          1           0       17.774328    1.190817   -1.306937
    128          1           0       18.278470    2.659331    0.640263
    129          1           0       18.736697    1.214473    1.660265
    130          1           0       20.690959    0.814431    0.184682
    131          1           0       19.393061    3.455564   -1.140064
    132          1           0       21.090650    2.440971   -1.529801
    133          1           0       19.492445    1.588114   -2.049654
    134          1           0       21.057646    1.994833    2.100672
    135          1           0       21.945621    2.644491    0.632512
    136          1           0       20.596107    3.488753    1.114466
    137          1           0       -6.796899    1.818407    0.116080
    138          1           0       -7.706705   -0.192987   -0.185279
 ---------------------------------------------------------------------

 SCF Done:  E(RB3LYP) =  -2732.91141000     A.U. after   17 cycles

 Excitation energies and oscillator strengths:

 Excited State   1:      Singlet-A      2.0658 eV  600.18 nm  f=0.2043  <S**2>=0.000
     235 -> 237       -0.14196
     235 -> 238        0.26938
     236 -> 237        0.63121
 This state for optimization and/or second-order correction.
 Total Energy, E(TD-HF/TD-KS) =  -2732.83549382
 Copying the excited state density for this state as the 1-particle RhoCI density.

 The electronic state is 1-A.
 Alpha  occ. eigenvalues --  -19.19290 -19.17614 -19.12568 -19.12139 -19.11026
 Alpha  occ. eigenvalues --  -14.36122 -14.35983 -14.32815 -14.31124 -10.32339
 Alpha  occ. eigenvalues --  -10.31230 -10.26832 -10.26650 -10.24439 -10.24144
 Alpha  occ. eigenvalues --  -10.23931 -10.23116 -10.23103 -10.22792 -10.22333
 Alpha  occ. eigenvalues --  -10.22308 -10.22134 -10.22112 -10.22022 -10.21904
 Alpha  occ. eigenvalues --  -10.21407 -10.21254 -10.20974 -10.20935 -10.20880
 Alpha  occ. eigenvalues --  -10.20848 -10.20833 -10.20702 -10.20673 -10.20502
 Alpha  occ. eigenvalues --  -10.20476 -10.20443 -10.20435 -10.20164 -10.20162
 Alpha  occ. eigenvalues --  -10.19809 -10.19793 -10.19529 -10.19506 -10.19455
 Alpha  occ. eigenvalues --  -10.19394 -10.19320 -10.19298 -10.19297 -10.19194
 Alpha  occ. eigenvalues --  -10.19192 -10.18889 -10.18533 -10.18510 -10.18084
 Alpha  occ. eigenvalues --  -10.18069 -10.18065 -10.17903 -10.17858 -10.17805
 Alpha  occ. eigenvalues --  -10.17635 -10.17438 -10.17437 -10.16999  -1.10274
 Alpha  occ. eigenvalues --   -1.08958  -1.01270  -1.00553  -0.98390  -0.96969
 Alpha  occ. eigenvalues --   -0.96867  -0.93913  -0.93047  -0.83825  -0.83374
 Alpha  occ. eigenvalues --   -0.82473  -0.81977  -0.81778  -0.81686  -0.80842
 Alpha  occ. eigenvalues --   -0.80343  -0.79704  -0.79543  -0.78939  -0.78211
 Alpha  occ. eigenvalues --   -0.77129  -0.76522  -0.76167  -0.75534  -0.74904
 Alpha  occ. eigenvalues --   -0.73702  -0.73109  -0.72236  -0.71803  -0.71088
 Alpha  occ. eigenvalues --   -0.70506  -0.70109  -0.69094  -0.68267  -0.67129
 Alpha  occ. eigenvalues --   -0.66852  -0.66726  -0.65927  -0.65676  -0.64850
 Alpha  occ. eigenvalues --   -0.63948  -0.63075  -0.62498  -0.62036  -0.61679
 Alpha  occ. eigenvalues --   -0.60973  -0.58716  -0.58476  -0.58028  -0.57012
 Alpha  occ. eigenvalues --   -0.56813  -0.56714  -0.55995  -0.55501  -0.55204
 Alpha  occ. eigenvalues --   -0.54679  -0.54538  -0.54214  -0.54095  -0.53283
 Alpha  occ. eigenvalues --   -0.52862  -0.52531  -0.51641  -0.51133  -0.50902
 Alpha  occ. eigenvalues --   -0.49894  -0.49437  -0.49015  -0.48413  -0.47916
 Alpha  occ. eigenvalues --   -0.47585  -0.47463  -0.47213  -0.47107  -0.47054
 Alpha  occ. eigenvalues --   -0.46906  -0.46806  -0.46544  -0.46212  -0.45998
 Alpha  occ. eigenvalues --   -0.45713  -0.45287  -0.45014  -0.44839  -0.44752
 Alpha  occ. eigenvalues --   -0.44544  -0.44346  -0.44014  -0.43915  -0.43720
 Alpha  occ. eigenvalues --   -0.43553  -0.43219  -0.42992  -0.42774  -0.42333
 Alpha  occ. eigenvalues --   -0.42241  -0.42103  -0.42005  -0.41645  -0.41396
 Alpha  occ. eigenvalues --   -0.41296  -0.41165  -0.40908  -0.40834  -0.40668
 Alpha  occ. eigenvalues --   -0.40365  -0.40013  -0.39818  -0.39630  -0.39342
 Alpha  occ. eigenvalues --   -0.39108  -0.38821  -0.38649  -0.38278  -0.38195
 Alpha  occ. eigenvalues --   -0.38113  -0.37826  -0.37739  -0.37614  -0.37401
 Alpha  occ. eigenvalues --   -0.37392  -0.37165  -0.36981  -0.36746  -0.36643
 Alpha  occ. eigenvalues --   -0.36549  -0.36328  -0.36098  -0.35751  -0.35387
 Alpha  occ. eigenvalues --   -0.35286  -0.35095  -0.34998  -0.34829  -0.34669
 Alpha  occ. eigenvalues --   -0.34618  -0.34347  -0.34327  -0.34247  -0.33961
 Alpha  occ. eigenvalues --   -0.33544  -0.33469  -0.33190  -0.32793  -0.32548
 Alpha  occ. eigenvalues --   -0.32509  -0.32131  -0.31369  -0.31098  -0.30712
 Alpha  occ. eigenvalues --   -0.30555  -0.30044  -0.29723  -0.29621  -0.29515
 Alpha  occ. eigenvalues --   -0.29034  -0.28718  -0.28573  -0.28176  -0.27535
 Alpha  occ. eigenvalues --   -0.27448  -0.27327  -0.27249  -0.26419  -0.25247
 Alpha  occ. eigenvalues --   -0.25217  -0.24603  -0.23923  -0.23211  -0.20188
 Alpha  occ. eigenvalues --   -0.18722
 Alpha virt. eigenvalues --   -0.10257  -0.07584  -0.04216  -0.02331  -0.01863
 Alpha virt. eigenvalues --   -0.00599   0.00064   0.00719   0.02219   0.03330
 Alpha virt. eigenvalues --    0.03474   0.03513   0.03946   0.03957   0.04408

 Mulliken charges:
               1
     1  C    0.024887
     2  C   -0.089016
     3  C   -0.107695
     4  C   -0.016865
     5  N   -0.219259
     6  C   -0.101392
     7  C    0.064624
     8  C   -0.017657
     9  C    0.084571
    10  C   -0.050971
    11  C    0.142257
    12  C   -0.019888
    13  C    0.180105
    14  O   -0.325858
    15  O   -0.280122
    16  N   -0.067616
    17  C    0.078636
    18  C   -0.102157
    19  C    0.076903
    20  C    0.164630
    21  C    0.068260
    22  C   -0.060521
    23  C   -0.043348
    24  N   -0.230395
    25  C    0.071424
    26  C   -0.170329
    27  C   -0.055831
    28  C    0.075314
    29  C    0.065007
    30  C    0.114595
    31  C    0.042074
    32  N   -0.058135
    33  C    0.049297
    34  C   -0.141180
    35  C   -0.021628
    36  C    0.108152
    37  C    0.171094
    38  C    0.070848
    39  O   -0.178954
    40  C   -0.134590
    41  C    0.198025
    42  O   -0.190075
    43  O   -0.309062
    44  C    0.100832
    45  C    0.295522
    46  C   -0.057563
    47  C   -0.174101
    48  C    0.197414
    49  C    0.107420
    50  C   -0.034078
    51  C    0.121011
    52  C   -0.127460
    53  C    0.061454
    54  C   -0.084620
    55  C    0.007237
    56  C   -0.007307
    57  C   -0.020816
    58  C   -0.048451
    59  C    0.033991
    60  C   -0.034562
    61  C    0.084770
    62  C   -0.102884
    63  C   -0.057991
    64  C    0.064204
    65  H   -0.031228
    66  H   -0.048803
    67  H   -0.098890
    68  H   -0.008856
    69  H   -0.002220
    70  H    0.031449
    71  H    0.033437
    72  H    0.054357
    73  H   -0.060766
    74  H    0.049957
    75  H    0.051236
    76  H    0.043205
    77  H    0.049042
    78  H   -0.013554
    79  H    0.041546
    80  H   -0.001112
    81  H    0.010313
    82  H    0.051765
    83  H    0.065146
    84  H   -0.001957
    85  H    0.044668
    86  H   -0.007067
    87  H   -0.035945
    88  H    0.002448
    89  H    0.013608
    90  H   -0.002483
    91  H    0.006512
    92  H   -0.016619
    93  H    0.041505
    94  H    0.088922
    95  H    0.061837
    96  H    0.014899
    97  H    0.072786
    98  H    0.048158
    99  H    0.006371
   100  H   -0.055176
   101  H   -0.061489
   102  H    0.007991
   103  H   -0.009070
   104  H   -0.022012
   105  H   -0.003164
   106  H   -0.008529
   107  H    0.008240
   108  H   -0.028704
   109  H   -0.043307
   110  H    0.013869
   111  H    0.006261
   112  H   -0.021061
   113  H    0.012934
   114  H    0.039301
   115  H    0.023527
   116  H    0.046421
   117  H    0.003864
   118  H    0.005389
   119  H   -0.000356
   120  H   -0.032742
   121  H    0.015665
   122  H    0.003607
   123  H    0.021708
   124  H    0.011988
   125  H    0.000394
   126  H    0.018443
   127  H    0.014765
   128  H   -0.032388
   129  H   -0.006729
   130  H   -0.004975
   131  H    0.025308
   132  H    0.013259
   133  H    0.050250
   134  H    0.023666
   135  H   -0.008485
   136  H   -0.041856
   137  H    0.079740
   138  H    0.197606
 Sum of Mulliken charges =   0.00000

 Dipole moment (field-independent basis, Debye):
    X=              1.8609    Y=              5.7460    Z=             -0.0228  Tot=              6.0398
 Quadrupole moment (field-independent basis, Debye-Ang):
   XX=           -341.1278   YY=           -384.4838   ZZ=           -396.5391
   XY=            -39.1307   XZ=             13.2519   YZ=              2.9603

 Normal termination of Gaussian 09 at Sun Jul 28 12:42:40 2019.
