 Gaussian 09, Revision D.01,
 Gaussian 09:  ES64L-G09RevD.01 24-Apr-2013

 --------------------------
 # td=(NStates=1) B3LYP/SVP
 --------------------------

 --
 TD
 --
 Symbolic Z-matrix:
 Charge =  0 Multiplicity = 1

                         Standard orientation:
 ---------------------------------------------------------------------
 Center     Atomic      Atomic             Coordinates (Angstroms)
 Number     Number       Type             X           Y           Z
 ---------------------------------------------------------------------
      1          6           0       -5.164982   -1.999188    0.383150
      2          6           0       -4.707624    2.763665    1.395136
      3          6           0       -9.297513    3.412871   -0.296837
      4          6           0       -9.796387   -1.425948   -0.950798
      5          7           0       -5.129198    0.439254    0.673014
      6          6           0       -4.506924   -0.807735    0.775067
      7          6           0       -3.020499   -0.597624    1.050584
      8          6           0       -3.037472    0.786770    1.816067
      9          6           0       -4.358891    1.397634    1.306194
     10          6           0       -3.037039    0.806048    3.303301
     11          6           0       -2.070589   -0.806207   -0.071518
     12          6           0       -0.550463   -0.661301    0.372341
     13          6           0        0.432283   -1.033438   -0.788203
     14          8           0        0.129461   -1.357564   -1.881783
     15          8           0        1.696231   -0.703509   -0.523248
     16          7           0       -7.094655    2.810637    0.482854
     17          6           0       -5.921740    3.374748    1.052555
     18          6           0       -6.190246    4.779089    1.152947
     19          6           0       -7.480957    5.000166    0.591999
     20          6           0       -8.092603    3.649003    0.201979
     21          6           0       -5.152947    5.711802    1.537604
     22          6           0       -8.163589    6.282819    0.506352
     23          6           0       -9.038558    6.591065   -0.539753
     24          7           0       -9.175203    0.945073   -0.464890
     25          6           0       -9.797027    2.118076   -0.466604
     26          6           0      -11.348513    1.878910   -0.766257
     27          6           0      -11.425478    0.538396   -1.051664
     28          6           0      -10.120323   -0.054352   -0.918281
     29          6           0      -12.378485    2.930886   -0.918215
     30          6           0      -12.603204   -0.237298   -1.423365
     31          6           0      -12.661939   -0.646476   -2.940785
     32          7           0       -7.530831   -1.260470   -0.316353
     33          6           0       -8.707892   -2.046319   -0.537166
     34          6           0       -8.309194   -3.373745   -0.611141
     35          6           0       -6.987015   -3.416219   -0.208080
     36          6           0       -6.541886   -2.064056   -0.053579
     37          6           0       -9.303545   -4.489528   -0.998611
     38          6           0       -5.824702   -4.279607    0.058449
     39          8           0       -5.744922   -5.509310    0.161590
     40          6           0       -4.617812   -3.413129    0.485696
     41          6           0       -4.007651   -3.886684    1.742627
     42          8           0       -4.063534   -3.219212    2.771647
     43          8           0       -3.253771   -4.953079    1.608206
     44          6           0       -2.428231   -5.340234    2.706972
     45          6           0        2.767733   -0.914173   -1.475325
     46          6           0        4.063665   -0.601443   -0.813482
     47          6           0        4.984433    0.155608   -1.365190
     48          6           0        4.864294    0.744001   -2.662310
     49          6           0        6.287937    0.383621   -0.554967
     50          6           0        7.524609   -0.423940   -1.183160
     51          6           0        8.736311   -0.167171   -0.291400
     52          6           0       10.101929   -0.709045   -0.700204
     53          6           0       10.188511   -2.325376   -0.593936
     54          6           0       11.269603   -0.071047    0.094894
     55          6           0       12.690979   -0.606682   -0.436341
     56          6           0       13.867137   -0.010295    0.370263
     57          6           0       15.248460   -0.231181   -0.222601
     58          6           0       15.582054   -1.766278    0.006167
     59          6           0       16.257148    0.846092    0.481420
     60          6           0       17.699751    0.530570   -0.024822
     61          6           0       18.583883    1.764376    0.496296
     62          6           0       20.031535    1.521023    0.153542
     63          6           0       20.363811    1.852920   -1.268189
     64          6           0       21.012571    2.373004    1.094516
     65          1           0       -3.983605    3.337186    1.837882
     66          1           0       -9.985982    4.368222   -0.204577
     67          1           0      -10.479828   -2.346749   -1.281285
     68          1           0       -2.782446   -1.441759    1.871393
     69          1           0       -2.150145    1.464760    1.515750
     70          1           0       -2.245446    0.307987    3.803682
     71          1           0       -2.934153    1.647940    3.706016
     72          1           0       -3.995030    0.229345    3.766115
     73          1           0       -2.142027   -1.773221   -0.536056
     74          1           0       -2.141950   -0.126928   -1.067435
     75          1           0       -0.219653    0.258622    0.818931
     76          1           0       -0.449447   -1.317624    1.121754
     77          1           0       -4.394004    6.271848    0.506050
     78          1           0       -5.758626    6.629189    1.958805
     79          1           0       -4.549239    5.135125    2.295198
     80          1           0       -7.734966    7.208199    1.069736
     81          1           0       -9.275587    5.845545   -1.287874
     82          1           0       -9.491106    7.580819   -0.506563
     83          1           0      -12.950999    3.431486    0.070059
     84          1           0      -11.854202    3.735172   -1.534221
     85          1           0      -13.179621    2.475464   -1.564845
     86          1           0      -12.690960   -1.115308   -0.673593
     87          1           0      -13.557790    0.517066   -1.397967
     88          1           0      -12.331904    0.223593   -3.731278
     89          1           0      -11.906239   -1.558976   -3.158613
     90          1           0      -13.702052   -1.066893   -3.231109
     91          1           0      -10.022710   -4.774501   -0.188363
     92          1           0       -9.999378   -4.397501   -1.946370
     93          1           0       -8.684544   -5.415634   -1.132166
     94          1           0       -4.047430   -3.460470   -0.292244
     95          1           0       -2.067709   -6.286190    2.399292
     96          1           0       -1.844658   -4.498287    3.128258
     97          1           0       -3.113483   -5.531705    3.633306
     98          1           0        2.891684   -2.023843   -1.629038
     99          1           0        2.561267   -0.405756   -2.569543
    100          1           0        4.074031   -0.947989    0.072040
    101          1           0        5.284313    1.646341   -2.787670
    102          1           0        5.588168    0.165130   -3.431703
    103          1           0        3.980569    0.778585   -3.123204
    104          1           0        6.539391    1.577513   -0.449657
    105          1           0        6.004334   -0.130701    0.375829
    106          1           0        7.207862   -1.373897   -1.280030
    107          1           0        7.616615    0.037995   -2.277713
    108          1           0        9.032544    0.863407   -0.073002
    109          1           0        8.737582   -0.729360    0.714662
    110          1           0       10.153721   -0.440538   -1.905977
    111          1           0        9.320801   -2.846435   -0.985073
    112          1           0       11.071640   -2.665600   -1.018316
    113          1           0        9.971142   -2.455891    0.402095
    114          1           0       11.498072    1.124360   -0.151285
    115          1           0       10.869776   -0.266090    1.121730
    116          1           0       12.564216   -1.652673   -0.138843
    117          1           0       12.786029   -0.160583   -1.502017
    118          1           0       13.752718    1.265720    0.361895
    119          1           0       13.750116   -0.255260    1.459143
    120          1           0       15.305355    0.114721   -1.230419
    121          1           0       14.935879   -2.574080   -0.448443
    122          1           0       16.588570   -2.082941   -0.455155
    123          1           0       15.767162   -2.062434    1.140463
    124          1           0       15.928714    1.857260    0.126119
    125          1           0       16.070453    0.795510    1.676384
    126          1           0       18.005823   -0.471802    0.359602
    127          1           0       17.899296    0.478405   -1.256847
    128          1           0       18.210064    2.695552    0.300667
    129          1           0       18.536730    1.861131    1.798528
    130          1           0       20.443106    0.460778    0.215204
    131          1           0       20.117605    2.858614   -1.608912
    132          1           0       21.361498    2.117616   -1.632860
    133          1           0       19.940250    0.938411   -2.173220
    134          1           0       20.954453    1.920537    2.168019
    135          1           0       22.135284    2.382612    0.737886
    136          1           0       20.702852    3.333468    1.169678
    137          1           0       -7.051693    1.679824    0.460925
    138          1           0       -7.479881   -0.288146   -0.033303
 ---------------------------------------------------------------------

 SCF Done:  E(RB3LYP) =  -2732.95982615     A.U. after   17 cycles

 Excitation energies and oscillator strengths:

 Excited State   1:      Singlet-A      1.9900 eV  623.04 nm  f=0.1794  <S**2>=0.000
     235 -> 238       -0.26760
     236 -> 237        0.64470
 This state for optimization and/or second-order correction.
 Total Energy, E(TD-HF/TD-KS) =  -2732.88669581
 Copying the excited state density for this state as the 1-particle RhoCI density.

 The electronic state is 1-A.
 Alpha  occ. eigenvalues --  -19.18446 -19.17070 -19.11908 -19.11845 -19.11448
 Alpha  occ. eigenvalues --  -14.37275 -14.36544 -14.32704 -14.30402 -10.31612
 Alpha  occ. eigenvalues --  -10.31136 -10.27579 -10.25643 -10.25263 -10.24283
 Alpha  occ. eigenvalues --  -10.23914 -10.23608 -10.23405 -10.23363 -10.22768
 Alpha  occ. eigenvalues --  -10.22159 -10.21970 -10.21772 -10.21770 -10.21635
 Alpha  occ. eigenvalues --  -10.21359 -10.21227 -10.21158 -10.21040 -10.20881
 Alpha  occ. eigenvalues --  -10.20765 -10.20611 -10.20550 -10.20546 -10.20533
 Alpha  occ. eigenvalues --  -10.20320 -10.20314 -10.20284 -10.20227 -10.19992
 Alpha  occ. eigenvalues --  -10.19894 -10.19876 -10.19816 -10.19786 -10.19716
 Alpha  occ. eigenvalues --  -10.19658 -10.19620 -10.19587 -10.19583 -10.19549
 Alpha  occ. eigenvalues --  -10.19430 -10.19331 -10.19316 -10.19250 -10.19190
 Alpha  occ. eigenvalues --  -10.19132 -10.18796 -10.18748 -10.18428 -10.17971
 Alpha  occ. eigenvalues --  -10.17710 -10.17679 -10.16921 -10.16879  -1.10704
 Alpha  occ. eigenvalues --   -1.10030  -1.01159  -1.00809  -1.00118  -0.99247
 Alpha  occ. eigenvalues --   -0.97335  -0.92903  -0.91784  -0.84951  -0.83374
 Alpha  occ. eigenvalues --   -0.82324  -0.81623  -0.81133  -0.80878  -0.80501
 Alpha  occ. eigenvalues --   -0.80409  -0.79687  -0.79120  -0.79026  -0.78052
 Alpha  occ. eigenvalues --   -0.76724  -0.76042  -0.75565  -0.74679  -0.74463
 Alpha  occ. eigenvalues --   -0.73612  -0.73348  -0.72260  -0.70989  -0.70848
 Alpha  occ. eigenvalues --   -0.69897  -0.69630  -0.68918  -0.68500  -0.67238
 Alpha  occ. eigenvalues --   -0.66936  -0.66795  -0.65973  -0.65929  -0.64964
 Alpha  occ. eigenvalues --   -0.64171  -0.63270  -0.62063  -0.61514  -0.61061
 Alpha  occ. eigenvalues --   -0.60230  -0.59085  -0.58603  -0.58257  -0.57263
 Alpha  occ. eigenvalues --   -0.56721  -0.56179  -0.55943  -0.55855  -0.55459
 Alpha  occ. eigenvalues --   -0.55128  -0.54597  -0.54195  -0.53765  -0.52948
 Alpha  occ. eigenvalues --   -0.52919  -0.52472  -0.52094  -0.51025  -0.50628
 Alpha  occ. eigenvalues --   -0.49801  -0.49175  -0.48887  -0.48783  -0.48414
 Alpha  occ. eigenvalues --   -0.48210  -0.47905  -0.47777  -0.47128  -0.46833
 Alpha  occ. eigenvalues --   -0.46705  -0.46459  -0.46200  -0.45699  -0.45479
 Alpha  occ. eigenvalues --   -0.45150  -0.44888  -0.44750  -0.44499  -0.44204
 Alpha  occ. eigenvalues --   -0.43922  -0.43851  -0.43672  -0.43543  -0.43408
 Alpha  occ. eigenvalues --   -0.43254  -0.43181  -0.42631  -0.42595  -0.42373
 Alpha  occ. eigenvalues --   -0.41940  -0.41845  -0.41451  -0.41380  -0.41242
 Alpha  occ. eigenvalues --   -0.40846  -0.40562  -0.40522  -0.40154  -0.39951
 Alpha  occ. eigenvalues --   -0.39903  -0.39770  -0.39667  -0.39562  -0.38942
 Alpha  occ. eigenvalues --   -0.38863  -0.38751  -0.38685  -0.38579  -0.38380
 Alpha  occ. eigenvalues --   -0.38256  -0.38075  -0.37888  -0.37712  -0.37454
 Alpha  occ. eigenvalues --   -0.37292  -0.37217  -0.37030  -0.36991  -0.36614
 Alpha  occ. eigenvalues --   -0.36534  -0.36340  -0.36170  -0.35944  -0.35899
 Alpha  occ. eigenvalues --   -0.35698  -0.35575  -0.35251  -0.35100  -0.34872
 Alpha  occ. eigenvalues --   -0.34638  -0.34591  -0.34151  -0.33589  -0.33370
 Alpha  occ. eigenvalues --   -0.33072  -0.32910  -0.32886  -0.32470  -0.32437
 Alpha  occ. eigenvalues --   -0.32157  -0.31787  -0.31707  -0.31502  -0.31040
 Alpha  occ. eigenvalues --   -0.30739  -0.30529  -0.30405  -0.29945  -0.29895
 Alpha  occ. eigenvalues --   -0.29205  -0.28733  -0.28490  -0.27773  -0.27701
 Alpha  occ. eigenvalues --   -0.27248  -0.27165  -0.26843  -0.26253  -0.25512
 Alpha  occ. eigenvalues --   -0.24533  -0.24488  -0.23136  -0.22430  -0.20044
 Alpha  occ. eigenvalues --   -0.18873
 Alpha virt. eigenvalues --   -0.10447  -0.07961  -0.04677  -0.02522  -0.00344
 Alpha virt. eigenvalues --    0.00273   0.00534   0.01170   0.01783   0.03024
 Alpha virt. eigenvalues --    0.03263   0.03334   0.03750   0.04195   0.04466

 Mulliken charges:
               1
     1  C   -0.066135
     2  C   -0.020315
     3  C   -0.144686
     4  C   -0.099447
     5  N   -0.237060
     6  C   -0.033055
     7  C   -0.038071
     8  C   -0.063688
     9  C    0.004705
    10  C    0.154044
    11  C    0.058283
    12  C    0.079267
    13  C    0.147410
    14  O   -0.207468
    15  O   -0.312216
    16  N   -0.140068
    17  C    0.147104
    18  C   -0.097378
    19  C    0.017191
    20  C    0.127887
    21  C   -0.030186
    22  C   -0.094078
    23  C   -0.034510
    24  N   -0.260239
    25  C    0.069241
    26  C   -0.141234
    27  C   -0.034893
    28  C    0.119317
    29  C    0.009299
    30  C    0.010143
    31  C   -0.087790
    32  N    0.000072
    33  C    0.046621
    34  C   -0.122395
    35  C    0.015063
    36  C    0.015202
    37  C    0.021073
    38  C    0.005882
    39  O   -0.196907
    40  C    0.174319
    41  C    0.216472
    42  O   -0.256611
    43  O   -0.261619
    44  C    0.187001
    45  C    0.226272
    46  C   -0.021669
    47  C   -0.135028
    48  C    0.194601
    49  C    0.021928
    50  C    0.077720
    51  C    0.050632
    52  C   -0.152260
    53  C    0.090728
    54  C   -0.053856
    55  C    0.052647
    56  C   -0.042788
    57  C   -0.006118
    58  C   -0.038037
    59  C   -0.017998
    60  C   -0.023322
    61  C    0.039967
    62  C   -0.044119
    63  C   -0.035483
    64  C    0.003925
    65  H   -0.070880
    66  H    0.038239
    67  H    0.012134
    68  H    0.034387
    69  H    0.009014
    70  H   -0.013193
    71  H   -0.061219
    72  H    0.036132
    73  H    0.004763
    74  H    0.030761
    75  H    0.021725
    76  H   -0.026620
    77  H    0.061723
    78  H    0.038756
    79  H    0.047254
    80  H    0.027093
    81  H    0.041856
    82  H    0.029315
    83  H    0.052540
    84  H    0.036092
    85  H    0.016099
    86  H    0.035045
    87  H    0.015840
    88  H    0.045152
    89  H    0.023487
    90  H    0.031954
    91  H    0.040600
    92  H    0.051532
    93  H    0.040566
    94  H   -0.023717
    95  H    0.039243
    96  H    0.036858
    97  H    0.029161
    98  H    0.021384
    99  H    0.056424
   100  H   -0.098791
   101  H   -0.033834
   102  H    0.016527
   103  H   -0.041076
   104  H    0.032160
   105  H   -0.003212
   106  H   -0.030731
   107  H    0.015742
   108  H   -0.002376
   109  H   -0.010059
   110  H   -0.014487
   111  H   -0.010092
   112  H    0.022241
   113  H   -0.033061
   114  H    0.017200
   115  H    0.006604
   116  H    0.019478
   117  H    0.025023
   118  H   -0.014267
   119  H    0.001604
   120  H   -0.015466
   121  H    0.026001
   122  H    0.008156
   123  H    0.021235
   124  H    0.010443
   125  H    0.027590
   126  H    0.020765
   127  H    0.031468
   128  H   -0.022667
   129  H   -0.004771
   130  H    0.013504
   131  H   -0.017162
   132  H   -0.005294
   133  H    0.021091
   134  H    0.021653
   135  H    0.021764
   136  H   -0.014695
   137  H    0.207101
   138  H    0.141904
 Sum of Mulliken charges =   0.00000

 Dipole moment (field-independent basis, Debye):
    X=              3.1310    Y=              3.5755    Z=              1.0515  Tot=              4.8675
 Quadrupole moment (field-independent basis, Debye-Ang):
   XX=           -361.7861   YY=           -381.0399   ZZ=           -395.8138
   XY=            -19.2340   XZ=              3.5857   YZ=             -2.3637

 Normal termination of Gaussian 09 at Sun Aug  4 02:15:43 2019.
