 Gaussian 09, Revision D.01,
 Gaussian 09:  ES64L-G09RevD.01 24-Apr-2013

 --------------------------
 # td=(NStates=1) B3LYP/SVP
 --------------------------

 --
 TD
 --
 Symbolic Z-matrix:
 Charge =  0 Multiplicity = 1

                         Standard orientation:
 ---------------------------------------------------------------------
 Center     Atomic      Atomic             Coordinates (Angstroms)
 Number     Number       Type             X           Y           Z
 ---------------------------------------------------------------------
      1          6           0       -5.285113   -1.901651    0.554151
      2          6           0       -4.764206    2.712224    1.566528
      3          6           0       -9.194851    3.487789   -0.363240
      4          6           0       -9.865199   -1.200605   -0.979862
      5          7           0       -5.184676    0.566185    0.848468
      6          6           0       -4.690351   -0.679168    0.871257
      7          6           0       -3.147308   -0.642797    1.334652
      8          6           0       -3.056737    0.747894    1.978143
      9          6           0       -4.365865    1.350714    1.406103
     10          6           0       -3.114353    0.736846    3.539835
     11          6           0       -2.074157   -1.030211    0.179784
     12          6           0       -0.645679   -1.089423    0.612474
     13          6           0        0.308882   -1.091196   -0.562433
     14          8           0       -0.032508   -1.408807   -1.730052
     15          8           0        1.676945   -1.069968   -0.116700
     16          7           0       -6.917192    2.820675    0.390991
     17          6           0       -5.861904    3.455049    1.009212
     18          6           0       -6.038337    4.838695    1.103534
     19          6           0       -7.390153    5.049055    0.577937
     20          6           0       -7.891129    3.735344    0.081129
     21          6           0       -5.201996    5.779481    1.777215
     22          6           0       -8.110413    6.239440    0.563839
     23          6           0       -8.962290    6.750946   -0.373456
     24          7           0       -9.106273    1.066334   -0.712473
     25          6           0       -9.803430    2.277056   -0.631187
     26          6           0      -11.138812    2.157776   -1.207270
     27          6           0      -11.369882    0.821255   -1.377334
     28          6           0      -10.103541    0.155356   -0.931825
     29          6           0      -12.020722    3.241689   -1.385399
     30          6           0      -12.495392   -0.084387   -1.863080
     31          6           0      -12.695800   -0.295690   -3.271405
     32          7           0       -7.599591   -1.222522   -0.248372
     33          6           0       -8.657456   -1.868565   -0.663351
     34          6           0       -8.335135   -3.317605   -0.641552
     35          6           0       -6.979767   -3.308334   -0.234524
     36          6           0       -6.515091   -2.006953    0.015691
     37          6           0       -9.224192   -4.369309   -1.003470
     38          6           0       -5.814484   -4.270051    0.062865
     39          8           0       -5.867807   -5.467320   -0.188939
     40          6           0       -4.684246   -3.315542    0.488243
     41          6           0       -4.092513   -3.924881    1.779457
     42          8           0       -4.366611   -3.475976    2.892724
     43          8           0       -3.385571   -4.946824    1.660503
     44          6           0       -2.787635   -5.697643    2.628322
     45          6           0        2.698472   -1.327142   -1.160413
     46          6           0        3.978630   -0.953413   -0.475933
     47          6           0        4.982232   -0.207040   -0.926821
     48          6           0        5.017407    0.435595   -2.314349
     49          6           0        6.365961   -0.065440   -0.236139
     50          6           0        7.545935   -0.719502   -0.907896
     51          6           0        8.930473   -0.583400   -0.137739
     52          6           0       10.229373   -1.026920   -0.768684
     53          6           0       10.222635   -2.560391   -1.061969
     54          6           0       11.348377   -0.543437    0.017521
     55          6           0       12.743382   -0.581913   -0.685392
     56          6           0       13.887434    0.023656    0.076840
     57          6           0       15.283996   -0.179200   -0.546768
     58          6           0       15.740103   -1.548752   -0.802963
     59          6           0       16.284719    0.616857    0.461848
     60          6           0       17.677054    1.027596   -0.223667
     61          6           0       18.603985    1.787307    0.640376
     62          6           0       20.094801    2.000555    0.090171
     63          6           0       20.047601    2.701005   -1.288308
     64          6           0       20.943641    2.774988    1.160575
     65          1           0       -4.283420    3.380862    2.132041
     66          1           0       -9.605117    4.481810   -0.563896
     67          1           0      -10.622171   -1.762422   -1.465610
     68          1           0       -3.023415   -1.404638    2.198926
     69          1           0       -2.115026    1.507746    1.722989
     70          1           0       -2.156758    0.475885    3.878984
     71          1           0       -3.424224    1.629795    3.897669
     72          1           0       -4.004920    0.131502    4.060699
     73          1           0       -2.620330   -1.967330   -0.149548
     74          1           0       -2.074788   -0.264505   -0.448806
     75          1           0       -0.129743   -0.278266    1.173755
     76          1           0       -0.289565   -1.984532    1.043668
     77          1           0       -4.209533    5.634841    1.149680
     78          1           0       -5.540232    6.722975    1.771862
     79          1           0       -5.225032    5.332510    2.834888
     80          1           0       -7.722861    6.988743    1.334231
     81          1           0       -9.076158    6.263279   -1.434482
     82          1           0       -9.410064    7.836002   -0.397288
     83          1           0      -12.361802    3.641060   -0.334839
     84          1           0      -11.504389    4.076344   -1.964422
     85          1           0      -13.043770    2.937478   -1.930579
     86          1           0      -12.628991   -1.005509   -1.172532
     87          1           0      -13.446819    0.389104   -1.665379
     88          1           0      -12.461259    0.676552   -3.632233
     89          1           0      -11.935742   -0.956466   -3.746830
     90          1           0      -13.676018   -0.757383   -3.551636
     91          1           0       -9.961293   -4.769279   -0.183214
     92          1           0       -9.640828   -4.219802   -1.990812
     93          1           0       -8.500938   -5.329413   -1.133312
     94          1           0       -3.899558   -3.409804   -0.310173
     95          1           0       -2.095928   -6.421661    2.020534
     96          1           0       -1.843109   -5.199931    3.250551
     97          1           0       -3.458763   -6.363598    3.434171
     98          1           0        2.665369   -2.584896   -1.285118
     99          1           0        2.518949   -0.886823   -2.136007
    100          1           0        3.917561   -1.597929    0.447888
    101          1           0        5.400751    1.486280   -2.001480
    102          1           0        5.620178   -0.117879   -2.939355
    103          1           0        4.119221    0.393629   -2.666945
    104          1           0        6.605379    1.013793    0.097973
    105          1           0        6.049868   -0.523536    0.766201
    106          1           0        7.383868   -1.925402   -0.922041
    107          1           0        7.803158   -0.558595   -1.895403
    108          1           0        9.140734    0.453683    0.093188
    109          1           0        8.861203   -1.006753    0.868023
    110          1           0       10.263875   -0.440347   -1.751701
    111          1           0        9.437513   -2.795561   -1.819320
    112          1           0       11.216545   -2.847234   -1.366805
    113          1           0       10.035634   -3.110726   -0.157946
    114          1           0       11.398660    0.615932    0.313866
    115          1           0       11.338042   -1.011880    0.969892
    116          1           0       12.926554   -1.655865   -0.869196
    117          1           0       12.375800   -0.004077   -1.651722
    118          1           0       13.829264    0.972168    0.188645
    119          1           0       13.988318   -0.460247    1.106883
    120          1           0       15.460162    0.297436   -1.489879
    121          1           0       14.951235   -1.831971   -1.650892
    122          1           0       16.882929   -1.558779   -1.154721
    123          1           0       15.789771   -2.234261    0.245160
    124          1           0       15.605254    1.402021    0.781385
    125          1           0       16.441356    0.046221    1.506894
    126          1           0       18.203270   -0.018139   -0.428531
    127          1           0       17.566425    1.574999   -1.073701
    128          1           0       18.098024    2.731205    1.155231
    129          1           0       18.808125    1.302136    1.577191
    130          1           0       20.450185    0.957037    0.058077
    131          1           0       19.408964    3.667518   -1.018994
    132          1           0       21.027940    3.182922   -1.697887
    133          1           0       19.686777    1.891211   -2.025642
    134          1           0       20.912298    2.312280    2.093180
    135          1           0       21.997001    2.633206    0.777944
    136          1           0       20.557141    3.759053    1.380837
    137          1           0       -7.112640    1.797021    0.301039
    138          1           0       -7.521288   -0.075989    0.046475
 ---------------------------------------------------------------------

 SCF Done:  E(RB3LYP) =  -2733.02684984     A.U. after   18 cycles

 Excitation energies and oscillator strengths:

 Excited State   1:      Singlet-A      2.0098 eV  616.90 nm  f=0.1905  <S**2>=0.000
     235 -> 238        0.29945
     236 -> 237        0.63263
 This state for optimization and/or second-order correction.
 Total Energy, E(TD-HF/TD-KS) =  -2732.95299111
 Copying the excited state density for this state as the 1-particle RhoCI density.

 The electronic state is 1-A.
 Alpha  occ. eigenvalues --  -19.20249 -19.17588 -19.13010 -19.12975 -19.11030
 Alpha  occ. eigenvalues --  -14.37059 -14.36443 -14.32514 -14.29938 -10.32225
 Alpha  occ. eigenvalues --  -10.32129 -10.28680 -10.28507 -10.26082 -10.23330
 Alpha  occ. eigenvalues --  -10.23313 -10.23290 -10.23173 -10.23064 -10.22720
 Alpha  occ. eigenvalues --  -10.22024 -10.21608 -10.21175 -10.21077 -10.20949
 Alpha  occ. eigenvalues --  -10.20938 -10.20925 -10.20745 -10.20622 -10.20597
 Alpha  occ. eigenvalues --  -10.20485 -10.20446 -10.20413 -10.20330 -10.20272
 Alpha  occ. eigenvalues --  -10.20142 -10.20097 -10.19953 -10.19761 -10.19734
 Alpha  occ. eigenvalues --  -10.19716 -10.19472 -10.19071 -10.19044 -10.18953
 Alpha  occ. eigenvalues --  -10.18953 -10.18951 -10.18918 -10.18901 -10.18623
 Alpha  occ. eigenvalues --  -10.18562 -10.18509 -10.18404 -10.18341 -10.18293
 Alpha  occ. eigenvalues --  -10.18272 -10.18133 -10.17990 -10.17937 -10.17723
 Alpha  occ. eigenvalues --  -10.17720 -10.17716 -10.17501 -10.17447  -1.14864
 Alpha  occ. eigenvalues --   -1.05682  -1.02613  -0.99866  -0.99018  -0.98556
 Alpha  occ. eigenvalues --   -0.97574  -0.96686  -0.92540  -0.85976  -0.82936
 Alpha  occ. eigenvalues --   -0.82540  -0.82070  -0.81293  -0.81008  -0.80917
 Alpha  occ. eigenvalues --   -0.80220  -0.79571  -0.79540  -0.79189  -0.78357
 Alpha  occ. eigenvalues --   -0.77759  -0.76673  -0.76185  -0.75823  -0.74712
 Alpha  occ. eigenvalues --   -0.74496  -0.73278  -0.72700  -0.72171  -0.71325
 Alpha  occ. eigenvalues --   -0.70747  -0.70169  -0.68872  -0.68378  -0.67974
 Alpha  occ. eigenvalues --   -0.67599  -0.67174  -0.66080  -0.65516  -0.65175
 Alpha  occ. eigenvalues --   -0.64161  -0.63727  -0.62039  -0.61415  -0.61184
 Alpha  occ. eigenvalues --   -0.60748  -0.59217  -0.58228  -0.57539  -0.57032
 Alpha  occ. eigenvalues --   -0.56862  -0.56756  -0.55828  -0.55550  -0.55329
 Alpha  occ. eigenvalues --   -0.54726  -0.54625  -0.53837  -0.53067  -0.52651
 Alpha  occ. eigenvalues --   -0.52499  -0.52109  -0.51918  -0.51290  -0.50444
 Alpha  occ. eigenvalues --   -0.49896  -0.49643  -0.49487  -0.49044  -0.48768
 Alpha  occ. eigenvalues --   -0.48593  -0.47696  -0.47558  -0.46886  -0.46754
 Alpha  occ. eigenvalues --   -0.46641  -0.46125  -0.45981  -0.45819  -0.45638
 Alpha  occ. eigenvalues --   -0.45359  -0.45120  -0.45038  -0.44733  -0.44654
 Alpha  occ. eigenvalues --   -0.44501  -0.44320  -0.44289  -0.44202  -0.44074
 Alpha  occ. eigenvalues --   -0.43479  -0.43276  -0.43167  -0.42742  -0.42676
 Alpha  occ. eigenvalues --   -0.42572  -0.42489  -0.42271  -0.41969  -0.41761
 Alpha  occ. eigenvalues --   -0.41736  -0.41343  -0.41299  -0.41156  -0.40854
 Alpha  occ. eigenvalues --   -0.40803  -0.40347  -0.40220  -0.40082  -0.39879
 Alpha  occ. eigenvalues --   -0.39724  -0.39611  -0.39209  -0.38881  -0.38716
 Alpha  occ. eigenvalues --   -0.38562  -0.38388  -0.38057  -0.37815  -0.37646
 Alpha  occ. eigenvalues --   -0.37618  -0.37447  -0.37261  -0.36932  -0.36721
 Alpha  occ. eigenvalues --   -0.36604  -0.36333  -0.36136  -0.36059  -0.36016
 Alpha  occ. eigenvalues --   -0.35602  -0.35535  -0.34865  -0.34281  -0.34105
 Alpha  occ. eigenvalues --   -0.34074  -0.33998  -0.33760  -0.33588  -0.33302
 Alpha  occ. eigenvalues --   -0.33068  -0.32836  -0.32453  -0.32362  -0.32150
 Alpha  occ. eigenvalues --   -0.31630  -0.31504  -0.31338  -0.31318  -0.31114
 Alpha  occ. eigenvalues --   -0.30956  -0.30726  -0.30568  -0.30433  -0.30235
 Alpha  occ. eigenvalues --   -0.29804  -0.29267  -0.28291  -0.28021  -0.27896
 Alpha  occ. eigenvalues --   -0.27454  -0.27001  -0.26688  -0.26094  -0.25418
 Alpha  occ. eigenvalues --   -0.25240  -0.24905  -0.22846  -0.22468  -0.19378
 Alpha  occ. eigenvalues --   -0.18632
 Alpha virt. eigenvalues --   -0.10211  -0.07416  -0.04761  -0.02588  -0.01692
 Alpha virt. eigenvalues --   -0.00187   0.00033   0.00902   0.02226   0.03757
 Alpha virt. eigenvalues --    0.03907   0.04183   0.04425   0.04455   0.04865

 Mulliken charges:
               1
     1  C    0.030934
     2  C   -0.012455
     3  C   -0.071517
     4  C   -0.093088
     5  N   -0.086431
     6  C   -0.093704
     7  C   -0.087422
     8  C   -0.104934
     9  C    0.000126
    10  C    0.105777
    11  C    0.196601
    12  C    0.070391
    13  C    0.181475
    14  O   -0.265940
    15  O   -0.385286
    16  N   -0.062762
    17  C    0.056016
    18  C   -0.131761
    19  C    0.042282
    20  C    0.020225
    21  C    0.123926
    22  C   -0.086709
    23  C   -0.103187
    24  N   -0.290739
    25  C    0.166872
    26  C   -0.135761
    27  C   -0.064405
    28  C    0.078280
    29  C    0.023586
    30  C    0.051387
    31  C    0.053666
    32  N   -0.074183
    33  C    0.060819
    34  C   -0.124118
    35  C   -0.032378
    36  C    0.074866
    37  C    0.013555
    38  C    0.091807
    39  O   -0.169314
    40  C   -0.054314
    41  C    0.146556
    42  O   -0.255738
    43  O   -0.155888
    44  C    0.066036
    45  C    0.202744
    46  C   -0.069644
    47  C   -0.172353
    48  C    0.196580
    49  C    0.051849
    50  C    0.059792
    51  C    0.011399
    52  C   -0.049296
    53  C    0.073497
    54  C   -0.041629
    55  C    0.014514
    56  C    0.154375
    57  C   -0.088365
    58  C   -0.049958
    59  C   -0.018441
    60  C    0.084099
    61  C   -0.011916
    62  C   -0.117254
    63  C   -0.026310
    64  C    0.074362
    65  H   -0.104595
    66  H   -0.050502
    67  H   -0.032030
    68  H    0.031640
    69  H    0.025519
    70  H    0.010343
    71  H   -0.030350
    72  H    0.034433
    73  H    0.018374
    74  H   -0.032381
    75  H    0.031764
    76  H    0.018238
    77  H    0.057219
    78  H   -0.020394
    79  H    0.057619
    80  H    0.011802
    81  H    0.055090
    82  H    0.049219
    83  H    0.044232
    84  H    0.035152
    85  H    0.028189
    86  H    0.012185
    87  H   -0.026822
    88  H   -0.000021
    89  H   -0.007795
    90  H    0.022072
    91  H    0.056521
    92  H    0.031980
    93  H    0.046587
    94  H    0.082057
    95  H    0.043116
    96  H    0.044996
    97  H    0.080006
    98  H    0.038394
    99  H    0.030858
   100  H    0.003227
   101  H    0.031356
   102  H    0.013344
   103  H   -0.061682
   104  H    0.017868
   105  H    0.002949
   106  H    0.007688
   107  H   -0.021367
   108  H   -0.027184
   109  H   -0.021716
   110  H   -0.017238
   111  H    0.020335
   112  H   -0.000928
   113  H   -0.004715
   114  H   -0.001130
   115  H   -0.027107
   116  H    0.005283
   117  H    0.005514
   118  H   -0.064607
   119  H   -0.001012
   120  H   -0.020921
   121  H    0.039366
   122  H    0.028064
   123  H    0.017818
   124  H   -0.021517
   125  H    0.002733
   126  H    0.009606
   127  H   -0.016786
   128  H   -0.010443
   129  H   -0.032417
   130  H   -0.005223
   131  H    0.027444
   132  H    0.019802
   133  H    0.041344
   134  H   -0.020495
   135  H    0.017960
   136  H    0.004020
   137  H    0.147872
   138  H    0.228990
 Sum of Mulliken charges =   0.00000

 Dipole moment (field-independent basis, Debye):
    X=              2.8941    Y=              3.3302    Z=              1.2652  Tot=              4.5899
 Quadrupole moment (field-independent basis, Debye-Ang):
   XX=           -362.7258   YY=           -378.1140   ZZ=           -397.3436
   XY=            -23.2187   XZ=              7.4380   YZ=             -0.7045

 Normal termination of Gaussian 09 at Sat Aug  3 03:05:27 2019.
