 Gaussian 09, Revision D.01,
 Gaussian 09:  ES64L-G09RevD.01 24-Apr-2013

 --------------------------
 # td=(NStates=1) B3LYP/SVP
 --------------------------

 --
 TD
 --
 Symbolic Z-matrix:
 Charge =  0 Multiplicity = 1

                         Standard orientation:
 ---------------------------------------------------------------------
 Center     Atomic      Atomic             Coordinates (Angstroms)
 Number     Number       Type             X           Y           Z
 ---------------------------------------------------------------------
      1          6           0       -5.154865   -1.920559    0.503609
      2          6           0       -4.835606    2.817320    1.351969
      3          6           0       -9.351816    3.170263   -0.230034
      4          6           0       -9.851070   -1.521858   -1.036302
      5          7           0       -5.176107    0.491244    0.832231
      6          6           0       -4.514345   -0.651501    0.887345
      7          6           0       -3.078424   -0.465504    1.246897
      8          6           0       -3.036449    0.942256    1.819427
      9          6           0       -4.445806    1.495600    1.313260
     10          6           0       -3.035754    1.084434    3.371987
     11          6           0       -2.079465   -0.690001    0.052445
     12          6           0       -0.621131   -0.714624    0.562558
     13          6           0        0.360967   -0.982957   -0.536008
     14          8           0        0.102355   -1.157187   -1.766867
     15          8           0        1.644732   -0.853242   -0.101512
     16          7           0       -7.074112    2.728518    0.524054
     17          6           0       -6.029912    3.323652    1.062680
     18          6           0       -6.386766    4.762616    1.102423
     19          6           0       -7.675096    4.880066    0.535960
     20          6           0       -8.155663    3.552278    0.275641
     21          6           0       -5.470753    5.812373    1.448670
     22          6           0       -8.271392    6.231239    0.252507
     23          6           0       -9.339306    6.496619   -0.647234
     24          7           0       -9.274537    0.763886   -0.399877
     25          6           0       -9.962355    1.964865   -0.631877
     26          6           0      -11.314329    1.781320   -1.055585
     27          6           0      -11.481735    0.380134   -1.224486
     28          6           0      -10.127485   -0.165669   -0.917516
     29          6           0      -12.403195    2.736872   -1.089603
     30          6           0      -12.670030   -0.304708   -1.751200
     31          6           0      -12.580675   -0.639839   -3.198178
     32          7           0       -7.530695   -1.355943   -0.206510
     33          6           0       -8.601511   -2.137579   -0.718989
     34          6           0       -8.103708   -3.441180   -0.694062
     35          6           0       -6.775459   -3.423671   -0.187120
     36          6           0       -6.375234   -2.119513    0.038737
     37          6           0       -8.927301   -4.613838   -0.900213
     38          6           0       -5.594344   -4.254772    0.161712
     39          8           0       -5.456069   -5.402690   -0.015202
     40          6           0       -4.492659   -3.278920    0.539034
     41          6           0       -3.850004   -3.713964    1.796849
     42          8           0       -4.054711   -3.283510    2.972022
     43          8           0       -2.917712   -4.659928    1.545498
     44          6           0       -2.319963   -5.264501    2.718648
     45          6           0        2.737004   -1.108002   -1.112332
     46          6           0        3.952425   -0.715197   -0.581190
     47          6           0        4.962317    0.145456   -0.992115
     48          6           0        4.785882    0.849050   -2.394938
     49          6           0        6.224932    0.290194   -0.293703
     50          6           0        7.442941   -0.371734   -0.976515
     51          6           0        8.731032   -0.113700   -0.205353
     52          6           0       10.038087   -0.723997   -0.786285
     53          6           0       10.052245   -2.269066   -1.079019
     54          6           0       11.317494   -0.236970    0.009267
     55          6           0       12.651772   -0.521392   -0.633896
     56          6           0       13.842601    0.091850    0.173926
     57          6           0       15.299716   -0.242182   -0.420449
     58          6           0       15.593033   -1.771587   -0.429012
     59          6           0       16.324638    0.469771    0.470377
     60          6           0       17.784197    0.664657   -0.164502
     61          6           0       18.688836    1.712179    0.521235
     62          6           0       20.113121    1.680416    0.143162
     63          6           0       20.397608    2.160528   -1.302183
     64          6           0       21.039116    2.387252    1.135729
     65          1           0       -4.036779    3.470199    1.984290
     66          1           0      -10.119531    4.026837   -0.227583
     67          1           0      -10.691053   -2.225648   -1.336368
     68          1           0       -2.707430   -1.231515    2.159860
     69          1           0       -2.152743    1.461643    1.344620
     70          1           0       -2.179579    0.601145    3.510459
     71          1           0       -2.958703    2.207176    3.602236
     72          1           0       -3.657518    0.597283    3.843566
     73          1           0       -2.195235   -1.436140   -0.560253
     74          1           0       -2.339271    0.207845   -0.711451
     75          1           0       -0.273888    0.298732    0.948779
     76          1           0       -0.393049   -1.402605    1.327682
     77          1           0       -4.638495    5.842646    0.680672
     78          1           0       -5.898763    6.860503    1.606621
     79          1           0       -4.819396    5.770717    2.412583
     80          1           0       -8.036067    6.858255    0.998903
     81          1           0       -9.472112    5.820909   -1.440154
     82          1           0       -9.519369    7.614163   -0.832068
     83          1           0      -12.228258    3.449731   -0.155250
     84          1           0      -12.051242    3.515692   -1.945186
     85          1           0      -13.325739    2.373301   -1.179112
     86          1           0      -12.771150   -1.257147   -1.100322
     87          1           0      -13.489945    0.252909   -1.558707
     88          1           0      -12.501393    0.184643   -3.842251
     89          1           0      -11.556031   -1.142785   -3.358094
     90          1           0      -13.344553   -1.223427   -3.433681
     91          1           0       -9.634948   -4.843588   -0.111902
     92          1           0       -9.410885   -4.552874   -1.816204
     93          1           0       -8.401682   -5.573996   -0.584692
     94          1           0       -3.808080   -3.573083   -0.320198
     95          1           0       -1.524604   -5.969939    2.160526
     96          1           0       -1.854910   -4.560667    3.419089
     97          1           0       -3.026921   -5.817607    3.227335
     98          1           0        2.680744   -2.228558   -1.287307
     99          1           0        2.449948   -0.477741   -2.103921
    100          1           0        4.355677   -1.126202    0.316749
    101          1           0        4.771631    2.099035   -2.194975
    102          1           0        5.420492    0.592491   -3.124014
    103          1           0        3.780958    0.500791   -2.901569
    104          1           0        6.321454    1.361178   -0.291453
    105          1           0        6.047633    0.088348    0.829828
    106          1           0        7.190020   -1.442159   -0.956330
    107          1           0        7.547676   -0.121802   -1.968529
    108          1           0        8.886297    1.038241   -0.376044
    109          1           0        8.623348   -0.595746    0.750118
    110          1           0       10.334413   -0.405818   -1.748478
    111          1           0        9.099134   -2.779326   -1.667147
    112          1           0       10.826108   -2.434721   -1.627720
    113          1           0       10.093345   -2.700993   -0.027042
    114          1           0       11.248180    0.930173    0.127887
    115          1           0       11.008324   -0.638307    1.156554
    116          1           0       12.890374   -1.640045   -0.789850
    117          1           0       12.730618    0.002840   -1.677622
    118          1           0       13.783945    1.216947    0.257642
    119          1           0       13.920585   -0.247151    1.147162
    120          1           0       15.227680    0.063460   -1.424654
    121          1           0       14.818619   -2.532734   -0.885234
    122          1           0       16.599707   -1.778079   -0.907004
    123          1           0       15.654913   -2.146120    0.464045
    124          1           0       15.932988    1.470510    0.403134
    125          1           0       16.216469   -0.076638    1.398656
    126          1           0       18.208065   -0.296987    0.006859
    127          1           0       17.511887    0.881875   -1.250726
    128          1           0       18.091331    2.628336    0.544200
    129          1           0       18.655952    1.390126    1.559091
    130          1           0       20.503644    0.648201    0.116694
    131          1           0       19.964857    3.154941   -1.462285
    132          1           0       21.366407    1.912207   -1.514888
    133          1           0       19.891929    1.423806   -2.031449
    134          1           0       20.891872    2.036561    2.244279
    135          1           0       22.154565    2.459616    0.868220
    136          1           0       20.420959    3.308682    1.224108
    137          1           0       -7.115135    1.689063    0.193753
    138          1           0       -7.707006   -0.398717   -0.262198
 ---------------------------------------------------------------------

 SCF Done:  E(RB3LYP) =  -2733.05358760     A.U. after   17 cycles

 Excitation energies and oscillator strengths:

 Excited State   1:      Singlet-A      2.0830 eV  595.22 nm  f=0.1501  <S**2>=0.000
     235 -> 238        0.32888
     236 -> 237        0.60903
 This state for optimization and/or second-order correction.
 Total Energy, E(TD-HF/TD-KS) =  -2732.97703869
 Copying the excited state density for this state as the 1-particle RhoCI density.

 The electronic state is 1-A.
 Alpha  occ. eigenvalues --  -19.18039 -19.17065 -19.11904 -19.11873 -19.11563
 Alpha  occ. eigenvalues --  -14.37036 -14.34716 -14.31963 -14.29866 -10.31713
 Alpha  occ. eigenvalues --  -10.31355 -10.27278 -10.25555 -10.24700 -10.23432
 Alpha  occ. eigenvalues --  -10.23389 -10.23274 -10.22706 -10.22591 -10.22148
 Alpha  occ. eigenvalues --  -10.21317 -10.21260 -10.21168 -10.21091 -10.21070
 Alpha  occ. eigenvalues --  -10.20976 -10.20886 -10.20806 -10.20594 -10.20577
 Alpha  occ. eigenvalues --  -10.20571 -10.20559 -10.20538 -10.20475 -10.20405
 Alpha  occ. eigenvalues --  -10.20165 -10.20156 -10.20124 -10.19885 -10.19796
 Alpha  occ. eigenvalues --  -10.19706 -10.19508 -10.19505 -10.19415 -10.18788
 Alpha  occ. eigenvalues --  -10.18768 -10.18657 -10.18626 -10.18614 -10.18528
 Alpha  occ. eigenvalues --  -10.18492 -10.18462 -10.18314 -10.18298 -10.18099
 Alpha  occ. eigenvalues --  -10.18058 -10.18040 -10.17971 -10.17927 -10.17881
 Alpha  occ. eigenvalues --  -10.17398 -10.17241 -10.17012 -10.16885  -1.08527
 Alpha  occ. eigenvalues --   -1.06671  -1.05177  -0.98962  -0.97773  -0.97020
 Alpha  occ. eigenvalues --   -0.96507  -0.95402  -0.92464  -0.86186  -0.83213
 Alpha  occ. eigenvalues --   -0.81954  -0.81921  -0.81285  -0.81268  -0.80941
 Alpha  occ. eigenvalues --   -0.80502  -0.80045  -0.79922  -0.79037  -0.78325
 Alpha  occ. eigenvalues --   -0.77297  -0.76513  -0.76139  -0.75038  -0.74961
 Alpha  occ. eigenvalues --   -0.73852  -0.73473  -0.72792  -0.71931  -0.70924
 Alpha  occ. eigenvalues --   -0.70443  -0.69644  -0.68933  -0.68446  -0.68052
 Alpha  occ. eigenvalues --   -0.67940  -0.67411  -0.66505  -0.65883  -0.65555
 Alpha  occ. eigenvalues --   -0.65096  -0.63710  -0.62813  -0.62286  -0.61698
 Alpha  occ. eigenvalues --   -0.61543  -0.59543  -0.58702  -0.57653  -0.57306
 Alpha  occ. eigenvalues --   -0.56904  -0.56386  -0.56329  -0.55683  -0.55246
 Alpha  occ. eigenvalues --   -0.55076  -0.54482  -0.54154  -0.53756  -0.53265
 Alpha  occ. eigenvalues --   -0.52548  -0.52327  -0.51768  -0.51007  -0.50712
 Alpha  occ. eigenvalues --   -0.49825  -0.49510  -0.49015  -0.48701  -0.48434
 Alpha  occ. eigenvalues --   -0.48279  -0.47665  -0.47564  -0.47475  -0.47325
 Alpha  occ. eigenvalues --   -0.47171  -0.46925  -0.46470  -0.46272  -0.46049
 Alpha  occ. eigenvalues --   -0.45580  -0.45301  -0.45106  -0.44953  -0.44702
 Alpha  occ. eigenvalues --   -0.44587  -0.44288  -0.44112  -0.44019  -0.43607
 Alpha  occ. eigenvalues --   -0.43545  -0.43428  -0.43311  -0.42947  -0.42635
 Alpha  occ. eigenvalues --   -0.42552  -0.42275  -0.42172  -0.42160  -0.41955
 Alpha  occ. eigenvalues --   -0.41513  -0.41393  -0.41107  -0.40927  -0.40883
 Alpha  occ. eigenvalues --   -0.40406  -0.40356  -0.39915  -0.39655  -0.39524
 Alpha  occ. eigenvalues --   -0.39419  -0.39021  -0.38932  -0.38887  -0.38607
 Alpha  occ. eigenvalues --   -0.38476  -0.38106  -0.38011  -0.37850  -0.37678
 Alpha  occ. eigenvalues --   -0.37569  -0.37149  -0.36987  -0.36818  -0.36568
 Alpha  occ. eigenvalues --   -0.36495  -0.36164  -0.36103  -0.35758  -0.35670
 Alpha  occ. eigenvalues --   -0.35600  -0.35446  -0.35233  -0.35122  -0.34883
 Alpha  occ. eigenvalues --   -0.34838  -0.34634  -0.34186  -0.34075  -0.33922
 Alpha  occ. eigenvalues --   -0.33526  -0.33509  -0.33260  -0.33049  -0.32922
 Alpha  occ. eigenvalues --   -0.32684  -0.32526  -0.32412  -0.31756  -0.31709
 Alpha  occ. eigenvalues --   -0.31265  -0.30615  -0.30236  -0.29986  -0.29686
 Alpha  occ. eigenvalues --   -0.29448  -0.29334  -0.28318  -0.28180  -0.27511
 Alpha  occ. eigenvalues --   -0.27233  -0.26977  -0.26439  -0.26397  -0.24893
 Alpha  occ. eigenvalues --   -0.24783  -0.24652  -0.23411  -0.21706  -0.19973
 Alpha  occ. eigenvalues --   -0.18656
 Alpha virt. eigenvalues --   -0.09833  -0.08079  -0.04545  -0.02569  -0.01716
 Alpha virt. eigenvalues --   -0.01117  -0.00381   0.00800   0.02262   0.03608
 Alpha virt. eigenvalues --    0.03812   0.04452   0.04577   0.04792   0.04881

 Mulliken charges:
               1
     1  C    0.044301
     2  C   -0.119190
     3  C   -0.125384
     4  C   -0.092722
     5  N   -0.121852
     6  C   -0.048721
     7  C   -0.131958
     8  C   -0.085364
     9  C   -0.049892
    10  C    0.260923
    11  C    0.114292
    12  C    0.066313
    13  C    0.185714
    14  O   -0.296303
    15  O   -0.350141
    16  N   -0.065287
    17  C    0.150980
    18  C   -0.102405
    19  C   -0.002522
    20  C    0.090919
    21  C    0.022322
    22  C   -0.009497
    23  C   -0.022078
    24  N   -0.274966
    25  C    0.082434
    26  C   -0.118871
    27  C   -0.146629
    28  C    0.095086
    29  C    0.113184
    30  C    0.107087
    31  C    0.107387
    32  N   -0.084848
    33  C    0.064163
    34  C   -0.144460
    35  C   -0.006209
    36  C    0.130207
    37  C    0.107975
    38  C   -0.001176
    39  O   -0.117001
    40  C   -0.019491
    41  C    0.208064
    42  O   -0.284720
    43  O   -0.304613
    44  C    0.194819
    45  C    0.284359
    46  C   -0.049191
    47  C   -0.209806
    48  C    0.021415
    49  C    0.107463
    50  C    0.070365
    51  C    0.075103
    52  C   -0.065492
    53  C    0.030006
    54  C   -0.045593
    55  C    0.021225
    56  C    0.025662
    57  C   -0.093287
    58  C    0.058563
    59  C    0.035015
    60  C    0.013552
    61  C    0.074395
    62  C   -0.090762
    63  C    0.072952
    64  C    0.001288
    65  H    0.013648
    66  H   -0.003614
    67  H    0.001050
    68  H    0.042696
    69  H    0.005029
    70  H   -0.038760
    71  H    0.022516
    72  H   -0.056957
    73  H   -0.037130
    74  H    0.022759
    75  H    0.043532
    76  H    0.017937
    77  H    0.036674
    78  H    0.024670
    79  H    0.026172
    80  H   -0.018516
    81  H    0.026249
    82  H    0.042415
    83  H    0.036468
    84  H    0.027704
    85  H   -0.016605
    86  H    0.006040
    87  H   -0.047534
    88  H   -0.008246
    89  H    0.005143
    90  H   -0.019476
    91  H    0.013962
    92  H    0.015036
    93  H    0.021440
    94  H    0.075100
    95  H    0.048975
    96  H    0.036487
    97  H    0.018112
    98  H    0.035810
    99  H    0.060503
   100  H   -0.037686
   101  H    0.042035
   102  H    0.002261
   103  H    0.009490
   104  H   -0.019257
   105  H    0.008547
   106  H   -0.008753
   107  H   -0.025885
   108  H    0.015665
   109  H   -0.005312
   110  H   -0.043207
   111  H    0.028530
   112  H   -0.026324
   113  H    0.008753
   114  H    0.008316
   115  H    0.008356
   116  H    0.020912
   117  H    0.013460
   118  H   -0.006851
   119  H   -0.032783
   120  H   -0.029663
   121  H    0.020542
   122  H    0.012310
   123  H   -0.048766
   124  H   -0.015774
   125  H    0.001394
   126  H   -0.012010
   127  H    0.012345
   128  H   -0.010280
   129  H   -0.021702
   130  H   -0.019440
   131  H    0.013336
   132  H   -0.019873
   133  H   -0.001458
   134  H    0.008654
   135  H    0.035596
   136  H   -0.003317
   137  H    0.189410
   138  H    0.092038
 Sum of Mulliken charges =   0.00000

 Dipole moment (field-independent basis, Debye):
    X=              3.6572    Y=              3.6198    Z=              0.3414  Tot=              5.1570
 Quadrupole moment (field-independent basis, Debye-Ang):
   XX=           -337.8816   YY=           -382.7916   ZZ=           -396.9206
   XY=            -20.5571   XZ=             10.6768   YZ=             -1.4222

 Normal termination of Gaussian 09 at Tue Jul 30 23:33:45 2019.
