 Gaussian 09, Revision D.01,
 Gaussian 09:  ES64L-G09RevD.01 24-Apr-2013

 --------------------------
 # td=(NStates=1) B3LYP/SVP
 --------------------------

 --
 TD
 --
 Symbolic Z-matrix:
 Charge =  0 Multiplicity = 1

                         Standard orientation:
 ---------------------------------------------------------------------
 Center     Atomic      Atomic             Coordinates (Angstroms)
 Number     Number       Type             X           Y           Z
 ---------------------------------------------------------------------
      1          6           0       -5.125328   -1.736012    0.462401
      2          6           0       -4.730033    2.903647    1.426831
      3          6           0       -9.287279    3.330075   -0.316362
      4          6           0       -9.792785   -1.393068   -1.101119
      5          7           0       -5.131854    0.584536    0.814194
      6          6           0       -4.482353   -0.632890    0.833026
      7          6           0       -3.072168   -0.456147    1.322673
      8          6           0       -3.075058    0.982171    1.796481
      9          6           0       -4.337464    1.558887    1.302787
     10          6           0       -2.798954    1.084520    3.329960
     11          6           0       -2.112878   -0.898403    0.043973
     12          6           0       -0.671367   -0.916781    0.510566
     13          6           0        0.300458   -1.202554   -0.606313
     14          8           0        0.007434   -1.675702   -1.712924
     15          8           0        1.576699   -0.860404   -0.315386
     16          7           0       -7.042173    2.757929    0.565467
     17          6           0       -5.969860    3.404728    1.003144
     18          6           0       -6.221361    4.761003    1.084950
     19          6           0       -7.522702    4.965570    0.576876
     20          6           0       -8.016498    3.618169    0.252259
     21          6           0       -5.190794    5.846744    1.495357
     22          6           0       -8.203464    6.240458    0.264750
     23          6           0       -9.138081    6.360621   -0.733196
     24          7           0       -9.156805    0.893697   -0.505493
     25          6           0       -9.828693    2.055710   -0.643357
     26          6           0      -11.331281    1.889931   -0.900471
     27          6           0      -11.403441    0.556484   -1.105774
     28          6           0      -10.100978   -0.066771   -0.952269
     29          6           0      -12.333274    3.024160   -0.950331
     30          6           0      -12.600636   -0.180053   -1.626684
     31          6           0      -12.658496   -0.348725   -3.153127
     32          7           0       -7.455016   -1.241137   -0.291626
     33          6           0       -8.557702   -2.048418   -0.698243
     34          6           0       -8.151418   -3.413446   -0.583569
     35          6           0       -6.849736   -3.422632   -0.143829
     36          6           0       -6.510506   -1.994126    0.073426
     37          6           0       -8.972620   -4.618343   -0.874740
     38          6           0       -5.677653   -4.209269    0.258574
     39          8           0       -5.507591   -5.414288    0.152183
     40          6           0       -4.496589   -3.126808    0.561208
     41          6           0       -3.820627   -3.710387    1.771282
     42          8           0       -3.983339   -3.270433    2.935783
     43          8           0       -3.083036   -4.766021    1.546653
     44          6           0       -2.438123   -5.400680    2.712409
     45          6           0        2.619745   -1.403611   -1.143791
     46          6           0        3.955594   -0.772779   -0.563988
     47          6           0        4.930786   -0.291500   -1.274976
     48          6           0        4.818707    0.164015   -2.768367
     49          6           0        6.226923    0.106586   -0.607387
     50          6           0        7.477372   -0.498356   -1.077579
     51          6           0        8.740619   -0.277572   -0.332858
     52          6           0       10.042456   -0.919897   -0.734466
     53          6           0       10.035129   -2.458785   -0.486242
     54          6           0       11.283978   -0.373014   -0.038473
     55          6           0       12.598912   -0.711717   -0.420360
     56          6           0       13.756494    0.104712    0.150561
     57          6           0       15.236288   -0.130159   -0.398706
     58          6           0       15.566123   -1.689446   -0.332757
     59          6           0       16.270053    0.732600    0.375516
     60          6           0       17.755410    0.763711   -0.153298
     61          6           0       18.506581    1.745477    0.617435
     62          6           0       20.009057    1.974811    0.152728
     63          6           0       20.065263    2.400064   -1.369502
     64          6           0       20.875513    2.810321    1.194164
     65          1           0       -3.994481    3.604356    1.923327
     66          1           0       -9.846716    4.157056   -0.627001
     67          1           0      -10.398956   -2.193449   -1.435676
     68          1           0       -2.954223   -1.180568    2.056373
     69          1           0       -2.146312    1.518747    1.210234
     70          1           0       -1.841606    0.618297    3.596202
     71          1           0       -2.879215    2.085217    3.764612
     72          1           0       -3.618629    0.587619    3.963654
     73          1           0       -2.495766   -1.731057   -0.463562
     74          1           0       -2.288518   -0.070115   -0.771591
     75          1           0       -0.460336    0.051368    0.947966
     76          1           0       -0.437367   -1.772768    1.184260
     77          1           0       -4.572019    5.933233    0.646131
     78          1           0       -5.905207    6.845912    1.815296
     79          1           0       -4.558203    5.482521    2.422270
     80          1           0       -8.170286    7.103023    1.124285
     81          1           0       -9.234579    5.596117   -1.622384
     82          1           0       -9.422297    7.445546   -1.057650
     83          1           0      -12.287595    3.297454    0.088394
     84          1           0      -12.041159    3.649594   -1.689207
     85          1           0      -13.154448    2.721367   -1.194879
     86          1           0      -12.594652   -1.170293   -1.167288
     87          1           0      -13.488026    0.252135   -1.198573
     88          1           0      -12.911931    0.468888   -3.620778
     89          1           0      -11.730208   -0.800646   -3.576273
     90          1           0      -13.343550   -1.152313   -3.515788
     91          1           0       -9.757949   -4.689398   -0.131286
     92          1           0       -9.417594   -4.609713   -1.864629
     93          1           0       -8.213513   -5.421525   -1.043564
     94          1           0       -3.822003   -3.339914   -0.107398
     95          1           0       -1.591594   -6.009809    2.357842
     96          1           0       -2.085904   -4.684661    3.326808
     97          1           0       -3.304200   -5.580192    3.403645
     98          1           0        2.951354   -2.410559   -0.950803
     99          1           0        2.591406   -1.106654   -2.242336
    100          1           0        3.980691   -1.032884    0.527571
    101          1           0        5.384593    1.132475   -3.074326
    102          1           0        5.416359   -0.428478   -3.524966
    103          1           0        3.781936    0.094074   -3.158457
    104          1           0        6.432663    1.160486   -0.808176
    105          1           0        6.066047   -0.025757    0.455569
    106          1           0        7.558281   -1.576734   -1.406306
    107          1           0        7.895872   -0.048511   -2.014127
    108          1           0        8.746876    0.748055   -0.330452
    109          1           0        8.672709   -0.449168    0.841958
    110          1           0       10.159533   -0.681418   -1.775980
    111          1           0        9.247552   -3.058401   -1.197511
    112          1           0       11.119298   -2.992238   -0.596642
    113          1           0        9.941138   -2.611540    0.591428
    114          1           0       11.162453    0.666649   -0.094093
    115          1           0       11.020705   -0.616651    1.035967
    116          1           0       12.748114   -1.781803   -0.516835
    117          1           0       12.684652   -0.539665   -1.609608
    118          1           0       13.487029    1.122632    0.185457
    119          1           0       13.866885   -0.145412    1.206023
    120          1           0       15.084905    0.313841   -1.503295
    121          1           0       15.014503   -2.118669   -1.190012
    122          1           0       16.594890   -1.938001   -0.781359
    123          1           0       15.594481   -2.089972    0.680189
    124          1           0       15.850290    1.660030    0.421859
    125          1           0       16.341421    0.474662    1.521262
    126          1           0       18.204105   -0.286643   -0.064720
    127          1           0       17.745023    0.758390   -1.268977
    128          1           0       17.947199    2.717862    0.530852
    129          1           0       18.557585    1.559769    1.712055
    130          1           0       20.493777    1.076289    0.330573
    131          1           0       19.700195    3.342384   -1.315809
    132          1           0       21.163226    2.663738   -1.689917
    133          1           0       19.506302    1.642234   -1.961539
    134          1           0       20.646186    2.281166    2.096443
    135          1           0       21.810348    2.584664    0.650228
    136          1           0       20.571131    3.877058    1.422589
    137          1           0       -7.374265    1.671573    0.678031
    138          1           0       -7.526376   -0.188249   -0.371074
 ---------------------------------------------------------------------

 SCF Done:  E(RB3LYP) =  -2733.09401411     A.U. after   17 cycles

 Excitation energies and oscillator strengths:

 Excited State   1:      Singlet-A      2.0837 eV  595.01 nm  f=0.1860  <S**2>=0.000
     235 -> 237        0.11558
     235 -> 238       -0.25657
     236 -> 237        0.63909
 This state for optimization and/or second-order correction.
 Total Energy, E(TD-HF/TD-KS) =  -2733.01743815
 Copying the excited state density for this state as the 1-particle RhoCI density.

 The electronic state is 1-A.
 Alpha  occ. eigenvalues --  -19.18135 -19.17794 -19.11901 -19.11811 -19.10362
 Alpha  occ. eigenvalues --  -14.37466 -14.37206 -14.31262 -14.31014 -10.31528
 Alpha  occ. eigenvalues --  -10.30693 -10.27785 -10.25339 -10.24135 -10.23631
 Alpha  occ. eigenvalues --  -10.23391 -10.23287 -10.23085 -10.22597 -10.22424
 Alpha  occ. eigenvalues --  -10.22231 -10.22002 -10.21637 -10.21553 -10.21211
 Alpha  occ. eigenvalues --  -10.21123 -10.21072 -10.20982 -10.20794 -10.20553
 Alpha  occ. eigenvalues --  -10.20495 -10.20346 -10.20313 -10.20289 -10.20034
 Alpha  occ. eigenvalues --  -10.19852 -10.19781 -10.19684 -10.19662 -10.19486
 Alpha  occ. eigenvalues --  -10.19308 -10.19169 -10.19132 -10.19038 -10.18865
 Alpha  occ. eigenvalues --  -10.18823 -10.18803 -10.18723 -10.18694 -10.18613
 Alpha  occ. eigenvalues --  -10.18465 -10.18358 -10.18351 -10.18311 -10.18194
 Alpha  occ. eigenvalues --  -10.18103 -10.18077 -10.18035 -10.17828 -10.17775
 Alpha  occ. eigenvalues --  -10.17711 -10.17523 -10.17194 -10.17141  -1.09264
 Alpha  occ. eigenvalues --   -1.08938  -1.01788  -1.00002  -0.99577  -0.99079
 Alpha  occ. eigenvalues --   -0.97197  -0.94076  -0.93061  -0.83688  -0.83551
 Alpha  occ. eigenvalues --   -0.82070  -0.81630  -0.81257  -0.80887  -0.80753
 Alpha  occ. eigenvalues --   -0.80448  -0.80160  -0.79346  -0.79095  -0.77828
 Alpha  occ. eigenvalues --   -0.77284  -0.76392  -0.76201  -0.74998  -0.74713
 Alpha  occ. eigenvalues --   -0.73811  -0.73427  -0.72871  -0.71762  -0.70798
 Alpha  occ. eigenvalues --   -0.70484  -0.69497  -0.69413  -0.68433  -0.68208
 Alpha  occ. eigenvalues --   -0.67815  -0.66952  -0.66355  -0.66142  -0.66083
 Alpha  occ. eigenvalues --   -0.64406  -0.63268  -0.63066  -0.62704  -0.61656
 Alpha  occ. eigenvalues --   -0.60973  -0.59286  -0.59142  -0.58188  -0.57383
 Alpha  occ. eigenvalues --   -0.57001  -0.56488  -0.56075  -0.55895  -0.55639
 Alpha  occ. eigenvalues --   -0.55611  -0.55200  -0.54242  -0.53362  -0.53058
 Alpha  occ. eigenvalues --   -0.52844  -0.52123  -0.51308  -0.50698  -0.50266
 Alpha  occ. eigenvalues --   -0.49854  -0.49577  -0.49289  -0.48655  -0.48414
 Alpha  occ. eigenvalues --   -0.48165  -0.47802  -0.47281  -0.46944  -0.46691
 Alpha  occ. eigenvalues --   -0.46637  -0.46376  -0.46224  -0.46112  -0.46033
 Alpha  occ. eigenvalues --   -0.45664  -0.45625  -0.45212  -0.44878  -0.44785
 Alpha  occ. eigenvalues --   -0.44582  -0.44494  -0.44074  -0.43991  -0.43741
 Alpha  occ. eigenvalues --   -0.43672  -0.43334  -0.43156  -0.42942  -0.42902
 Alpha  occ. eigenvalues --   -0.42827  -0.42394  -0.42059  -0.41904  -0.41757
 Alpha  occ. eigenvalues --   -0.41601  -0.41487  -0.41168  -0.40925  -0.40646
 Alpha  occ. eigenvalues --   -0.40591  -0.40216  -0.40019  -0.39855  -0.39439
 Alpha  occ. eigenvalues --   -0.39180  -0.39026  -0.38983  -0.38715  -0.38564
 Alpha  occ. eigenvalues --   -0.38329  -0.38222  -0.37905  -0.37727  -0.37571
 Alpha  occ. eigenvalues --   -0.37484  -0.37322  -0.37258  -0.37104  -0.36909
 Alpha  occ. eigenvalues --   -0.36667  -0.36611  -0.36218  -0.35887  -0.35834
 Alpha  occ. eigenvalues --   -0.35710  -0.35154  -0.35143  -0.34956  -0.34906
 Alpha  occ. eigenvalues --   -0.34540  -0.34401  -0.34100  -0.34086  -0.34023
 Alpha  occ. eigenvalues --   -0.33599  -0.32851  -0.32668  -0.32448  -0.32136
 Alpha  occ. eigenvalues --   -0.31779  -0.31555  -0.31479  -0.31305  -0.30865
 Alpha  occ. eigenvalues --   -0.30588  -0.30525  -0.30451  -0.30168  -0.29555
 Alpha  occ. eigenvalues --   -0.29422  -0.28668  -0.28490  -0.28232  -0.27819
 Alpha  occ. eigenvalues --   -0.27402  -0.26820  -0.26657  -0.26102  -0.25615
 Alpha  occ. eigenvalues --   -0.25575  -0.24353  -0.24083  -0.23381  -0.19507
 Alpha  occ. eigenvalues --   -0.19093
 Alpha virt. eigenvalues --   -0.10428  -0.07049  -0.03738  -0.02588  -0.00127
 Alpha virt. eigenvalues --    0.00653   0.01026   0.01133   0.02431   0.03263
 Alpha virt. eigenvalues --    0.04324   0.04443   0.04614   0.04735   0.05031

 Mulliken charges:
               1
     1  C    0.161057
     2  C   -0.145749
     3  C   -0.062648
     4  C   -0.056714
     5  N   -0.203078
     6  C   -0.172144
     7  C    0.080801
     8  C   -0.025948
     9  C    0.003857
    10  C    0.048995
    11  C    0.003743
    12  C    0.115556
    13  C    0.160185
    14  O   -0.258442
    15  O   -0.309933
    16  N   -0.023722
    17  C    0.150629
    18  C   -0.164501
    19  C    0.001424
    20  C    0.041806
    21  C    0.055922
    22  C   -0.065035
    23  C   -0.103909
    24  N   -0.284608
    25  C    0.051443
    26  C   -0.239127
    27  C   -0.107347
    28  C    0.177919
    29  C    0.371007
    30  C    0.108486
    31  C    0.076177
    32  N    0.025586
    33  C   -0.029341
    34  C   -0.164525
    35  C    0.015840
    36  C   -0.036326
    37  C    0.125028
    38  C    0.059626
    39  O   -0.177629
    40  C    0.028880
    41  C    0.140657
    42  O   -0.302370
    43  O   -0.278554
    44  C    0.261837
    45  C    0.259639
    46  C   -0.183594
    47  C   -0.037409
    48  C    0.014739
    49  C    0.153684
    50  C    0.034313
    51  C    0.018259
    52  C   -0.028846
    53  C   -0.031732
    54  C    0.047208
    55  C    0.074910
    56  C    0.062684
    57  C   -0.116957
    58  C    0.036639
    59  C    0.042015
    60  C    0.033542
    61  C    0.026360
    62  C   -0.100694
    63  C    0.056417
    64  C    0.016164
    65  H   -0.013620
    66  H   -0.059205
    67  H   -0.047370
    68  H   -0.021214
    69  H    0.015072
    70  H    0.021821
    71  H    0.004065
    72  H    0.028789
    73  H    0.004036
    74  H    0.019343
    75  H    0.023690
    76  H    0.040255
    77  H    0.037869
    78  H    0.052348
    79  H    0.051891
    80  H    0.055455
    81  H    0.062387
    82  H    0.043235
    83  H    0.030450
    84  H   -0.003270
    85  H   -0.108465
    86  H   -0.021186
    87  H   -0.013226
    88  H   -0.027728
    89  H    0.005301
    90  H   -0.001046
    91  H    0.038373
    92  H    0.007899
    93  H    0.039732
    94  H   -0.017542
    95  H    0.055559
    96  H   -0.021762
    97  H    0.030849
    98  H    0.033496
    99  H    0.038913
   100  H    0.005902
   101  H    0.023239
   102  H    0.017430
   103  H    0.023629
   104  H   -0.005027
   105  H   -0.010974
   106  H   -0.020048
   107  H   -0.024424
   108  H   -0.052924
   109  H   -0.025571
   110  H   -0.033146
   111  H    0.043119
   112  H    0.021065
   113  H    0.000704
   114  H   -0.040158
   115  H   -0.018156
   116  H   -0.020211
   117  H   -0.030700
   118  H   -0.025676
   119  H   -0.024305
   120  H    0.007966
   121  H    0.016104
   122  H   -0.000362
   123  H    0.024695
   124  H   -0.039304
   125  H   -0.006909
   126  H   -0.010233
   127  H   -0.002113
   128  H   -0.009814
   129  H   -0.010182
   130  H   -0.029891
   131  H   -0.019497
   132  H    0.004979
   133  H    0.036219
   134  H    0.000707
   135  H    0.026486
   136  H    0.017047
   137  H    0.214777
   138  H    0.158212
 Sum of Mulliken charges =   0.00000

 Dipole moment (field-independent basis, Debye):
    X=              0.9061    Y=              4.5247    Z=              0.3603  Tot=              4.6286
 Quadrupole moment (field-independent basis, Debye-Ang):
   XX=           -342.4447   YY=           -387.1079   ZZ=           -392.4522
   XY=            -29.3557   XZ=             12.7855   YZ=             -0.8744

 Normal termination of Gaussian 09 at Mon Jul 29 14:38:13 2019.
