 Gaussian 09, Revision D.01,
 Gaussian 09:  ES64L-G09RevD.01 24-Apr-2013

 --------------------------
 # td=(NStates=1) B3LYP/SVP
 --------------------------

 --
 TD
 --
 Symbolic Z-matrix:
 Charge =  0 Multiplicity = 1

                         Standard orientation:
 ---------------------------------------------------------------------
 Center     Atomic      Atomic             Coordinates (Angstroms)
 Number     Number       Type             X           Y           Z
 ---------------------------------------------------------------------
      1          6           0       -5.063624   -1.972947    0.520486
      2          6           0       -4.694618    2.716365    1.450238
      3          6           0       -9.249120    3.430259   -0.203807
      4          6           0       -9.852825   -1.265927   -0.947735
      5          7           0       -5.123261    0.398830    0.721656
      6          6           0       -4.495512   -0.786445    0.789560
      7          6           0       -2.998058   -0.659970    1.209231
      8          6           0       -2.915676    0.867468    1.770665
      9          6           0       -4.325616    1.417186    1.218462
     10          6           0       -2.809515    1.059500    3.240985
     11          6           0       -2.001897   -1.026575    0.070847
     12          6           0       -0.519108   -0.875435    0.478194
     13          6           0        0.332236   -1.390630   -0.615037
     14          8           0       -0.015783   -2.077271   -1.496933
     15          8           0        1.638736   -0.893998   -0.366630
     16          7           0       -6.998556    2.815971    0.409238
     17          6           0       -5.944521    3.360368    0.964238
     18          6           0       -6.151161    4.732823    1.049028
     19          6           0       -7.406655    5.005068    0.492268
     20          6           0       -7.973867    3.773400    0.181409
     21          6           0       -5.160813    5.814094    1.670227
     22          6           0       -8.153322    6.183948    0.447093
     23          6           0       -8.830681    6.722803   -0.584126
     24          7           0       -9.163359    0.977372   -0.423014
     25          6           0       -9.805100    2.143553   -0.557771
     26          6           0      -11.149977    1.997555   -0.969956
     27          6           0      -11.410325    0.606736   -1.124475
     28          6           0      -10.072452    0.089942   -0.896501
     29          6           0      -12.298767    3.020351   -1.137198
     30          6           0      -12.610108   -0.249666   -1.553891
     31          6           0      -12.596651   -0.560942   -3.098333
     32          7           0       -7.440079   -1.262139   -0.348710
     33          6           0       -8.573269   -1.947306   -0.625431
     34          6           0       -8.187228   -3.332853   -0.552592
     35          6           0       -6.927326   -3.442331   -0.021885
     36          6           0       -6.408981   -2.040183    0.114144
     37          6           0       -9.093289   -4.506626   -0.859178
     38          6           0       -5.752754   -4.212421    0.156940
     39          8           0       -5.672595   -5.429940    0.019306
     40          6           0       -4.550513   -3.292518    0.585765
     41          6           0       -3.808416   -3.858964    1.871015
     42          8           0       -3.986012   -3.394991    2.928002
     43          8           0       -3.039853   -4.874133    1.552924
     44          6           0       -2.382189   -5.530475    2.594460
     45          6           0        2.616496   -1.138599   -1.332737
     46          6           0        3.929739   -0.765358   -0.686831
     47          6           0        4.867069   -0.040819   -1.194804
     48          6           0        4.876961    0.868312   -2.485365
     49          6           0        6.129830    0.215149   -0.285054
     50          6           0        7.433473   -0.253089   -1.039881
     51          6           0        8.646243   -0.241631   -0.164819
     52          6           0        9.987519   -0.646639   -0.897671
     53          6           0        9.987349   -2.124110   -1.390276
     54          6           0       11.218034   -0.322589    0.001281
     55          6           0       12.607122   -0.631777   -0.623511
     56          6           0       13.764709   -0.028547    0.192033
     57          6           0       15.158356   -0.213446   -0.321885
     58          6           0       15.564250   -1.690274   -0.589268
     59          6           0       16.141632    0.638517    0.521584
     60          6           0       17.595703    0.640168    0.014363
     61          6           0       18.502158    1.594245    0.853944
     62          6           0       19.830959    1.797843    0.192032
     63          6           0       19.858864    2.567294   -1.236300
     64          6           0       20.864160    2.315761    1.196739
     65          1           0       -3.942095    3.513858    1.699432
     66          1           0      -10.009080    4.294179   -0.188452
     67          1           0      -10.563269   -1.991174   -1.147606
     68          1           0       -2.745219   -1.513989    2.071953
     69          1           0       -2.222073    1.603749    1.063141
     70          1           0       -1.815798    0.520892    3.359855
     71          1           0       -2.730147    2.077113    3.689491
     72          1           0       -3.592369    0.417877    3.877385
     73          1           0       -2.525084   -1.925507   -0.448239
     74          1           0       -2.259093   -0.179096   -0.722761
     75          1           0       -0.174601   -0.009399    0.872841
     76          1           0       -0.355470   -1.657995    1.284588
     77          1           0       -4.099794    5.907833    1.145071
     78          1           0       -5.532359    6.679128    1.341461
     79          1           0       -4.945431    5.900010    2.839477
     80          1           0       -7.958772    6.963586    1.403211
     81          1           0       -8.824698    5.863604   -1.435005
     82          1           0       -9.248847    7.562166   -0.450805
     83          1           0      -12.473130    3.629683   -0.007587
     84          1           0      -11.928789    3.773980   -1.953106
     85          1           0      -13.235595    2.578481   -1.423376
     86          1           0      -12.577378   -0.987719   -1.055474
     87          1           0      -13.415819    0.543972   -1.534100
     88          1           0      -12.840648    0.173114   -3.801217
     89          1           0      -11.721800   -1.153188   -3.346741
     90          1           0      -13.549117   -0.901683   -3.534420
     91          1           0       -9.764145   -4.587138   -0.147175
     92          1           0       -9.486537   -4.366387   -2.026975
     93          1           0       -8.550838   -5.582754   -0.881734
     94          1           0       -3.776893   -3.343893   -0.182903
     95          1           0       -1.915811   -6.444167    2.344540
     96          1           0       -1.521908   -4.806012    2.889037
     97          1           0       -3.059848   -5.637883    3.428088
     98          1           0        2.758437   -2.071988   -1.856873
     99          1           0        2.266460   -0.495462   -2.263870
    100          1           0        4.017255   -1.202919    0.295928
    101          1           0        4.891094    1.961420   -2.138597
    102          1           0        5.934393    0.658018   -2.911435
    103          1           0        3.983429    0.528715   -3.208043
    104          1           0        6.291061    1.349466    0.006860
    105          1           0        5.916858   -0.437357    0.627546
    106          1           0        7.086468   -1.148273   -1.422231
    107          1           0        7.559071    0.346674   -1.923021
    108          1           0        8.817028    0.835444    0.450388
    109          1           0        8.625360   -1.030559    0.611726
    110          1           0       10.165920    0.039209   -1.972783
    111          1           0        9.042591   -2.383450   -2.055811
    112          1           0       10.945249   -2.324932   -1.877021
    113          1           0        9.852946   -2.965410   -0.472236
    114          1           0       11.280905    0.709029    0.167166
    115          1           0       11.110035   -0.992748    0.897573
    116          1           0       12.854226   -1.709478   -0.925712
    117          1           0       12.652166   -0.187331   -1.492300
    118          1           0       13.446625    0.876402    0.466795
    119          1           0       13.532324   -0.380381    1.185805
    120          1           0       15.138614    0.119001   -1.369689
    121          1           0       14.861985   -2.202414   -1.305768
    122          1           0       16.640321   -1.686374   -0.931381
    123          1           0       15.405014   -2.299008    0.377253
    124          1           0       15.808467    1.609429    0.490779
    125          1           0       16.315753    0.483571    1.701981
    126          1           0       18.019989   -0.405649   -0.023427
    127          1           0       17.628296    1.015246   -1.095302
    128          1           0       18.001878    2.530997    0.736004
    129          1           0       18.777222    1.286600    1.987471
    130          1           0       20.227625    0.884003   -0.172081
    131          1           0       19.544002    3.569894   -0.999244
    132          1           0       20.847333    2.610645   -1.644362
    133          1           0       19.153377    2.167699   -2.015985
    134          1           0       21.309985    1.636481    2.139141
    135          1           0       21.706358    2.695117    0.482619
    136          1           0       20.748324    3.229406    1.653295
    137          1           0       -7.090306    1.753912    0.264465
    138          1           0       -7.464407   -0.213151   -0.200529
 ---------------------------------------------------------------------

 SCF Done:  E(RB3LYP) =  -2732.98094374     A.U. after   17 cycles

 Excitation energies and oscillator strengths:

 Excited State   1:      Singlet-A      2.0472 eV  605.63 nm  f=0.2417  <S**2>=0.000
     235 -> 237       -0.17519
     235 -> 238        0.24416
     236 -> 237        0.63024
     236 -> 238        0.11711
 This state for optimization and/or second-order correction.
 Total Energy, E(TD-HF/TD-KS) =  -2732.90571119
 Copying the excited state density for this state as the 1-particle RhoCI density.

 The electronic state is 1-A.
 Alpha  occ. eigenvalues --  -19.18575 -19.17258 -19.13915 -19.12750 -19.10859
 Alpha  occ. eigenvalues --  -14.37308 -14.37188 -14.32060 -14.30126 -10.31820
 Alpha  occ. eigenvalues --  -10.31700 -10.26920 -10.24878 -10.24599 -10.23750
 Alpha  occ. eigenvalues --  -10.23614 -10.23426 -10.23319 -10.22728 -10.22525
 Alpha  occ. eigenvalues --  -10.21913 -10.21675 -10.21540 -10.21444 -10.21438
 Alpha  occ. eigenvalues --  -10.21334 -10.21261 -10.21209 -10.21030 -10.20967
 Alpha  occ. eigenvalues --  -10.20895 -10.20883 -10.20596 -10.20582 -10.20569
 Alpha  occ. eigenvalues --  -10.20560 -10.20108 -10.20093 -10.19987 -10.19950
 Alpha  occ. eigenvalues --  -10.19908 -10.19879 -10.19730 -10.19634 -10.19345
 Alpha  occ. eigenvalues --  -10.19270 -10.19214 -10.19106 -10.19004 -10.18767
 Alpha  occ. eigenvalues --  -10.18713 -10.18595 -10.18590 -10.18570 -10.18482
 Alpha  occ. eigenvalues --  -10.18438 -10.18245 -10.18193 -10.18133 -10.18123
 Alpha  occ. eigenvalues --  -10.17855 -10.17760 -10.16730 -10.16041  -1.12185
 Alpha  occ. eigenvalues --   -1.09580  -1.03512  -1.02876  -1.01057  -1.00021
 Alpha  occ. eigenvalues --   -0.98292  -0.94796  -0.93053  -0.85832  -0.83122
 Alpha  occ. eigenvalues --   -0.82064  -0.81722  -0.80888  -0.80773  -0.80346
 Alpha  occ. eigenvalues --   -0.80014  -0.79653  -0.79254  -0.78552  -0.77510
 Alpha  occ. eigenvalues --   -0.76758  -0.76184  -0.75802  -0.75101  -0.74423
 Alpha  occ. eigenvalues --   -0.74122  -0.73177  -0.72333  -0.71254  -0.70562
 Alpha  occ. eigenvalues --   -0.69956  -0.69679  -0.68755  -0.67493  -0.67411
 Alpha  occ. eigenvalues --   -0.66979  -0.66727  -0.66482  -0.66286  -0.65079
 Alpha  occ. eigenvalues --   -0.64831  -0.63973  -0.62900  -0.62225  -0.61850
 Alpha  occ. eigenvalues --   -0.61020  -0.58929  -0.58805  -0.58096  -0.57995
 Alpha  occ. eigenvalues --   -0.57184  -0.56877  -0.56490  -0.55708  -0.55528
 Alpha  occ. eigenvalues --   -0.55374  -0.54878  -0.53514  -0.53259  -0.52895
 Alpha  occ. eigenvalues --   -0.52778  -0.52143  -0.51658  -0.51270  -0.50883
 Alpha  occ. eigenvalues --   -0.50437  -0.50180  -0.49394  -0.49191  -0.48645
 Alpha  occ. eigenvalues --   -0.48185  -0.48141  -0.47507  -0.47079  -0.46722
 Alpha  occ. eigenvalues --   -0.46481  -0.46174  -0.46013  -0.45902  -0.45678
 Alpha  occ. eigenvalues --   -0.45621  -0.45254  -0.44935  -0.44736  -0.44445
 Alpha  occ. eigenvalues --   -0.44318  -0.44209  -0.44021  -0.43739  -0.43657
 Alpha  occ. eigenvalues --   -0.43466  -0.43113  -0.42998  -0.42755  -0.42486
 Alpha  occ. eigenvalues --   -0.42324  -0.42109  -0.41729  -0.41588  -0.41456
 Alpha  occ. eigenvalues --   -0.41428  -0.41263  -0.40940  -0.40677  -0.40542
 Alpha  occ. eigenvalues --   -0.40034  -0.39948  -0.39839  -0.39713  -0.39661
 Alpha  occ. eigenvalues --   -0.39352  -0.39133  -0.38858  -0.38438  -0.38369
 Alpha  occ. eigenvalues --   -0.38198  -0.38042  -0.37810  -0.37718  -0.37522
 Alpha  occ. eigenvalues --   -0.37124  -0.37080  -0.37001  -0.36878  -0.36809
 Alpha  occ. eigenvalues --   -0.36543  -0.36491  -0.36401  -0.36218  -0.35958
 Alpha  occ. eigenvalues --   -0.35518  -0.35429  -0.35102  -0.35009  -0.34807
 Alpha  occ. eigenvalues --   -0.34504  -0.34038  -0.33725  -0.33230  -0.33213
 Alpha  occ. eigenvalues --   -0.33164  -0.32579  -0.32469  -0.32195  -0.32164
 Alpha  occ. eigenvalues --   -0.31970  -0.31767  -0.31593  -0.31438  -0.31088
 Alpha  occ. eigenvalues --   -0.30781  -0.30544  -0.30324  -0.29996  -0.29834
 Alpha  occ. eigenvalues --   -0.29726  -0.29517  -0.29086  -0.28955  -0.28716
 Alpha  occ. eigenvalues --   -0.27911  -0.27258  -0.26683  -0.26249  -0.25716
 Alpha  occ. eigenvalues --   -0.25137  -0.24673  -0.24180  -0.22484  -0.20369
 Alpha  occ. eigenvalues --   -0.18874
 Alpha virt. eigenvalues --   -0.10784  -0.07717  -0.03999  -0.01877  -0.00149
 Alpha virt. eigenvalues --    0.00344   0.01338   0.01748   0.02248   0.03872
 Alpha virt. eigenvalues --    0.04096   0.04262   0.04346   0.04465   0.04870

 Mulliken charges:
               1
     1  C    0.047262
     2  C   -0.055008
     3  C   -0.132500
     4  C   -0.060490
     5  N   -0.191815
     6  C   -0.084593
     7  C   -0.124772
     8  C   -0.080221
     9  C    0.027772
    10  C    0.045746
    11  C   -0.009972
    12  C    0.139694
    13  C    0.156760
    14  O   -0.163794
    15  O   -0.350152
    16  N   -0.046142
    17  C    0.020459
    18  C   -0.131202
    19  C    0.087526
    20  C    0.085951
    21  C    0.074090
    22  C   -0.163825
    23  C    0.059003
    24  N   -0.218249
    25  C    0.082553
    26  C   -0.151210
    27  C   -0.156056
    28  C    0.143018
    29  C    0.030917
    30  C    0.281182
    31  C    0.000073
    32  N   -0.039017
    33  C    0.002246
    34  C   -0.152989
    35  C    0.054157
    36  C    0.002793
    37  C    0.057166
    38  C    0.023873
    39  O   -0.190721
    40  C    0.022104
    41  C    0.159392
    42  O   -0.177411
    43  O   -0.251424
    44  C    0.191747
    45  C    0.238453
    46  C   -0.078323
    47  C   -0.127947
    48  C    0.027444
    49  C    0.000839
    50  C    0.055482
    51  C    0.037727
    52  C   -0.149643
    53  C   -0.036926
    54  C    0.072449
    55  C    0.047720
    56  C    0.108043
    57  C   -0.002172
    58  C   -0.016340
    59  C    0.074166
    60  C   -0.071121
    61  C    0.075247
    62  C   -0.077836
    63  C   -0.002160
    64  C    0.001718
    65  H   -0.001848
    66  H    0.013317
    67  H   -0.054352
    68  H    0.044981
    69  H    0.030553
    70  H    0.012512
    71  H    0.031499
    72  H    0.051228
    73  H    0.041769
    74  H    0.009424
    75  H    0.000715
    76  H    0.033578
    77  H    0.029345
    78  H   -0.027894
    79  H    0.055503
    80  H    0.029564
    81  H    0.060409
    82  H   -0.045803
    83  H    0.044232
    84  H    0.040341
    85  H    0.011360
    86  H   -0.091175
    87  H    0.006190
    88  H   -0.016682
    89  H    0.025757
    90  H   -0.006485
    91  H    0.004339
    92  H    0.045851
    93  H    0.055331
    94  H    0.043214
    95  H    0.030441
    96  H    0.020835
    97  H    0.031240
    98  H    0.021963
    99  H    0.003161
   100  H   -0.014152
   101  H    0.044485
   102  H    0.026641
   103  H    0.042581
   104  H    0.018994
   105  H    0.003401
   106  H   -0.019655
   107  H   -0.003174
   108  H    0.015567
   109  H   -0.004653
   110  H    0.000664
   111  H    0.032081
   112  H    0.027515
   113  H    0.014652
   114  H   -0.013587
   115  H    0.005622
   116  H    0.002099
   117  H   -0.068452
   118  H   -0.082370
   119  H   -0.047961
   120  H   -0.017328
   121  H    0.018388
   122  H    0.025269
   123  H    0.010185
   124  H   -0.035960
   125  H    0.007801
   126  H    0.011139
   127  H    0.000953
   128  H   -0.021613
   129  H    0.026262
   130  H   -0.016600
   131  H   -0.000274
   132  H    0.012104
   133  H    0.023599
   134  H    0.036608
   135  H   -0.009418
   136  H   -0.020776
   137  H    0.177732
   138  H    0.166479
 Sum of Mulliken charges =   0.00000

 Dipole moment (field-independent basis, Debye):
    X=              0.8977    Y=              4.5749    Z=              0.0637  Tot=              4.6626
 Quadrupole moment (field-independent basis, Debye-Ang):
   XX=           -351.2900   YY=           -384.3679   ZZ=           -394.0562
   XY=            -18.8446   XZ=              8.2836   YZ=             -3.6723

 Normal termination of Gaussian 09 at Thu Jul 25 11:12:34 2019.
