 Gaussian 09, Revision D.01,
 Gaussian 09:  ES64L-G09RevD.01 24-Apr-2013

 --------------------------
 # td=(NStates=1) B3LYP/SVP
 --------------------------

 --
 TD
 --
 Symbolic Z-matrix:
 Charge =  0 Multiplicity = 1

                         Standard orientation:
 ---------------------------------------------------------------------
 Center     Atomic      Atomic             Coordinates (Angstroms)
 Number     Number       Type             X           Y           Z
 ---------------------------------------------------------------------
      1          6           0       -5.076461   -1.871029    0.305980
      2          6           0       -4.866924    2.771404    1.352005
      3          6           0       -9.479297    3.245759   -0.256026
      4          6           0       -9.795365   -1.612575   -0.971441
      5          7           0       -5.243758    0.462929    0.793089
      6          6           0       -4.506545   -0.670163    0.798495
      7          6           0       -3.027680   -0.453110    1.234977
      8          6           0       -3.200829    0.982445    1.972352
      9          6           0       -4.606509    1.421334    1.397043
     10          6           0       -3.101268    1.029458    3.471764
     11          6           0       -2.021438   -0.575133    0.146632
     12          6           0       -0.632042   -0.490140    0.579460
     13          6           0        0.341178   -0.771866   -0.480601
     14          8           0        0.045063   -1.263032   -1.712859
     15          8           0        1.656332   -0.472093   -0.201004
     16          7           0       -7.184285    2.673660    0.492962
     17          6           0       -6.118729    3.308540    1.019247
     18          6           0       -6.429860    4.848795    1.066720
     19          6           0       -7.680574    4.847177    0.571965
     20          6           0       -8.231532    3.558121    0.173998
     21          6           0       -5.468328    5.911696    1.513784
     22          6           0       -8.389690    6.095496    0.169073
     23          6           0       -9.068176    6.508477   -0.952806
     24          7           0       -9.306646    0.709386   -0.629891
     25          6           0      -10.032365    1.972645   -0.592944
     26          6           0      -11.430473    1.586887   -0.806670
     27          6           0      -11.433982    0.304276   -1.091000
     28          6           0      -10.125746   -0.195103   -0.882904
     29          6           0      -12.452437    2.684546   -0.978012
     30          6           0      -12.745200   -0.523115   -1.500288
     31          6           0      -12.839212   -0.795171   -3.023453
     32          7           0       -7.476822   -1.291297   -0.263010
     33          6           0       -8.548754   -2.141089   -0.699643
     34          6           0       -8.095470   -3.445224   -0.654262
     35          6           0       -6.810713   -3.442470   -0.260036
     36          6           0       -6.389064   -2.025417   -0.052999
     37          6           0       -8.802294   -4.708981   -1.064847
     38          6           0       -5.574275   -4.270046    0.059332
     39          8           0       -5.415013   -5.408636    0.013369
     40          6           0       -4.384494   -3.308471    0.421975
     41          6           0       -3.804144   -3.649944    1.773456
     42          8           0       -4.045458   -3.278340    2.921827
     43          8           0       -2.789065   -4.651621    1.484683
     44          6           0       -2.273330   -5.184610    2.586205
     45          6           0        2.599589   -0.778462   -1.180889
     46          6           0        3.962336   -0.387074   -0.561487
     47          6           0        5.064656    0.153333   -1.207222
     48          6           0        5.159420    0.801130   -2.614854
     49          6           0        6.345183    0.409895   -0.490380
     50          6           0        7.618347   -0.339712   -0.982578
     51          6           0        8.783274   -0.271280   -0.020176
     52          6           0       10.075112   -0.763033   -0.631332
     53          6           0       10.044574   -2.396343   -0.741751
     54          6           0       11.384907   -0.397862    0.081583
     55          6           0       12.697962   -0.673476   -0.462966
     56          6           0       13.811687   -0.211945    0.350283
     57          6           0       15.279136   -0.473639   -0.216767
     58          6           0       15.716282   -1.861216   -0.267021
     59          6           0       16.320094    0.508970    0.448024
     60          6           0       17.735703    0.630576   -0.166345
     61          6           0       18.533415    1.596637    0.564467
     62          6           0       20.137779    1.754278   -0.034537
     63          6           0       20.132979    2.304186   -1.349686
     64          6           0       21.135508    2.625274    0.842698
     65          1           0       -4.032893    3.553957    1.682365
     66          1           0      -10.144582    4.215110   -0.081385
     67          1           0      -10.806871   -2.162292   -1.276398
     68          1           0       -2.651277   -1.328995    1.864059
     69          1           0       -2.484463    1.729028    1.706359
     70          1           0       -2.244481    0.673182    4.102725
     71          1           0       -3.369070    2.159919    3.755993
     72          1           0       -4.136343    0.477113    3.688319
     73          1           0       -2.075760   -1.621715   -0.219126
     74          1           0       -2.282029    0.139311   -0.559069
     75          1           0       -0.415966    0.441938    1.129149
     76          1           0       -0.476446   -1.329242    1.311048
     77          1           0       -4.583147    5.934200    1.004697
     78          1           0       -5.874422    7.009152    1.312597
     79          1           0       -5.436227    5.904066    2.634173
     80          1           0       -8.224480    6.954343    0.912123
     81          1           0       -9.126975    5.905565   -1.900138
     82          1           0       -9.418717    7.538447   -1.035164
     83          1           0      -12.261098    3.343425   -0.234474
     84          1           0      -12.210515    3.334547   -1.835988
     85          1           0      -13.580724    2.336048   -0.869059
     86          1           0      -12.893706   -1.514326   -0.886640
     87          1           0      -13.522907    0.106356   -1.288195
     88          1           0      -13.061866    0.221153   -3.321881
     89          1           0      -12.006952   -1.281475   -3.373922
     90          1           0      -13.582946   -1.284009   -3.429131
     91          1           0       -9.950327   -4.649179   -0.841305
     92          1           0       -8.546856   -5.064340   -2.286743
     93          1           0       -8.231302   -5.528177   -0.353035
     94          1           0       -3.595089   -3.284911   -0.434203
     95          1           0       -2.066143   -6.324416    2.300323
     96          1           0       -1.344929   -4.502475    3.027339
     97          1           0       -3.068558   -5.383239    3.281191
     98          1           0        2.360774   -1.718699   -1.549928
     99          1           0        2.392223   -0.002243   -1.888101
    100          1           0        3.954202   -0.748541    0.465539
    101          1           0        5.584191    1.803045   -2.407012
    102          1           0        6.000946    0.636749   -3.309103
    103          1           0        4.156028    0.794094   -3.153246
    104          1           0        6.582320    1.444075   -0.537779
    105          1           0        6.093893    0.229661    0.553921
    106          1           0        7.496368   -1.460726   -1.216279
    107          1           0        8.015138    0.037103   -1.939549
    108          1           0        8.930727    0.675892    0.154489
    109          1           0        8.568393   -0.808117    0.747549
    110          1           0       10.289574   -0.280749   -1.673712
    111          1           0        9.256223   -2.618116   -1.573085
    112          1           0       10.991199   -2.921046   -1.273501
    113          1           0        9.920377   -2.684203    0.218745
    114          1           0       11.293075    0.667944    0.262866
    115          1           0       11.400373   -0.670236    1.108664
    116          1           0       12.838498   -1.773213   -0.677051
    117          1           0       12.611541   -0.345078   -1.532231
    118          1           0       13.707825    0.894872    0.683042
    119          1           0       13.904378   -0.663036    1.394094
    120          1           0       15.290601   -0.046573   -1.265991
    121          1           0       14.950547   -2.532858   -0.548891
    122          1           0       16.767859   -2.057927   -0.878359
    123          1           0       15.942034   -2.287647    0.587506
    124          1           0       15.754556    1.357226    0.629389
    125          1           0       16.553759    0.086044    1.329441
    126          1           0       18.133511   -0.354801   -0.269395
    127          1           0       17.661516    0.863582   -1.393607
    128          1           0       18.130161    2.495174    0.665578
    129          1           0       18.667092    1.198560    1.628711
    130          1           0       20.420060    0.755831    0.016026
    131          1           0       19.587257    3.127065   -1.403083
    132          1           0       21.199744    2.520210   -1.774349
    133          1           0       19.702335    1.623708   -2.099343
    134          1           0       20.800420    2.118915    1.923699
    135          1           0       22.130180    2.628210    0.654206
    136          1           0       20.745238    3.721856    0.765301
    137          1           0       -7.364827    1.643517    0.566733
    138          1           0       -7.462079   -0.402389   -0.512263
 ---------------------------------------------------------------------

 SCF Done:  E(RB3LYP) =  -2732.97155954     A.U. after   17 cycles

 Excitation energies and oscillator strengths:

 Excited State   1:      Singlet-A      2.1032 eV  589.50 nm  f=0.1483  <S**2>=0.000
     235 -> 237        0.14348
     235 -> 238        0.28473
     236 -> 237        0.60639
     236 -> 238       -0.17248
 This state for optimization and/or second-order correction.
 Total Energy, E(TD-HF/TD-KS) =  -2732.89426821
 Copying the excited state density for this state as the 1-particle RhoCI density.

 The electronic state is 1-A.
 Alpha  occ. eigenvalues --  -19.18456 -19.17103 -19.14979 -19.13483 -19.12075
 Alpha  occ. eigenvalues --  -14.37849 -14.36564 -14.32549 -14.29110 -10.33272
 Alpha  occ. eigenvalues --  -10.32876 -10.28956 -10.24965 -10.24338 -10.24004
 Alpha  occ. eigenvalues --  -10.23823 -10.23672 -10.23648 -10.23465 -10.23060
 Alpha  occ. eigenvalues --  -10.22990 -10.22932 -10.21579 -10.21555 -10.21532
 Alpha  occ. eigenvalues --  -10.21378 -10.21347 -10.21311 -10.21273 -10.21266
 Alpha  occ. eigenvalues --  -10.21254 -10.21112 -10.20839 -10.20666 -10.20521
 Alpha  occ. eigenvalues --  -10.20476 -10.20373 -10.20157 -10.19961 -10.19947
 Alpha  occ. eigenvalues --  -10.19835 -10.19684 -10.19534 -10.19294 -10.19192
 Alpha  occ. eigenvalues --  -10.19023 -10.18903 -10.18879 -10.18822 -10.18813
 Alpha  occ. eigenvalues --  -10.18721 -10.18707 -10.18577 -10.18348 -10.17964
 Alpha  occ. eigenvalues --  -10.17893 -10.17738 -10.17122 -10.17005 -10.16768
 Alpha  occ. eigenvalues --  -10.16388 -10.16123 -10.15998 -10.15927  -1.09087
 Alpha  occ. eigenvalues --   -1.08730  -1.07541  -1.01778  -0.99352  -0.98064
 Alpha  occ. eigenvalues --   -0.95739  -0.94762  -0.94579  -0.84442  -0.83536
 Alpha  occ. eigenvalues --   -0.83161  -0.82473  -0.82050  -0.82022  -0.81042
 Alpha  occ. eigenvalues --   -0.80645  -0.79837  -0.79467  -0.78575  -0.78211
 Alpha  occ. eigenvalues --   -0.77734  -0.76771  -0.75743  -0.75372  -0.74884
 Alpha  occ. eigenvalues --   -0.74604  -0.73257  -0.72707  -0.71946  -0.71313
 Alpha  occ. eigenvalues --   -0.70324  -0.69658  -0.68531  -0.68406  -0.68026
 Alpha  occ. eigenvalues --   -0.67417  -0.66971  -0.66766  -0.66200  -0.65605
 Alpha  occ. eigenvalues --   -0.64322  -0.62759  -0.62198  -0.61927  -0.61657
 Alpha  occ. eigenvalues --   -0.61312  -0.59607  -0.59096  -0.57878  -0.57697
 Alpha  occ. eigenvalues --   -0.57565  -0.56867  -0.56814  -0.56572  -0.56437
 Alpha  occ. eigenvalues --   -0.56126  -0.55435  -0.54988  -0.53908  -0.53283
 Alpha  occ. eigenvalues --   -0.53175  -0.52184  -0.51745  -0.51592  -0.51283
 Alpha  occ. eigenvalues --   -0.50853  -0.49909  -0.49361  -0.49074  -0.49039
 Alpha  occ. eigenvalues --   -0.48322  -0.47909  -0.47559  -0.47428  -0.46995
 Alpha  occ. eigenvalues --   -0.46854  -0.46445  -0.46402  -0.46233  -0.46211
 Alpha  occ. eigenvalues --   -0.45981  -0.45704  -0.45585  -0.45500  -0.45379
 Alpha  occ. eigenvalues --   -0.45331  -0.44714  -0.44436  -0.44282  -0.44194
 Alpha  occ. eigenvalues --   -0.43917  -0.43616  -0.43213  -0.43161  -0.42971
 Alpha  occ. eigenvalues --   -0.42780  -0.42673  -0.42397  -0.42127  -0.41900
 Alpha  occ. eigenvalues --   -0.41855  -0.41534  -0.41253  -0.40998  -0.40797
 Alpha  occ. eigenvalues --   -0.40636  -0.40444  -0.40222  -0.39815  -0.39618
 Alpha  occ. eigenvalues --   -0.39540  -0.39225  -0.39094  -0.39030  -0.38765
 Alpha  occ. eigenvalues --   -0.38587  -0.38505  -0.38451  -0.38266  -0.38150
 Alpha  occ. eigenvalues --   -0.37947  -0.37841  -0.37375  -0.37264  -0.37053
 Alpha  occ. eigenvalues --   -0.36767  -0.36430  -0.36177  -0.36148  -0.36002
 Alpha  occ. eigenvalues --   -0.35865  -0.35572  -0.35144  -0.34579  -0.34461
 Alpha  occ. eigenvalues --   -0.34290  -0.34263  -0.33979  -0.33917  -0.33700
 Alpha  occ. eigenvalues --   -0.33165  -0.33021  -0.32994  -0.32512  -0.32179
 Alpha  occ. eigenvalues --   -0.32022  -0.32012  -0.31651  -0.31569  -0.30816
 Alpha  occ. eigenvalues --   -0.30645  -0.30163  -0.29920  -0.29581  -0.29402
 Alpha  occ. eigenvalues --   -0.29289  -0.29093  -0.28812  -0.28796  -0.28166
 Alpha  occ. eigenvalues --   -0.27985  -0.27349  -0.26927  -0.26283  -0.25932
 Alpha  occ. eigenvalues --   -0.25275  -0.24673  -0.24482  -0.23198  -0.20538
 Alpha  occ. eigenvalues --   -0.18728
 Alpha virt. eigenvalues --   -0.09865  -0.08075  -0.04540  -0.03206  -0.02838
 Alpha virt. eigenvalues --   -0.01746  -0.00673   0.00453   0.01338   0.03084
 Alpha virt. eigenvalues --    0.03664   0.04044   0.04153   0.04662   0.04971

 Mulliken charges:
               1
     1  C   -0.056513
     2  C   -0.105393
     3  C   -0.089778
     4  C   -0.111123
     5  N   -0.127507
     6  C   -0.057062
     7  C   -0.043429
     8  C   -0.019988
     9  C   -0.005258
    10  C    0.001735
    11  C    0.102437
    12  C    0.070334
    13  C    0.212490
    14  O   -0.355999
    15  O   -0.319484
    16  N   -0.067251
    17  C    0.044337
    18  C   -0.115245
    19  C    0.032077
    20  C    0.058338
    21  C    0.107644
    22  C   -0.091255
    23  C   -0.049499
    24  N   -0.186321
    25  C    0.033100
    26  C   -0.123610
    27  C   -0.106987
    28  C   -0.074588
    29  C    0.142266
    30  C    0.076064
    31  C    0.100074
    32  N    0.040344
    33  C    0.148566
    34  C   -0.143569
    35  C   -0.009813
    36  C    0.070091
    37  C   -0.043379
    38  C    0.073615
    39  O   -0.084193
    40  C   -0.062562
    41  C    0.255636
    42  O   -0.210799
    43  O   -0.309986
    44  C    0.127193
    45  C    0.343106
    46  C   -0.141884
    47  C   -0.067506
    48  C    0.047710
    49  C    0.106050
    50  C   -0.029036
    51  C    0.249883
    52  C   -0.136820
    53  C   -0.006920
    54  C    0.059449
    55  C    0.107958
    56  C   -0.029470
    57  C   -0.071487
    58  C    0.105430
    59  C    0.102917
    60  C    0.009056
    61  C    0.062963
    62  C   -0.078803
    63  C    0.095356
    64  C    0.004955
    65  H    0.022960
    66  H    0.038206
    67  H    0.024097
    68  H   -0.003914
    69  H   -0.019926
    70  H    0.046472
    71  H    0.013082
    72  H    0.030788
    73  H    0.014439
    74  H   -0.011286
    75  H    0.032149
    76  H    0.033669
    77  H    0.020725
    78  H    0.019585
    79  H    0.044376
    80  H    0.018607
    81  H    0.039043
    82  H    0.027857
    83  H   -0.027902
    84  H    0.019029
    85  H    0.030030
    86  H    0.015817
    87  H   -0.045202
    88  H    0.001502
    89  H   -0.008099
    90  H   -0.037909
    91  H    0.049392
    92  H    0.076864
    93  H    0.069614
    94  H    0.100919
    95  H    0.028970
    96  H    0.035740
    97  H    0.012038
    98  H    0.018506
    99  H   -0.010510
   100  H   -0.002362
   101  H    0.000184
   102  H    0.020588
   103  H    0.034656
   104  H   -0.009396
   105  H   -0.016541
   106  H    0.005533
   107  H   -0.017090
   108  H   -0.066797
   109  H   -0.060047
   110  H   -0.007127
   111  H    0.029008
   112  H    0.028210
   113  H   -0.002232
   114  H   -0.039761
   115  H   -0.048850
   116  H   -0.014250
   117  H   -0.021329
   118  H   -0.005360
   119  H   -0.005641
   120  H   -0.011663
   121  H   -0.018305
   122  H    0.022953
   123  H   -0.054289
   124  H   -0.033082
   125  H   -0.051726
   126  H   -0.020755
   127  H   -0.003855
   128  H   -0.039105
   129  H   -0.004563
   130  H   -0.025308
   131  H   -0.034113
   132  H    0.004928
   133  H   -0.005474
   134  H    0.019255
   135  H    0.003473
   136  H    0.015500
   137  H    0.167877
   138  H    0.088470
 Sum of Mulliken charges =   0.00000

 Dipole moment (field-independent basis, Debye):
    X=              1.5173    Y=              4.8490    Z=              1.1035  Tot=              5.1993
 Quadrupole moment (field-independent basis, Debye-Ang):
   XX=           -369.4717   YY=           -379.5316   ZZ=           -399.9602
   XY=            -21.9085   XZ=              9.3839   YZ=              2.1080

 Normal termination of Gaussian 09 at Sat Jul 27 00:41:57 2019.
