 Gaussian 09, Revision D.01,
 Gaussian 09:  ES64L-G09RevD.01 24-Apr-2013

 --------------------------
 # td=(NStates=1) B3LYP/SVP
 --------------------------

 --
 TD
 --
 Symbolic Z-matrix:
 Charge =  0 Multiplicity = 1

                         Standard orientation:
 ---------------------------------------------------------------------
 Center     Atomic      Atomic             Coordinates (Angstroms)
 Number     Number       Type             X           Y           Z
 ---------------------------------------------------------------------
      1          6           0       -5.224587   -1.959352    0.606046
      2          6           0       -4.800838    2.718287    1.199807
      3          6           0       -9.386688    3.333119   -0.209158
      4          6           0       -9.920290   -1.488658   -0.993832
      5          7           0       -5.230687    0.415074    0.839500
      6          6           0       -4.554673   -0.715894    0.858264
      7          6           0       -3.167603   -0.589843    1.341172
      8          6           0       -3.017681    0.904476    1.746341
      9          6           0       -4.336480    1.454477    1.208724
     10          6           0       -2.919211    1.092474    3.252208
     11          6           0       -2.074695   -0.911689    0.250073
     12          6           0       -0.626303   -0.618612    0.653887
     13          6           0        0.360894   -0.960619   -0.471255
     14          8           0        0.203946   -1.535142   -1.488428
     15          8           0        1.629236   -0.652129   -0.148831
     16          7           0       -7.077113    2.730698    0.371482
     17          6           0       -6.000629    3.309000    0.839726
     18          6           0       -6.259237    4.713030    1.004926
     19          6           0       -7.524391    5.000915    0.559060
     20          6           0       -8.032247    3.725890    0.131198
     21          6           0       -5.212826    5.801725    1.483079
     22          6           0       -8.274791    6.304280    0.609840
     23          6           0       -9.172453    6.601066   -0.264749
     24          7           0       -9.279422    0.812214   -0.548874
     25          6           0       -9.861849    2.013919   -0.552958
     26          6           0      -11.291394    1.922639   -1.064746
     27          6           0      -11.399403    0.531579   -1.353888
     28          6           0      -10.092861   -0.093939   -1.000594
     29          6           0      -12.380610    2.923695   -1.131274
     30          6           0      -12.629338   -0.225379   -1.800436
     31          6           0      -12.622591   -0.466361   -3.297080
     32          7           0       -7.569112   -1.214723   -0.225924
     33          6           0       -8.584243   -1.975158   -0.694627
     34          6           0       -8.226103   -3.440747   -0.734825
     35          6           0       -6.862839   -3.351830   -0.238783
     36          6           0       -6.478870   -2.002086    0.025979
     37          6           0       -8.974660   -4.596355   -1.064227
     38          6           0       -5.671489   -4.270275   -0.002701
     39          8           0       -5.595779   -5.503806   -0.109197
     40          6           0       -4.538532   -3.318421    0.570028
     41          6           0       -4.020333   -3.743323    1.844863
     42          8           0       -4.281767   -3.438217    2.989790
     43          8           0       -3.194866   -4.895051    1.611380
     44          6           0       -2.575310   -5.433430    2.788273
     45          6           0        2.663641   -1.220630   -0.934767
     46          6           0        4.023175   -0.693954   -0.419101
     47          6           0        4.978960   -0.075214   -1.019724
     48          6           0        4.823909    0.631314   -2.435008
     49          6           0        6.292147    0.236835   -0.307843
     50          6           0        7.531946   -0.465674   -0.989752
     51          6           0        8.779492   -0.186159   -0.181408
     52          6           0       10.148816   -0.739769   -0.850696
     53          6           0       10.119856   -2.228389   -0.930418
     54          6           0       11.344856   -0.338963   -0.050206
     55          6           0       12.728233   -0.542965   -0.651219
     56          6           0       13.992218    0.014721    0.194562
     57          6           0       15.312740   -0.270453   -0.342937
     58          6           0       15.771743   -1.713316   -0.412785
     59          6           0       16.352946    0.579458    0.305982
     60          6           0       17.757285    0.650258   -0.302338
     61          6           0       18.676152    1.702250    0.562971
     62          6           0       20.074030    1.715726    0.120972
     63          6           0       20.195281    2.285622   -1.278818
     64          6           0       20.953337    2.514729    1.136492
     65          1           0       -4.125570    3.534281    1.573832
     66          1           0      -10.208795    4.247797   -0.184490
     67          1           0      -10.750948   -2.154014   -1.118522
     68          1           0       -2.969247   -1.149013    2.196631
     69          1           0       -2.110913    1.250343    1.274454
     70          1           0       -1.930156    0.565442    3.734420
     71          1           0       -3.121634    2.034037    3.520499
     72          1           0       -3.710914    0.579809    3.749788
     73          1           0       -2.117509   -2.130890   -0.090792
     74          1           0       -2.212837   -0.298847   -0.702743
     75          1           0       -0.702895    0.660072    0.780060
     76          1           0       -0.319534   -1.164170    1.572183
     77          1           0       -4.357941    5.846012    0.844914
     78          1           0       -5.648489    6.871939    1.441668
     79          1           0       -4.760788    5.631212    2.439814
     80          1           0       -8.200575    7.149802    1.364489
     81          1           0       -9.482898    6.132645   -1.260449
     82          1           0       -9.497859    7.662936    0.008319
     83          1           0      -12.531528    3.296544   -0.119886
     84          1           0      -12.241776    3.856145   -1.869347
     85          1           0      -13.280559    2.620391   -1.477633
     86          1           0      -12.993002   -1.080370   -1.088608
     87          1           0      -13.515672    0.484227   -1.564871
     88          1           0      -12.338391    0.580206   -3.838934
     89          1           0      -11.953410   -1.324733   -3.923266
     90          1           0      -13.709162   -0.575821   -3.796900
     91          1           0       -9.726635   -5.011937   -0.200073
     92          1           0       -9.653507   -4.546967   -2.009810
     93          1           0       -8.238435   -5.551777   -1.244983
     94          1           0       -3.820516   -3.526149   -0.024849
     95          1           0       -1.726424   -6.298857    2.439721
     96          1           0       -2.160546   -4.520766    3.485328
     97          1           0       -3.341250   -5.863498    3.403130
     98          1           0        2.704915   -2.372613   -1.108979
     99          1           0        2.474180   -0.945207   -2.028629
    100          1           0        4.110892   -0.997816    0.557818
    101          1           0        5.063662    1.788436   -2.366368
    102          1           0        5.600289    0.195582   -3.036941
    103          1           0        3.864448    0.665224   -2.993777
    104          1           0        6.396441    1.336517   -0.283397
    105          1           0        6.187467   -0.233948    0.551430
    106          1           0        7.372925   -1.563520   -1.201829
    107          1           0        7.844174    0.140693   -1.932850
    108          1           0        8.846122    0.893301   -0.038687
    109          1           0        8.867775   -0.678418    0.997432
    110          1           0       10.309916   -0.408032   -1.896215
    111          1           0        9.343819   -2.697692   -1.562886
    112          1           0       11.166829   -2.557542   -1.377265
    113          1           0       10.334984   -2.876258    0.031388
    114          1           0       11.286362    0.884902   -0.068055
    115          1           0       11.228308   -0.738223    0.948959
    116          1           0       12.855501   -1.690938   -0.931206
    117          1           0       12.687428   -0.057526   -1.567574
    118          1           0       13.565681    1.096453    0.346612
    119          1           0       13.649859   -0.615254    1.088493
    120          1           0       15.241436   -0.174489   -1.471715
    121          1           0       15.085121   -2.333610   -1.012979
    122          1           0       16.614896   -1.888132   -1.086156
    123          1           0       15.825418   -1.963853    0.637596
    124          1           0       16.031760    1.553291    0.502832
    125          1           0       16.529314    0.237752    1.435322
    126          1           0       18.083991   -0.282096   -0.207187
    127          1           0       18.017298    0.913149   -1.395738
    128          1           0       18.124758    2.638140    0.517693
    129          1           0       18.618597    1.515111    1.527074
    130          1           0       20.596430    0.762375    0.267651
    131          1           0       19.957467    3.425199   -1.296809
    132          1           0       21.143049    2.299842   -1.818689
    133          1           0       19.644036    1.838053   -2.130697
    134          1           0       21.183597    2.077649    2.121798
    135          1           0       22.069215    2.818659    0.652322
    136          1           0       20.577579    3.490135    1.301570
    137          1           0       -6.975324    1.640518    0.376918
    138          1           0       -7.655781   -0.214100   -0.126285
 ---------------------------------------------------------------------

 SCF Done:  E(RB3LYP) =  -2733.04604673     A.U. after   17 cycles

 Excitation energies and oscillator strengths:

 Excited State   1:      Singlet-A      2.0391 eV  608.05 nm  f=0.2102  <S**2>=0.000
     235 -> 237       -0.12746
     235 -> 238        0.27024
     236 -> 237        0.63498
 This state for optimization and/or second-order correction.
 Total Energy, E(TD-HF/TD-KS) =  -2732.97111295
 Copying the excited state density for this state as the 1-particle RhoCI density.

 The electronic state is 1-A.
 Alpha  occ. eigenvalues --  -19.17056 -19.16125 -19.13307 -19.13157 -19.12542
 Alpha  occ. eigenvalues --  -14.37851 -14.37761 -14.33126 -14.29978 -10.31653
 Alpha  occ. eigenvalues --  -10.31589 -10.29118 -10.25334 -10.25097 -10.24705
 Alpha  occ. eigenvalues --  -10.24505 -10.23906 -10.23265 -10.23121 -10.23085
 Alpha  occ. eigenvalues --  -10.23068 -10.22611 -10.22378 -10.22142 -10.22058
 Alpha  occ. eigenvalues --  -10.22010 -10.21245 -10.21152 -10.21146 -10.20928
 Alpha  occ. eigenvalues --  -10.20843 -10.20772 -10.20732 -10.20726 -10.20501
 Alpha  occ. eigenvalues --  -10.20418 -10.20299 -10.20187 -10.20138 -10.19980
 Alpha  occ. eigenvalues --  -10.19970 -10.19915 -10.19589 -10.19485 -10.19320
 Alpha  occ. eigenvalues --  -10.19231 -10.19211 -10.19205 -10.19143 -10.19044
 Alpha  occ. eigenvalues --  -10.19031 -10.18741 -10.18664 -10.18521 -10.18471
 Alpha  occ. eigenvalues --  -10.18423 -10.18411 -10.18246 -10.18089 -10.17938
 Alpha  occ. eigenvalues --  -10.17592 -10.17403 -10.17261 -10.16654  -1.11009
 Alpha  occ. eigenvalues --   -1.07442  -1.01764  -1.01110  -0.99651  -0.99373
 Alpha  occ. eigenvalues --   -0.99114  -0.95125  -0.94690  -0.85861  -0.82719
 Alpha  occ. eigenvalues --   -0.82548  -0.82220  -0.81885  -0.81147  -0.80924
 Alpha  occ. eigenvalues --   -0.80449  -0.80077  -0.79129  -0.78877  -0.78103
 Alpha  occ. eigenvalues --   -0.77462  -0.76764  -0.76317  -0.74868  -0.74307
 Alpha  occ. eigenvalues --   -0.73554  -0.72937  -0.72288  -0.71558  -0.70635
 Alpha  occ. eigenvalues --   -0.70299  -0.68483  -0.68153  -0.67844  -0.67635
 Alpha  occ. eigenvalues --   -0.67306  -0.67188  -0.66309  -0.65835  -0.65434
 Alpha  occ. eigenvalues --   -0.64449  -0.62711  -0.62467  -0.62070  -0.60916
 Alpha  occ. eigenvalues --   -0.60039  -0.59337  -0.58882  -0.58174  -0.57611
 Alpha  occ. eigenvalues --   -0.56781  -0.56246  -0.56138  -0.55639  -0.55397
 Alpha  occ. eigenvalues --   -0.55285  -0.54947  -0.54394  -0.54090  -0.53620
 Alpha  occ. eigenvalues --   -0.53337  -0.52626  -0.52570  -0.51455  -0.50548
 Alpha  occ. eigenvalues --   -0.49981  -0.49273  -0.48993  -0.48583  -0.48482
 Alpha  occ. eigenvalues --   -0.48159  -0.47894  -0.47649  -0.47572  -0.47205
 Alpha  occ. eigenvalues --   -0.46815  -0.46703  -0.46523  -0.46255  -0.45922
 Alpha  occ. eigenvalues --   -0.45604  -0.45435  -0.45179  -0.45035  -0.44769
 Alpha  occ. eigenvalues --   -0.44524  -0.44341  -0.44174  -0.44102  -0.43766
 Alpha  occ. eigenvalues --   -0.43471  -0.43129  -0.42872  -0.42609  -0.42588
 Alpha  occ. eigenvalues --   -0.42332  -0.42004  -0.41740  -0.41557  -0.41394
 Alpha  occ. eigenvalues --   -0.40968  -0.40856  -0.40849  -0.40394  -0.40207
 Alpha  occ. eigenvalues --   -0.40043  -0.39915  -0.39655  -0.39424  -0.39273
 Alpha  occ. eigenvalues --   -0.39137  -0.38899  -0.38701  -0.38629  -0.38302
 Alpha  occ. eigenvalues --   -0.38222  -0.38014  -0.37982  -0.37820  -0.37665
 Alpha  occ. eigenvalues --   -0.37534  -0.37354  -0.36857  -0.36768  -0.36612
 Alpha  occ. eigenvalues --   -0.36437  -0.36361  -0.36006  -0.35900  -0.35621
 Alpha  occ. eigenvalues --   -0.35435  -0.35349  -0.35071  -0.34770  -0.34688
 Alpha  occ. eigenvalues --   -0.34463  -0.34430  -0.34237  -0.34175  -0.34065
 Alpha  occ. eigenvalues --   -0.33526  -0.33359  -0.32757  -0.32737  -0.32486
 Alpha  occ. eigenvalues --   -0.32179  -0.31902  -0.31843  -0.31577  -0.31486
 Alpha  occ. eigenvalues --   -0.31409  -0.31396  -0.30392  -0.29755  -0.29143
 Alpha  occ. eigenvalues --   -0.29069  -0.28714  -0.28522  -0.28467  -0.28087
 Alpha  occ. eigenvalues --   -0.28067  -0.27934  -0.27130  -0.25933  -0.25727
 Alpha  occ. eigenvalues --   -0.25515  -0.25395  -0.25322  -0.22506  -0.20251
 Alpha  occ. eigenvalues --   -0.18896
 Alpha virt. eigenvalues --   -0.10534  -0.07710  -0.04770  -0.02014  -0.01138
 Alpha virt. eigenvalues --   -0.00421   0.00101   0.01507   0.01771   0.03108
 Alpha virt. eigenvalues --    0.03774   0.03960   0.04213   0.04615   0.05139

 Mulliken charges:
               1
     1  C   -0.035006
     2  C   -0.066842
     3  C   -0.144814
     4  C   -0.075617
     5  N   -0.219715
     6  C    0.004539
     7  C    0.032434
     8  C    0.019364
     9  C    0.002208
    10  C    0.115985
    11  C   -0.074667
    12  C   -0.036024
    13  C    0.178607
    14  O   -0.198565
    15  O   -0.299408
    16  N   -0.050853
    17  C    0.022977
    18  C   -0.141507
    19  C    0.060605
    20  C    0.081900
    21  C    0.099644
    22  C   -0.048591
    23  C   -0.070398
    24  N   -0.167036
    25  C    0.052507
    26  C   -0.132227
    27  C   -0.113095
    28  C    0.061969
    29  C    0.110455
    30  C    0.049574
    31  C   -0.093581
    32  N    0.002179
    33  C    0.058004
    34  C   -0.047651
    35  C   -0.081499
    36  C    0.130561
    37  C   -0.067494
    38  C    0.088444
    39  O   -0.175349
    40  C    0.117122
    41  C    0.185741
    42  O   -0.210038
    43  O   -0.356049
    44  C    0.132344
    45  C    0.212692
    46  C   -0.065906
    47  C   -0.115697
    48  C    0.032265
    49  C    0.182816
    50  C   -0.023869
    51  C   -0.006758
    52  C   -0.033175
    53  C   -0.028576
    54  C   -0.003341
    55  C   -0.023115
    56  C    0.015462
    57  C   -0.008423
    58  C    0.042805
    59  C    0.048633
    60  C    0.064420
    61  C    0.093961
    62  C   -0.021385
    63  C    0.008031
    64  C   -0.022979
    65  H   -0.034022
    66  H    0.044033
    67  H   -0.010599
    68  H   -0.013727
    69  H   -0.023447
    70  H    0.033398
    71  H   -0.026990
    72  H    0.002403
    73  H    0.055636
    74  H    0.028153
    75  H    0.071986
    76  H    0.051676
    77  H    0.012785
    78  H    0.026555
    79  H    0.014339
    80  H    0.027795
    81  H    0.053323
    82  H    0.022657
    83  H    0.025874
    84  H    0.022945
    85  H   -0.030105
    86  H    0.027446
    87  H    0.001823
    88  H    0.027065
    89  H    0.047361
    90  H    0.018215
    91  H    0.062128
    92  H    0.045491
    93  H    0.072074
    94  H   -0.039587
    95  H    0.063830
    96  H    0.036302
    97  H    0.023493
    98  H    0.037353
    99  H    0.007393
   100  H   -0.043259
   101  H    0.020482
   102  H    0.012650
   103  H    0.024368
   104  H    0.013547
   105  H   -0.052553
   106  H    0.025032
   107  H    0.014829
   108  H   -0.009419
   109  H    0.006083
   110  H   -0.012063
   111  H    0.019399
   112  H   -0.002001
   113  H    0.008964
   114  H   -0.002448
   115  H   -0.005986
   116  H    0.008498
   117  H   -0.030522
   118  H    0.018229
   119  H    0.000093
   120  H   -0.016595
   121  H   -0.005342
   122  H    0.011585
   123  H    0.002731
   124  H   -0.036992
   125  H   -0.008150
   126  H   -0.049478
   127  H    0.002205
   128  H   -0.018984
   129  H   -0.065660
   130  H   -0.001695
   131  H    0.007478
   132  H   -0.010913
   133  H    0.006333
   134  H    0.018896
   135  H    0.007721
   136  H   -0.011398
   137  H    0.195037
   138  H    0.125245
 Sum of Mulliken charges =   0.00000

 Dipole moment (field-independent basis, Debye):
    X=              0.8944    Y=              5.1182    Z=              0.4499  Tot=              5.2152
 Quadrupole moment (field-independent basis, Debye-Ang):
   XX=           -350.9183   YY=           -385.8521   ZZ=           -396.8371
   XY=            -30.8956   XZ=              1.0293   YZ=              2.3806

 Normal termination of Gaussian 09 at Sat Aug  3 05:59:52 2019.
