 Gaussian 09, Revision D.01,
 Gaussian 09:  ES64L-G09RevD.01 24-Apr-2013

 --------------------------
 # td=(NStates=1) B3LYP/SVP
 --------------------------

 --
 TD
 --
 Symbolic Z-matrix:
 Charge =  0 Multiplicity = 1

                         Standard orientation:
 ---------------------------------------------------------------------
 Center     Atomic      Atomic             Coordinates (Angstroms)
 Number     Number       Type             X           Y           Z
 ---------------------------------------------------------------------
      1          6           0       -5.132667   -1.938107    0.376808
      2          6           0       -4.647396    2.724103    1.460606
      3          6           0       -9.274666    3.375310   -0.191531
      4          6           0       -9.849477   -1.359794   -0.784209
      5          7           0       -5.099840    0.496263    1.044397
      6          6           0       -4.543066   -0.777678    0.830739
      7          6           0       -3.012008   -0.642264    1.192010
      8          6           0       -2.955352    0.880858    1.959399
      9          6           0       -4.353797    1.417403    1.419385
     10          6           0       -2.842923    0.703128    3.432485
     11          6           0       -2.091750   -0.781322   -0.006033
     12          6           0       -0.661536   -0.752410    0.448817
     13          6           0        0.363368   -1.117204   -0.734666
     14          8           0        0.002684   -1.483558   -1.771479
     15          8           0        1.624261   -0.906416   -0.381164
     16          7           0       -7.002293    2.697044    0.557178
     17          6           0       -5.858021    3.367107    1.125138
     18          6           0       -6.090356    4.680160    1.177509
     19          6           0       -7.339721    4.938340    0.602726
     20          6           0       -8.030658    3.594346    0.254854
     21          6           0       -5.186304    5.700996    1.633696
     22          6           0       -8.031986    6.209239    0.397429
     23          6           0       -8.753701    6.560135   -0.756846
     24          7           0       -9.158530    0.835678   -0.334704
     25          6           0       -9.729565    2.119965   -0.520899
     26          6           0      -11.142397    1.969401   -0.991334
     27          6           0      -11.470751    0.658274   -1.131756
     28          6           0      -10.184208    0.000656   -0.787175
     29          6           0      -12.135301    3.150545   -1.171116
     30          6           0      -12.684503    0.023556   -1.709030
     31          6           0      -12.593571   -0.331226   -3.211579
     32          7           0       -7.546563   -1.326766   -0.158086
     33          6           0       -8.676278   -2.097071   -0.570361
     34          6           0       -8.280622   -3.384943   -0.645312
     35          6           0       -6.868935   -3.360696   -0.333436
     36          6           0       -6.471173   -2.062672    0.016261
     37          6           0       -9.148874   -4.566270   -0.942975
     38          6           0       -5.786995   -4.339479   -0.065374
     39          8           0       -5.712968   -5.510302   -0.155331
     40          6           0       -4.491413   -3.318190    0.360166
     41          6           0       -3.923092   -3.798443    1.730594
     42          8           0       -4.355879   -3.426739    2.860896
     43          8           0       -3.062083   -4.841666    1.401522
     44          6           0       -2.474642   -5.403703    2.625473
     45          6           0        2.662521   -1.100879   -1.350381
     46          6           0        3.947158   -0.622933   -0.720796
     47          6           0        4.969600   -0.007624   -1.217812
     48          6           0        4.807923    0.536822   -2.645613
     49          6           0        6.190516    0.353363   -0.391094
     50          6           0        7.448714   -0.407777   -0.963998
     51          6           0        8.787573    0.019859   -0.224726
     52          6           0        9.929599   -0.607641   -0.697201
     53          6           0        9.873370   -2.174478   -0.530092
     54          6           0       11.241631   -0.043130   -0.015035
     55          6           0       12.525414   -0.460756   -0.648369
     56          6           0       13.817391    0.018190    0.206680
     57          6           0       15.224506   -0.196675   -0.319559
     58          6           0       15.556045   -1.773634   -0.257584
     59          6           0       16.220138    0.635718    0.406186
     60          6           0       17.604086    0.507031   -0.160402
     61          6           0       18.621942    1.550545    0.598141
     62          6           0       20.040919    1.604209    0.087552
     63          6           0       20.115181    2.167572   -1.321780
     64          6           0       20.974362    2.344844    1.107280
     65          1           0       -3.930942    3.635627    1.807188
     66          1           0       -9.938717    4.247427   -0.204633
     67          1           0      -10.740145   -2.170431   -0.977602
     68          1           0       -2.962341   -1.362593    2.104279
     69          1           0       -2.282611    1.409216    1.364952
     70          1           0       -1.946714    0.212216    3.869354
     71          1           0       -2.917164    1.696954    3.818633
     72          1           0       -3.562126    0.085692    3.874590
     73          1           0       -2.104403   -1.665269   -0.501248
     74          1           0       -2.118550    0.384256   -0.543650
     75          1           0       -0.233377   -0.049347    0.907746
     76          1           0       -0.703667   -1.510748    1.260069
     77          1           0       -4.314082    5.847853    0.944840
     78          1           0       -5.756153    6.674778    1.818999
     79          1           0       -4.934592    5.510266    2.676456
     80          1           0       -7.767373    6.950104    1.268633
     81          1           0       -8.839330    5.696922   -1.415289
     82          1           0       -9.308312    7.616629   -0.906751
     83          1           0      -12.235216    3.685805   -0.400562
     84          1           0      -11.994267    3.889384   -2.049735
     85          1           0      -13.087888    2.666661   -1.337335
     86          1           0      -12.631609   -0.873006   -1.260598
     87          1           0      -13.542599    0.604873   -1.400381
     88          1           0      -12.470098    0.635354   -3.845771
     89          1           0      -11.586111   -0.495094   -3.414560
     90          1           0      -13.240750   -1.053728   -3.516305
     91          1           0       -9.990740   -4.542808   -0.293613
     92          1           0       -9.468936   -4.726708   -1.903762
     93          1           0       -8.438622   -5.526589   -0.850020
     94          1           0       -3.600766   -3.444522   -0.284699
     95          1           0       -1.706246   -6.222564    2.375687
     96          1           0       -1.955806   -4.513569    3.325240
     97          1           0       -3.273874   -6.016441    3.199047
     98          1           0        2.556704   -2.274497   -1.505497
     99          1           0        2.294712   -0.618953   -2.107687
    100          1           0        4.103607   -0.959662    0.319741
    101          1           0        4.976362    1.490686   -2.674433
    102          1           0        5.625206   -0.044567   -3.158194
    103          1           0        3.800811    0.309590   -3.129076
    104          1           0        6.239643    1.518914   -0.714241
    105          1           0        6.134851    0.201516    0.712914
    106          1           0        7.348373   -1.370691   -0.849854
    107          1           0        7.583950   -0.326403   -2.140894
    108          1           0        8.924962    1.003750   -0.181132
    109          1           0        8.616927   -0.279539    0.762505
    110          1           0       10.062088   -0.483665   -1.773219
    111          1           0        9.044184   -2.759112   -1.046684
    112          1           0       10.761921   -2.704774   -1.050641
    113          1           0        9.882823   -2.631199    0.565473
    114          1           0       11.093548    0.953702   -0.006003
    115          1           0       11.374885   -0.391662    0.980455
    116          1           0       12.559805   -1.531460   -0.575084
    117          1           0       12.928150   -0.225668   -1.727935
    118          1           0       13.504656    1.099494    0.400861
    119          1           0       13.693811   -0.482356    1.245496
    120          1           0       15.263270    0.127633   -1.439720
    121          1           0       14.916439   -2.359963   -0.962342
    122          1           0       16.442477   -1.884772   -0.612615
    123          1           0       15.294228   -2.018167    0.921704
    124          1           0       15.942745    1.734846    0.346082
    125          1           0       16.267537    0.276227    1.509710
    126          1           0       18.048843   -0.530390   -0.097166
    127          1           0       17.469443    0.994475   -0.986502
    128          1           0       18.084794    2.646781    0.372560
    129          1           0       18.731552    1.497567    1.774265
    130          1           0       20.653581    0.589192    0.065398
    131          1           0       19.800912    3.298637   -1.301308
    132          1           0       21.230702    2.333550   -1.653329
    133          1           0       19.514926    1.729648   -2.150773
    134          1           0       20.936464    1.960459    2.053826
    135          1           0       22.037797    2.232208    0.676789
    136          1           0       20.970778    3.436646    1.154785
    137          1           0       -7.149651    1.597668    0.571096
    138          1           0       -7.527759   -0.306428   -0.086727
 ---------------------------------------------------------------------

 SCF Done:  E(RB3LYP) =  -2732.96873926     A.U. after   17 cycles

 Excitation energies and oscillator strengths:

 Excited State   1:      Singlet-A      2.0997 eV  590.47 nm  f=0.1604  <S**2>=0.000
     235 -> 237       -0.12536
     235 -> 238       -0.28589
     236 -> 237        0.62375
 This state for optimization and/or second-order correction.
 Total Energy, E(TD-HF/TD-KS) =  -2732.89157496
 Copying the excited state density for this state as the 1-particle RhoCI density.

 The electronic state is 1-A.
 Alpha  occ. eigenvalues --  -19.18826 -19.16483 -19.12836 -19.12804 -19.11890
 Alpha  occ. eigenvalues --  -14.36592 -14.35852 -14.31083 -14.31060 -10.32044
 Alpha  occ. eigenvalues --  -10.30344 -10.28111 -10.26458 -10.24395 -10.23871
 Alpha  occ. eigenvalues --  -10.23393 -10.22959 -10.22751 -10.22458 -10.22192
 Alpha  occ. eigenvalues --  -10.22125 -10.21893 -10.21763 -10.21635 -10.21503
 Alpha  occ. eigenvalues --  -10.21306 -10.21135 -10.21044 -10.20893 -10.20304
 Alpha  occ. eigenvalues --  -10.20131 -10.20124 -10.20007 -10.19965 -10.19828
 Alpha  occ. eigenvalues --  -10.19660 -10.19540 -10.19531 -10.19521 -10.19499
 Alpha  occ. eigenvalues --  -10.19426 -10.19365 -10.19100 -10.19090 -10.19075
 Alpha  occ. eigenvalues --  -10.18988 -10.18850 -10.18692 -10.18671 -10.18571
 Alpha  occ. eigenvalues --  -10.18526 -10.18526 -10.18392 -10.18332 -10.18310
 Alpha  occ. eigenvalues --  -10.18064 -10.17763 -10.17759 -10.17751 -10.17737
 Alpha  occ. eigenvalues --  -10.17699 -10.17575 -10.17339 -10.16294  -1.10532
 Alpha  occ. eigenvalues --   -1.06995  -1.04739  -1.02292  -0.98604  -0.98451
 Alpha  occ. eigenvalues --   -0.95863  -0.94287  -0.92024  -0.84016  -0.83595
 Alpha  occ. eigenvalues --   -0.82703  -0.82317  -0.81717  -0.80937  -0.80719
 Alpha  occ. eigenvalues --   -0.80492  -0.80241  -0.79383  -0.78721  -0.77301
 Alpha  occ. eigenvalues --   -0.76758  -0.76129  -0.75343  -0.74960  -0.74899
 Alpha  occ. eigenvalues --   -0.73474  -0.72633  -0.72441  -0.71667  -0.70250
 Alpha  occ. eigenvalues --   -0.70080  -0.69631  -0.68729  -0.67944  -0.67479
 Alpha  occ. eigenvalues --   -0.67131  -0.67084  -0.66762  -0.66263  -0.65613
 Alpha  occ. eigenvalues --   -0.64571  -0.63250  -0.62863  -0.62228  -0.61739
 Alpha  occ. eigenvalues --   -0.60912  -0.60270  -0.58272  -0.57481  -0.57075
 Alpha  occ. eigenvalues --   -0.57001  -0.56538  -0.56311  -0.55257  -0.54980
 Alpha  occ. eigenvalues --   -0.54233  -0.54199  -0.53614  -0.53012  -0.52908
 Alpha  occ. eigenvalues --   -0.52504  -0.51867  -0.50688  -0.50419  -0.50099
 Alpha  occ. eigenvalues --   -0.49908  -0.49222  -0.48797  -0.48667  -0.48511
 Alpha  occ. eigenvalues --   -0.48139  -0.47736  -0.47356  -0.47264  -0.47006
 Alpha  occ. eigenvalues --   -0.46691  -0.46316  -0.46102  -0.45980  -0.45794
 Alpha  occ. eigenvalues --   -0.45687  -0.45461  -0.45146  -0.44976  -0.44844
 Alpha  occ. eigenvalues --   -0.44613  -0.44268  -0.44128  -0.43894  -0.43804
 Alpha  occ. eigenvalues --   -0.43741  -0.43472  -0.43201  -0.43084  -0.42754
 Alpha  occ. eigenvalues --   -0.42556  -0.42328  -0.42258  -0.42210  -0.41921
 Alpha  occ. eigenvalues --   -0.41497  -0.41173  -0.41045  -0.40896  -0.40670
 Alpha  occ. eigenvalues --   -0.40544  -0.40419  -0.40034  -0.39799  -0.39552
 Alpha  occ. eigenvalues --   -0.39491  -0.39273  -0.38804  -0.38597  -0.38429
 Alpha  occ. eigenvalues --   -0.38335  -0.38095  -0.38019  -0.37767  -0.37553
 Alpha  occ. eigenvalues --   -0.37359  -0.37223  -0.36929  -0.36756  -0.36644
 Alpha  occ. eigenvalues --   -0.36400  -0.36264  -0.36132  -0.35733  -0.35696
 Alpha  occ. eigenvalues --   -0.35560  -0.35436  -0.35366  -0.35238  -0.35084
 Alpha  occ. eigenvalues --   -0.34953  -0.34672  -0.34639  -0.34226  -0.33649
 Alpha  occ. eigenvalues --   -0.33063  -0.32858  -0.32708  -0.32600  -0.32197
 Alpha  occ. eigenvalues --   -0.32168  -0.31753  -0.31572  -0.31253  -0.30985
 Alpha  occ. eigenvalues --   -0.30793  -0.30410  -0.30250  -0.30177  -0.29944
 Alpha  occ. eigenvalues --   -0.29662  -0.29361  -0.28890  -0.28452  -0.27748
 Alpha  occ. eigenvalues --   -0.27607  -0.27441  -0.26838  -0.25567  -0.25286
 Alpha  occ. eigenvalues --   -0.24617  -0.24014  -0.23780  -0.23329  -0.19874
 Alpha  occ. eigenvalues --   -0.19412
 Alpha virt. eigenvalues --   -0.10545  -0.07594  -0.03750  -0.02160  -0.01367
 Alpha virt. eigenvalues --    0.01170   0.01305   0.02409   0.02943   0.04177
 Alpha virt. eigenvalues --    0.04464   0.04553   0.04619   0.04717   0.04799

 Mulliken charges:
               1
     1  C    0.042265
     2  C   -0.077493
     3  C   -0.161115
     4  C   -0.093143
     5  N   -0.107409
     6  C   -0.053641
     7  C   -0.171761
     8  C    0.004956
     9  C   -0.063483
    10  C    0.142447
    11  C    0.149926
    12  C    0.063877
    13  C    0.135572
    14  O   -0.185734
    15  O   -0.317054
    16  N   -0.193428
    17  C    0.091817
    18  C   -0.109575
    19  C   -0.008200
    20  C    0.144960
    21  C    0.110184
    22  C   -0.095115
    23  C   -0.055721
    24  N   -0.303414
    25  C    0.167318
    26  C   -0.182342
    27  C   -0.118114
    28  C    0.074508
    29  C    0.189868
    30  C    0.167396
    31  C    0.085072
    32  N   -0.035758
    33  C    0.056476
    34  C   -0.093619
    35  C   -0.086888
    36  C    0.084974
    37  C    0.108260
    38  C    0.106508
    39  O   -0.118403
    40  C   -0.098569
    41  C    0.238894
    42  O   -0.271516
    43  O   -0.315903
    44  C    0.104624
    45  C    0.361144
    46  C   -0.106748
    47  C   -0.159467
    48  C    0.124428
    49  C    0.073181
    50  C    0.008132
    51  C    0.197676
    52  C   -0.049208
    53  C   -0.076066
    54  C    0.122329
    55  C    0.023600
    56  C   -0.042562
    57  C   -0.083557
    58  C    0.075652
    59  C   -0.002420
    60  C    0.134509
    61  C   -0.062242
    62  C   -0.085883
    63  C   -0.022910
    64  C    0.037302
    65  H    0.007165
    66  H   -0.004848
    67  H    0.005253
    68  H    0.035557
    69  H   -0.037549
    70  H    0.011368
    71  H   -0.004669
    72  H    0.008262
    73  H   -0.010590
    74  H    0.030407
    75  H   -0.057750
    76  H    0.001922
    77  H    0.053238
    78  H    0.004362
    79  H    0.018415
    80  H    0.030042
    81  H    0.041688
    82  H    0.066752
    83  H   -0.039237
    84  H    0.022894
    85  H   -0.015506
    86  H   -0.042578
    87  H    0.003506
    88  H   -0.003849
    89  H   -0.019810
    90  H    0.010791
    91  H    0.024963
    92  H    0.003370
    93  H    0.046848
    94  H    0.050660
    95  H    0.046518
    96  H    0.064698
    97  H    0.055614
    98  H    0.034909
    99  H   -0.052806
   100  H   -0.022459
   101  H   -0.024393
   102  H    0.020608
   103  H    0.022559
   104  H    0.020431
   105  H    0.017752
   106  H   -0.047061
   107  H    0.006951
   108  H   -0.058956
   109  H   -0.043729
   110  H   -0.016604
   111  H    0.015972
   112  H    0.013967
   113  H    0.018259
   114  H   -0.042816
   115  H   -0.019085
   116  H   -0.017252
   117  H    0.003586
   118  H   -0.006795
   119  H   -0.007113
   120  H   -0.009662
   121  H    0.012978
   122  H   -0.047490
   123  H    0.033392
   124  H    0.002108
   125  H   -0.004786
   126  H    0.032328
   127  H   -0.060028
   128  H    0.004516
   129  H    0.009358
   130  H    0.013315
   131  H    0.001935
   132  H    0.010611
   133  H    0.031285
   134  H   -0.003516
   135  H   -0.000795
   136  H   -0.000734
   137  H    0.197516
   138  H    0.134444
 Sum of Mulliken charges =   0.00000

 Dipole moment (field-independent basis, Debye):
    X=              2.2830    Y=              4.6520    Z=              0.3184  Tot=              5.1918
 Quadrupole moment (field-independent basis, Debye-Ang):
   XX=           -339.2509   YY=           -378.8967   ZZ=           -394.8170
   XY=            -29.1758   XZ=              6.8084   YZ=              0.5266

 Normal termination of Gaussian 09 at Fri Aug  2 17:39:18 2019.
