 Gaussian 09, Revision D.01,
 Gaussian 09:  ES64L-G09RevD.01 24-Apr-2013

 --------------------------
 # td=(NStates=1) B3LYP/SVP
 --------------------------

 --
 TD
 --
 Symbolic Z-matrix:
 Charge =  0 Multiplicity = 1

                         Standard orientation:
 ---------------------------------------------------------------------
 Center     Atomic      Atomic             Coordinates (Angstroms)
 Number     Number       Type             X           Y           Z
 ---------------------------------------------------------------------
      1          6           0       -5.082562   -1.962125    0.297095
      2          6           0       -4.767746    2.820847    1.241568
      3          6           0       -9.409733    3.191172   -0.203290
      4          6           0       -9.895642   -1.533811   -0.784996
      5          7           0       -5.232405    0.462470    0.855005
      6          6           0       -4.463195   -0.727592    0.850367
      7          6           0       -3.027685   -0.534052    1.390894
      8          6           0       -3.113522    0.855136    1.783504
      9          6           0       -4.447653    1.476194    1.254944
     10          6           0       -2.968869    1.192997    3.297353
     11          6           0       -2.001543   -0.749961    0.123208
     12          6           0       -0.544743   -0.737337    0.501488
     13          6           0        0.445803   -0.900580   -0.651642
     14          8           0        0.076418   -1.387578   -1.695420
     15          8           0        1.701975   -0.502155   -0.449916
     16          7           0       -7.058636    2.786502    0.455002
     17          6           0       -6.008225    3.410531    0.930608
     18          6           0       -6.255910    4.846642    0.868485
     19          6           0       -7.619749    4.945201    0.481833
     20          6           0       -8.117698    3.617433    0.105474
     21          6           0       -5.213509    5.925855    1.292532
     22          6           0       -8.279385    6.262854    0.202992
     23          6           0       -8.989734    6.598177   -0.853400
     24          7           0       -9.330424    0.747315   -0.355842
     25          6           0       -9.963767    1.997847   -0.519820
     26          6           0      -11.391230    1.766652   -0.762354
     27          6           0      -11.563859    0.440269   -0.973729
     28          6           0      -10.196182   -0.182322   -0.741951
     29          6           0      -12.405716    2.818690   -0.782198
     30          6           0      -12.801269   -0.352658   -1.231621
     31          6           0      -13.046366   -0.614476   -2.827665
     32          7           0       -7.478016   -1.277445   -0.267692
     33          6           0       -8.579261   -2.132935   -0.580148
     34          6           0       -8.094201   -3.377435   -0.572670
     35          6           0       -6.723014   -3.373883   -0.324610
     36          6           0       -6.403868   -2.057458   -0.053553
     37          6           0       -8.972123   -4.618668   -0.848346
     38          6           0       -5.623940   -4.221583   -0.003485
     39          8           0       -5.543704   -5.453990   -0.054080
     40          6           0       -4.443061   -3.279719    0.426407
     41          6           0       -3.854905   -3.724001    1.705882
     42          8           0       -4.201588   -3.267041    2.764648
     43          8           0       -2.936826   -4.740318    1.482986
     44          6           0       -2.319108   -5.274683    2.635412
     45          6           0        2.678047   -1.076282   -1.413279
     46          6           0        4.005263   -0.768761   -0.725198
     47          6           0        5.078273    0.023542   -1.257974
     48          6           0        5.015489    0.834785   -2.523717
     49          6           0        6.279930    0.175729   -0.425149
     50          6           0        7.555533   -0.542283   -1.006254
     51          6           0        8.842842   -0.293171   -0.209664
     52          6           0       10.096868   -0.889110   -0.827423
     53          6           0        9.979010   -2.491305   -0.697458
     54          6           0       11.331594   -0.327404   -0.014005
     55          6           0       12.601951   -0.529915   -0.628413
     56          6           0       13.822906    0.053334    0.156913
     57          6           0       15.208152   -0.146562   -0.266005
     58          6           0       15.733014   -1.741477   -0.098021
     59          6           0       16.195881    0.897703    0.470098
     60          6           0       17.629538    0.745249    0.069939
     61          6           0       18.573921    1.766202    0.555850
     62          6           0       20.080655    1.663904    0.197177
     63          6           0       20.433079    1.776957   -1.366490
     64          6           0       20.765938    2.664696    1.192068
     65          1           0       -4.037681    3.589427    1.431567
     66          1           0      -10.026940    4.154285   -0.248619
     67          1           0      -10.708213   -2.196882   -1.084183
     68          1           0       -2.726946   -1.356035    2.065178
     69          1           0       -2.197091    1.414248    1.195805
     70          1           0       -1.993745    0.836149    3.658871
     71          1           0       -3.126167    2.441578    3.401811
     72          1           0       -3.693427    0.603921    3.988037
     73          1           0       -2.382569   -1.809398   -0.379769
     74          1           0       -2.106233   -0.175828   -0.806020
     75          1           0       -0.162583    0.130800    1.013834
     76          1           0       -0.466284   -1.434817    1.254305
     77          1           0       -4.339579    6.002720    0.663684
     78          1           0       -5.784988    6.806548    1.329792
     79          1           0       -4.785106    5.356094    2.253548
     80          1           0       -7.768273    7.041436    0.739660
     81          1           0       -9.233138    5.830715   -1.729263
     82          1           0       -9.336763    7.592099   -1.239367
     83          1           0      -12.418723    3.385451    0.203000
     84          1           0      -12.473627    3.529695   -1.638550
     85          1           0      -13.311893    2.379022   -0.829127
     86          1           0      -12.732557   -1.219231   -0.609877
     87          1           0      -13.548984    0.149710   -0.856774
     88          1           0      -13.031096    0.344102   -3.459101
     89          1           0      -12.067832   -1.133852   -3.361209
     90          1           0      -13.935774   -1.135401   -3.135615
     91          1           0       -9.901359   -4.981062   -0.384520
     92          1           0       -9.362225   -4.637699   -1.864316
     93          1           0       -8.344208   -5.583248   -0.905768
     94          1           0       -3.791747   -3.383112   -0.543177
     95          1           0       -1.671777   -5.932294    2.063582
     96          1           0       -1.685756   -4.566816    3.007415
     97          1           0       -2.897698   -5.859807    3.287125
     98          1           0        2.404241   -2.175876   -1.628292
     99          1           0        2.475445   -0.508129   -2.303128
    100          1           0        4.056903   -1.401282    0.192117
    101          1           0        5.605204    1.651033   -2.606831
    102          1           0        5.489879    0.200964   -3.351480
    103          1           0        4.021889    0.970522   -3.148196
    104          1           0        6.511996    1.336544   -0.308351
    105          1           0        6.198176   -0.282066    0.652465
    106          1           0        7.237695   -1.750547   -1.077036
    107          1           0        7.733037   -0.300149   -2.179254
    108          1           0        9.031529    0.784792   -0.145355
    109          1           0        8.611251   -0.620919    0.845732
    110          1           0       10.221616   -0.408564   -1.816476
    111          1           0        9.313562   -2.929727   -1.261220
    112          1           0       10.940234   -2.857655   -0.992383
    113          1           0       10.007391   -2.805392    0.324840
    114          1           0       10.969133    0.936909    0.136318
    115          1           0       11.287757   -0.852041    1.008535
    116          1           0       12.958875   -1.529201   -0.783737
    117          1           0       12.955553   -0.144987   -1.568061
    118          1           0       13.374167    1.234088    0.326836
    119          1           0       13.668514   -0.200906    1.250682
    120          1           0       15.238187   -0.070097   -1.527530
    121          1           0       15.315154   -2.476741   -0.774123
    122          1           0       16.735422   -1.897856   -0.500527
    123          1           0       15.659984   -1.986376    1.067904
    124          1           0       15.548024    1.778808    0.345552
    125          1           0       16.021347    0.872925    1.614585
    126          1           0       17.817606   -0.325812    0.484954
    127          1           0       17.497585    0.762838   -1.054695
    128          1           0       18.075569    2.763846    0.359409
    129          1           0       18.848408    1.697703    1.733841
    130          1           0       20.304519    0.507208    0.621743
    131          1           0       20.102436    2.782670   -1.749472
    132          1           0       21.395566    1.733310   -1.615950
    133          1           0       19.949309    0.894272   -2.056831
    134          1           0       20.650180    2.670959    2.479901
    135          1           0       21.886223    2.522817    1.060073
    136          1           0       20.665031    3.807103    0.775995
    137          1           0       -6.982966    1.815668    0.308234
    138          1           0       -7.412783   -0.248702    0.040815
 ---------------------------------------------------------------------

 SCF Done:  E(RB3LYP) =  -2733.02306705     A.U. after   17 cycles

 Excitation energies and oscillator strengths:

 Excited State   1:      Singlet-A      2.0377 eV  608.46 nm  f=0.1820  <S**2>=0.000
     235 -> 237       -0.20335
     235 -> 238        0.29218
     236 -> 237        0.60170
 This state for optimization and/or second-order correction.
 Total Energy, E(TD-HF/TD-KS) =  -2732.94818399
 Copying the excited state density for this state as the 1-particle RhoCI density.

 The electronic state is 1-A.
 Alpha  occ. eigenvalues --  -19.17397 -19.17345 -19.13041 -19.11394 -19.11114
 Alpha  occ. eigenvalues --  -14.36689 -14.36123 -14.32898 -14.29558 -10.31696
 Alpha  occ. eigenvalues --  -10.30880 -10.26999 -10.25191 -10.24202 -10.23894
 Alpha  occ. eigenvalues --  -10.23368 -10.23122 -10.23119 -10.22866 -10.22095
 Alpha  occ. eigenvalues --  -10.21940 -10.21855 -10.21699 -10.21247 -10.21227
 Alpha  occ. eigenvalues --  -10.21209 -10.21201 -10.21147 -10.21101 -10.21034
 Alpha  occ. eigenvalues --  -10.20956 -10.20936 -10.20924 -10.20898 -10.20779
 Alpha  occ. eigenvalues --  -10.20764 -10.20731 -10.20663 -10.20634 -10.20634
 Alpha  occ. eigenvalues --  -10.20520 -10.20194 -10.20189 -10.20150 -10.20146
 Alpha  occ. eigenvalues --  -10.20141 -10.19789 -10.19499 -10.19348 -10.19280
 Alpha  occ. eigenvalues --  -10.19234 -10.19204 -10.18958 -10.18822 -10.18814
 Alpha  occ. eigenvalues --  -10.18680 -10.18643 -10.18531 -10.18361 -10.18210
 Alpha  occ. eigenvalues --  -10.18108 -10.17772 -10.17551 -10.16871  -1.09098
 Alpha  occ. eigenvalues --   -1.08694  -1.01506  -1.00680  -0.99746  -0.99353
 Alpha  occ. eigenvalues --   -0.97895  -0.93655  -0.92810  -0.85666  -0.82347
 Alpha  occ. eigenvalues --   -0.81854  -0.81563  -0.81071  -0.80770  -0.80569
 Alpha  occ. eigenvalues --   -0.79969  -0.79732  -0.78905  -0.78469  -0.77343
 Alpha  occ. eigenvalues --   -0.76332  -0.76190  -0.76079  -0.74943  -0.74439
 Alpha  occ. eigenvalues --   -0.73577  -0.73073  -0.72419  -0.71649  -0.70761
 Alpha  occ. eigenvalues --   -0.69763  -0.69091  -0.68903  -0.68026  -0.67879
 Alpha  occ. eigenvalues --   -0.67703  -0.67212  -0.66424  -0.66099  -0.64716
 Alpha  occ. eigenvalues --   -0.64087  -0.62881  -0.62483  -0.62071  -0.61690
 Alpha  occ. eigenvalues --   -0.60977  -0.58811  -0.58194  -0.57498  -0.57025
 Alpha  occ. eigenvalues --   -0.56510  -0.56247  -0.55794  -0.55606  -0.55414
 Alpha  occ. eigenvalues --   -0.55093  -0.54207  -0.53917  -0.53701  -0.53291
 Alpha  occ. eigenvalues --   -0.53163  -0.52463  -0.51688  -0.51527  -0.50812
 Alpha  occ. eigenvalues --   -0.49694  -0.49580  -0.49263  -0.48725  -0.47930
 Alpha  occ. eigenvalues --   -0.47803  -0.47592  -0.47239  -0.47071  -0.46646
 Alpha  occ. eigenvalues --   -0.46148  -0.46073  -0.45825  -0.45709  -0.45454
 Alpha  occ. eigenvalues --   -0.45306  -0.44959  -0.44825  -0.44539  -0.44419
 Alpha  occ. eigenvalues --   -0.44319  -0.44213  -0.43861  -0.43632  -0.43346
 Alpha  occ. eigenvalues --   -0.43263  -0.43119  -0.43004  -0.42654  -0.42545
 Alpha  occ. eigenvalues --   -0.42391  -0.42274  -0.41917  -0.41659  -0.41448
 Alpha  occ. eigenvalues --   -0.41287  -0.41056  -0.40861  -0.39966  -0.39753
 Alpha  occ. eigenvalues --   -0.39651  -0.39536  -0.39439  -0.39068  -0.39003
 Alpha  occ. eigenvalues --   -0.38760  -0.38575  -0.38493  -0.38103  -0.38006
 Alpha  occ. eigenvalues --   -0.37974  -0.37857  -0.37687  -0.37631  -0.37464
 Alpha  occ. eigenvalues --   -0.37382  -0.37283  -0.37074  -0.37008  -0.36707
 Alpha  occ. eigenvalues --   -0.36501  -0.36205  -0.36001  -0.35867  -0.35574
 Alpha  occ. eigenvalues --   -0.35413  -0.35198  -0.35065  -0.34920  -0.34826
 Alpha  occ. eigenvalues --   -0.34698  -0.34541  -0.34407  -0.34163  -0.33874
 Alpha  occ. eigenvalues --   -0.33522  -0.33510  -0.32994  -0.32506  -0.32462
 Alpha  occ. eigenvalues --   -0.31925  -0.31754  -0.31477  -0.31154  -0.31006
 Alpha  occ. eigenvalues --   -0.30858  -0.30820  -0.30500  -0.30401  -0.30132
 Alpha  occ. eigenvalues --   -0.29459  -0.28949  -0.28547  -0.27941  -0.27850
 Alpha  occ. eigenvalues --   -0.27550  -0.27079  -0.26326  -0.25792  -0.25770
 Alpha  occ. eigenvalues --   -0.24211  -0.23972  -0.23704  -0.22820  -0.19390
 Alpha  occ. eigenvalues --   -0.19100
 Alpha virt. eigenvalues --   -0.10604  -0.07095  -0.04244  -0.02171  -0.01650
 Alpha virt. eigenvalues --   -0.00570   0.00651   0.00720   0.01933   0.03323
 Alpha virt. eigenvalues --    0.03346   0.03740   0.04358   0.04456   0.04599

 Mulliken charges:
               1
     1  C   -0.109345
     2  C   -0.056479
     3  C   -0.079558
     4  C   -0.072281
     5  N   -0.226993
     6  C   -0.029650
     7  C    0.013663
     8  C   -0.022240
     9  C    0.054777
    10  C    0.005258
    11  C   -0.066885
    12  C    0.138638
    13  C    0.151843
    14  O   -0.246373
    15  O   -0.316696
    16  N    0.017000
    17  C    0.014779
    18  C   -0.159006
    19  C   -0.019008
    20  C    0.031368
    21  C    0.114921
    22  C    0.018478
    23  C   -0.090187
    24  N   -0.234398
    25  C    0.116703
    26  C   -0.137946
    27  C   -0.118271
    28  C    0.055532
    29  C    0.156206
    30  C    0.199978
    31  C   -0.054279
    32  N   -0.086063
    33  C    0.113172
    34  C   -0.094413
    35  C    0.024905
    36  C    0.106195
    37  C    0.050132
    38  C    0.003028
    39  O   -0.191229
    40  C   -0.010481
    41  C    0.238587
    42  O   -0.212620
    43  O   -0.329135
    44  C    0.258734
    45  C    0.247730
    46  C   -0.098351
    47  C   -0.072132
    48  C    0.083952
    49  C    0.025046
    50  C   -0.098145
    51  C    0.068949
    52  C   -0.068314
    53  C    0.145234
    54  C   -0.031855
    55  C    0.134956
    56  C   -0.085742
    57  C   -0.099422
    58  C   -0.012493
    59  C   -0.016558
    60  C    0.093607
    61  C   -0.004354
    62  C   -0.118425
    63  C    0.040069
    64  C   -0.072100
    65  H   -0.040011
    66  H    0.005096
    67  H   -0.018188
    68  H    0.018752
    69  H    0.022807
    70  H    0.014287
    71  H    0.039138
    72  H    0.038165
    73  H    0.028963
    74  H    0.012067
    75  H    0.004080
    76  H   -0.010804
    77  H    0.031858
    78  H    0.009867
    79  H    0.052256
    80  H   -0.007583
    81  H    0.046758
    82  H    0.038956
    83  H    0.022460
    84  H    0.023658
    85  H   -0.050602
    86  H   -0.004653
    87  H   -0.059105
    88  H    0.018910
    89  H    0.026826
    90  H    0.021877
    91  H    0.021781
    92  H    0.002522
    93  H    0.032463
    94  H    0.087459
    95  H    0.013943
    96  H   -0.010721
    97  H    0.032035
    98  H    0.051017
    99  H    0.002128
   100  H    0.006589
   101  H   -0.012969
   102  H    0.021195
   103  H    0.034755
   104  H    0.023105
   105  H    0.023208
   106  H    0.019921
   107  H    0.008477
   108  H   -0.019320
   109  H   -0.006621
   110  H   -0.007093
   111  H   -0.019712
   112  H   -0.024974
   113  H   -0.007077
   114  H    0.017450
   115  H    0.010123
   116  H   -0.028988
   117  H   -0.028907
   118  H   -0.005714
   119  H   -0.013697
   120  H    0.008720
   121  H    0.004540
   122  H    0.008178
   123  H    0.035355
   124  H   -0.012869
   125  H   -0.008141
   126  H    0.018404
   127  H    0.006206
   128  H    0.001185
   129  H    0.009290
   130  H    0.014127
   131  H    0.014306
   132  H   -0.017995
   133  H    0.033750
   134  H    0.060294
   135  H    0.011852
   136  H    0.026536
   137  H    0.109992
   138  H    0.186044
 Sum of Mulliken charges =   0.00000

 Dipole moment (field-independent basis, Debye):
    X=              4.0342    Y=              4.4399    Z=             -0.3165  Tot=              6.0072
 Quadrupole moment (field-independent basis, Debye-Ang):
   XX=           -328.8333   YY=           -385.1570   ZZ=           -393.4348
   XY=            -32.8695   XZ=              3.5362   YZ=             -6.7445

 Normal termination of Gaussian 09 at Sat Jul 27 08:07:21 2019.
