 Gaussian 09, Revision D.01,
 Gaussian 09:  ES64L-G09RevD.01 24-Apr-2013

 --------------------------
 # td=(NStates=1) B3LYP/SVP
 --------------------------

 --
 TD
 --
 Symbolic Z-matrix:
 Charge =  0 Multiplicity = 1

                         Standard orientation:
 ---------------------------------------------------------------------
 Center     Atomic      Atomic             Coordinates (Angstroms)
 Number     Number       Type             X           Y           Z
 ---------------------------------------------------------------------
      1          6           0       -5.142505   -1.961001    0.438825
      2          6           0       -4.714502    2.827646    1.344442
      3          6           0       -9.359446    3.275562   -0.127162
      4          6           0       -9.796826   -1.437647   -0.906454
      5          7           0       -5.196341    0.409702    0.770341
      6          6           0       -4.548255   -0.761369    0.780418
      7          6           0       -3.030192   -0.707372    1.299287
      8          6           0       -3.057862    0.829001    1.844862
      9          6           0       -4.402351    1.398730    1.309712
     10          6           0       -3.012691    0.818114    3.396704
     11          6           0       -2.138585   -0.785427    0.054592
     12          6           0       -0.650198   -0.668255    0.441192
     13          6           0        0.317964   -1.065726   -0.463802
     14          8           0        0.131619   -1.581274   -1.619004
     15          8           0        1.658095   -0.684703   -0.176701
     16          7           0       -7.089147    2.790566    0.536047
     17          6           0       -5.911476    3.487743    1.003331
     18          6           0       -6.169249    4.815503    0.990507
     19          6           0       -7.537233    4.910734    0.569308
     20          6           0       -8.023859    3.705368    0.239023
     21          6           0       -5.210668    6.022245    1.486178
     22          6           0       -8.316219    6.121189    0.678503
     23          6           0       -9.149510    6.603482   -0.383615
     24          7           0       -9.209524    0.858651   -0.541378
     25          6           0       -9.848519    2.012902   -0.484156
     26          6           0      -11.265755    1.895254   -1.010647
     27          6           0      -11.427841    0.563552   -1.290197
     28          6           0      -10.079668   -0.109685   -0.968078
     29          6           0      -12.293549    2.925784   -1.247532
     30          6           0      -12.595664   -0.142570   -1.879739
     31          6           0      -12.460736   -0.359068   -3.421052
     32          7           0       -7.503850   -1.212038   -0.288481
     33          6           0       -8.511192   -2.003414   -0.639914
     34          6           0       -8.234744   -3.410263   -0.670183
     35          6           0       -6.934751   -3.434844   -0.181848
     36          6           0       -6.507070   -2.064278    0.018790
     37          6           0       -9.101290   -4.543454   -1.155804
     38          6           0       -5.775025   -4.236490    0.067861
     39          8           0       -5.731321   -5.488152    0.019463
     40          6           0       -4.558061   -3.381419    0.572092
     41          6           0       -3.985445   -3.814990    1.855831
     42          8           0       -4.194897   -3.345855    2.934283
     43          8           0       -3.009592   -4.779895    1.604871
     44          6           0       -2.445053   -5.430698    2.702732
     45          6           0        2.761149   -1.090759   -1.126866
     46          6           0        3.988120   -0.639034   -0.480156
     47          6           0        5.136506   -0.078843   -1.057774
     48          6           0        5.171170    0.498958   -2.516590
     49          6           0        6.336180    0.266685   -0.259635
     50          6           0        7.531388   -0.419080   -0.961285
     51          6           0        8.779326   -0.224760   -0.167293
     52          6           0       10.138087   -0.936945   -0.690834
     53          6           0       10.023246   -2.427166   -0.666541
     54          6           0       11.304328   -0.327384   -0.011942
     55          6           0       12.681854   -0.669988   -0.578940
     56          6           0       13.737822    0.033163    0.152015
     57          6           0       15.188632   -0.191188   -0.441826
     58          6           0       15.491404   -1.751474   -0.358282
     59          6           0       16.308371    0.661080    0.357903
     60          6           0       17.628285    0.734303   -0.197653
     61          6           0       18.644028    1.637027    0.453835
     62          6           0       20.099170    1.796584   -0.037449
     63          6           0       20.079228    2.520253   -1.420306
     64          6           0       20.915414    2.461233    1.105566
     65          1           0       -4.006514    3.355284    1.959583
     66          1           0       -9.978636    3.941108    0.041130
     67          1           0      -10.608759   -2.136284   -1.357809
     68          1           0       -2.629750   -1.200011    2.055947
     69          1           0       -2.189323    1.528225    1.431224
     70          1           0       -2.052659    0.278836    3.715584
     71          1           0       -3.267836    1.887883    3.815836
     72          1           0       -3.789785    0.252931    3.735463
     73          1           0       -2.306195   -1.649441   -0.556315
     74          1           0       -2.308374   -0.017875   -0.530740
     75          1           0       -0.357833    0.199404    1.150327
     76          1           0       -0.629928   -1.561928    1.263836
     77          1           0       -4.382460    6.119096    0.727051
     78          1           0       -5.475219    7.070644    1.546996
     79          1           0       -4.765900    5.920662    2.578608
     80          1           0       -7.994580    7.068932    1.296903
     81          1           0       -9.288397    6.122617   -1.329722
     82          1           0       -9.599556    7.637106   -0.228566
     83          1           0      -12.440554    3.380542   -0.439127
     84          1           0      -12.139175    3.762068   -2.196585
     85          1           0      -13.236799    2.532715   -1.591248
     86          1           0      -12.718220   -0.847571   -1.224591
     87          1           0      -13.524068    0.297624   -1.763368
     88          1           0      -12.154175    0.567305   -3.795539
     89          1           0      -11.505405   -1.061202   -3.707311
     90          1           0      -13.300055   -0.909628   -3.885258
     91          1           0      -10.194691   -4.428381   -0.719526
     92          1           0       -9.128877   -4.756771   -2.483445
     93          1           0       -8.693185   -5.371830   -0.753292
     94          1           0       -3.729351   -3.543659   -0.091571
     95          1           0       -1.502453   -5.995429    2.473339
     96          1           0       -2.072814   -4.606540    3.208509
     97          1           0       -3.269878   -5.803803    3.382737
     98          1           0        2.705421   -2.136960   -1.203424
     99          1           0        2.463317   -0.678221   -1.997641
    100          1           0        4.012996   -0.625911    0.770005
    101          1           0        5.628009    1.541427   -2.430358
    102          1           0        5.480602   -0.286432   -3.084695
    103          1           0        4.215696    0.584670   -2.797165
    104          1           0        6.327332    1.361652   -0.187459
    105          1           0        6.109478    0.021912    0.693245
    106          1           0        7.280180   -1.534726   -1.039984
    107          1           0        7.574228   -0.061709   -1.964563
    108          1           0        8.750994    0.841377   -0.023742
    109          1           0        8.818928   -0.717288    0.860841
    110          1           0       10.306109   -0.752434   -1.738209
    111          1           0        9.086971   -2.730055   -1.342466
    112          1           0       10.940041   -3.084844   -0.752936
    113          1           0        9.754337   -2.843893    0.373551
    114          1           0       11.153684    0.703200   -0.175495
    115          1           0       11.210605   -0.413606    1.109574
    116          1           0       12.766903   -1.801479   -0.563264
    117          1           0       12.705288   -0.205935   -1.688474
    118          1           0       13.551485    1.086532    0.004921
    119          1           0       13.815679   -0.452797    1.161281
    120          1           0       15.286367    0.231688   -1.600825
    121          1           0       14.824589   -2.486501   -0.930448
    122          1           0       16.695951   -1.997733   -0.620830
    123          1           0       15.305501   -1.996938    0.853780
    124          1           0       15.804217    1.731084    0.566331
    125          1           0       16.309702    0.313076    1.420000
    126          1           0       17.969761   -0.425204   -0.195539
    127          1           0       17.664203    0.995029   -1.167234
    128          1           0       18.206320    2.543131    0.503779
    129          1           0       18.579561    1.297313    1.484113
    130          1           0       20.517522    0.756774   -0.293806
    131          1           0       19.450388    3.441212   -1.433416
    132          1           0       21.018992    3.024537   -1.825892
    133          1           0       19.675846    1.770300   -2.210513
    134          1           0       20.868337    2.008288    2.069739
    135          1           0       21.894510    2.694677    0.779276
    136          1           0       20.548816    3.386696    1.385853
    137          1           0       -6.969399    1.748990    0.224233
    138          1           0       -7.301363   -0.257683   -0.319933
 ---------------------------------------------------------------------

 SCF Done:  E(RB3LYP) =  -2732.97777903     A.U. after   18 cycles

 Excitation energies and oscillator strengths:

 Excited State   1:      Singlet-A      2.0083 eV  617.35 nm  f=0.2357  <S**2>=0.000
     235 -> 237       -0.31354
     235 -> 238        0.24630
     236 -> 237        0.56626
     236 -> 238        0.13368
 This state for optimization and/or second-order correction.
 Total Energy, E(TD-HF/TD-KS) =  -2732.90397435
 Copying the excited state density for this state as the 1-particle RhoCI density.

 The electronic state is 1-A.
 Alpha  occ. eigenvalues --  -19.16998 -19.15444 -19.13422 -19.11681 -19.11216
 Alpha  occ. eigenvalues --  -14.38332 -14.36375 -14.33547 -14.30135 -10.32043
 Alpha  occ. eigenvalues --  -10.31259 -10.27892 -10.24321 -10.24105 -10.23947
 Alpha  occ. eigenvalues --  -10.23876 -10.23808 -10.23362 -10.23284 -10.23112
 Alpha  occ. eigenvalues --  -10.22262 -10.22106 -10.21979 -10.21907 -10.21818
 Alpha  occ. eigenvalues --  -10.21761 -10.21753 -10.21685 -10.21594 -10.21052
 Alpha  occ. eigenvalues --  -10.21039 -10.21028 -10.20953 -10.20821 -10.20527
 Alpha  occ. eigenvalues --  -10.20500 -10.20244 -10.20049 -10.19977 -10.19965
 Alpha  occ. eigenvalues --  -10.19674 -10.19557 -10.19509 -10.19402 -10.19020
 Alpha  occ. eigenvalues --  -10.19001 -10.18948 -10.18898 -10.18858 -10.18829
 Alpha  occ. eigenvalues --  -10.18776 -10.18774 -10.18758 -10.18661 -10.18451
 Alpha  occ. eigenvalues --  -10.18373 -10.18200 -10.17931 -10.17678 -10.17572
 Alpha  occ. eigenvalues --  -10.17157 -10.17129 -10.16572 -10.16493  -1.09358
 Alpha  occ. eigenvalues --   -1.04399  -1.01772  -1.01671  -1.00236  -0.97943
 Alpha  occ. eigenvalues --   -0.95781  -0.94250  -0.93751  -0.85329  -0.82855
 Alpha  occ. eigenvalues --   -0.82489  -0.82100  -0.81847  -0.81175  -0.80987
 Alpha  occ. eigenvalues --   -0.80756  -0.80297  -0.79210  -0.79085  -0.78075
 Alpha  occ. eigenvalues --   -0.77068  -0.76542  -0.75977  -0.75286  -0.74404
 Alpha  occ. eigenvalues --   -0.73863  -0.73433  -0.72763  -0.71622  -0.71122
 Alpha  occ. eigenvalues --   -0.70216  -0.69495  -0.69375  -0.68875  -0.68376
 Alpha  occ. eigenvalues --   -0.68264  -0.67087  -0.66951  -0.65625  -0.64586
 Alpha  occ. eigenvalues --   -0.64177  -0.63541  -0.63161  -0.62900  -0.61670
 Alpha  occ. eigenvalues --   -0.61075  -0.60084  -0.59116  -0.59037  -0.57920
 Alpha  occ. eigenvalues --   -0.57435  -0.57015  -0.56267  -0.56111  -0.55848
 Alpha  occ. eigenvalues --   -0.55276  -0.55142  -0.53433  -0.53328  -0.53127
 Alpha  occ. eigenvalues --   -0.52874  -0.52660  -0.51690  -0.51243  -0.50460
 Alpha  occ. eigenvalues --   -0.50130  -0.49676  -0.49300  -0.48949  -0.48714
 Alpha  occ. eigenvalues --   -0.48367  -0.47852  -0.47603  -0.47302  -0.47000
 Alpha  occ. eigenvalues --   -0.46363  -0.46196  -0.46069  -0.45853  -0.45642
 Alpha  occ. eigenvalues --   -0.45461  -0.45278  -0.45084  -0.44889  -0.44751
 Alpha  occ. eigenvalues --   -0.44475  -0.44405  -0.44318  -0.44125  -0.43693
 Alpha  occ. eigenvalues --   -0.43568  -0.43259  -0.43245  -0.43095  -0.43040
 Alpha  occ. eigenvalues --   -0.42769  -0.42243  -0.42178  -0.42033  -0.41963
 Alpha  occ. eigenvalues --   -0.41338  -0.41047  -0.40828  -0.40719  -0.40249
 Alpha  occ. eigenvalues --   -0.40186  -0.40119  -0.39806  -0.39436  -0.39395
 Alpha  occ. eigenvalues --   -0.39325  -0.39082  -0.38932  -0.38836  -0.38627
 Alpha  occ. eigenvalues --   -0.38464  -0.38119  -0.37809  -0.37757  -0.37361
 Alpha  occ. eigenvalues --   -0.37236  -0.37074  -0.37062  -0.36989  -0.36855
 Alpha  occ. eigenvalues --   -0.36693  -0.36527  -0.36248  -0.36066  -0.35854
 Alpha  occ. eigenvalues --   -0.35825  -0.35655  -0.35576  -0.35374  -0.35057
 Alpha  occ. eigenvalues --   -0.34631  -0.34621  -0.34504  -0.34264  -0.33673
 Alpha  occ. eigenvalues --   -0.33591  -0.32902  -0.32835  -0.32697  -0.32519
 Alpha  occ. eigenvalues --   -0.31809  -0.31803  -0.31695  -0.31617  -0.31320
 Alpha  occ. eigenvalues --   -0.31153  -0.30770  -0.29999  -0.29983  -0.29582
 Alpha  occ. eigenvalues --   -0.29330  -0.28847  -0.28611  -0.28427  -0.28374
 Alpha  occ. eigenvalues --   -0.28151  -0.27572  -0.26703  -0.26302  -0.26182
 Alpha  occ. eigenvalues --   -0.24875  -0.23496  -0.23202  -0.23160  -0.19718
 Alpha  occ. eigenvalues --   -0.19658
 Alpha virt. eigenvalues --   -0.11381  -0.07240  -0.05276  -0.03191  -0.02070
 Alpha virt. eigenvalues --   -0.00989  -0.00530  -0.00006   0.01792   0.03294
 Alpha virt. eigenvalues --    0.03511   0.03878   0.04449   0.04584   0.04896

 Mulliken charges:
               1
     1  C    0.045563
     2  C   -0.042030
     3  C    0.019299
     4  C   -0.104045
     5  N   -0.182923
     6  C   -0.086981
     7  C    0.006274
     8  C   -0.145826
     9  C   -0.012023
    10  C    0.085602
    11  C    0.194546
    12  C   -0.020996
    13  C    0.212407
    14  O   -0.302210
    15  O   -0.408170
    16  N   -0.140304
    17  C    0.100663
    18  C   -0.058144
    19  C    0.039811
    20  C    0.091328
    21  C    0.032272
    22  C   -0.087403
    23  C   -0.073928
    24  N   -0.199241
    25  C    0.069685
    26  C   -0.135807
    27  C   -0.121806
    28  C    0.037901
    29  C    0.148930
    30  C    0.198488
    31  C    0.000609
    32  N    0.091211
    33  C    0.065180
    34  C   -0.145618
    35  C    0.068309
    36  C   -0.012577
    37  C    0.063300
    38  C    0.020656
    39  O   -0.211433
    40  C    0.057209
    41  C    0.189764
    42  O   -0.193212
    43  O   -0.336142
    44  C    0.223387
    45  C    0.396136
    46  C   -0.140537
    47  C   -0.278265
    48  C    0.198870
    49  C    0.169759
    50  C    0.020322
    51  C    0.023218
    52  C   -0.006999
    53  C   -0.032719
    54  C    0.052509
    55  C   -0.000606
    56  C    0.080983
    57  C   -0.115940
    58  C   -0.087922
    59  C   -0.012204
    60  C    0.123077
    61  C    0.056259
    62  C   -0.066776
    63  C   -0.025420
    64  C    0.118458
    65  H   -0.022670
    66  H   -0.138201
    67  H    0.017010
    68  H   -0.053578
    69  H    0.028107
    70  H    0.029178
    71  H    0.026955
    72  H   -0.002542
    73  H    0.011240
    74  H   -0.039969
    75  H    0.058733
    76  H    0.052327
    77  H    0.033059
    78  H    0.008662
    79  H    0.043127
    80  H    0.035945
    81  H    0.035351
    82  H    0.040168
    83  H   -0.034057
    84  H    0.028793
    85  H   -0.008712
    86  H   -0.050671
    87  H   -0.046160
    88  H    0.010923
    89  H    0.012832
    90  H    0.028612
    91  H    0.046369
    92  H    0.067298
    93  H    0.007983
    94  H    0.039403
    95  H    0.044613
    96  H   -0.022847
    97  H    0.034298
    98  H    0.008978
    99  H   -0.017260
   100  H    0.033651
   101  H    0.039262
   102  H   -0.000377
   103  H   -0.047355
   104  H   -0.001424
   105  H   -0.062030
   106  H    0.009457
   107  H   -0.002795
   108  H   -0.014332
   109  H    0.003898
   110  H   -0.031757
   111  H    0.029861
   112  H    0.023211
   113  H   -0.011169
   114  H   -0.037930
   115  H   -0.017732
   116  H    0.007199
   117  H    0.002857
   118  H   -0.007342
   119  H    0.001178
   120  H    0.010898
   121  H    0.047151
   122  H    0.040007
   123  H    0.018518
   124  H   -0.012135
   125  H   -0.015094
   126  H   -0.006639
   127  H   -0.058380
   128  H   -0.049255
   129  H   -0.028338
   130  H    0.004724
   131  H    0.001434
   132  H    0.011873
   133  H    0.033787
   134  H   -0.005741
   135  H   -0.009174
   136  H   -0.033009
   137  H    0.187012
   138  H    0.118958
 Sum of Mulliken charges =   0.00000

 Dipole moment (field-independent basis, Debye):
    X=              0.5693    Y=              5.2050    Z=              0.5451  Tot=              5.2643
 Quadrupole moment (field-independent basis, Debye-Ang):
   XX=           -348.8035   YY=           -384.2446   ZZ=           -394.2759
   XY=            -13.8112   XZ=             14.2063   YZ=             -0.8584

 Normal termination of Gaussian 09 at Fri Jul 26 05:07:38 2019.
