 Gaussian 09, Revision D.01,
 Gaussian 09:  ES64L-G09RevD.01 24-Apr-2013

 --------------------------
 # td=(NStates=1) B3LYP/SVP
 --------------------------

 --
 TD
 --
 Symbolic Z-matrix:
 Charge =  0 Multiplicity = 1

                         Standard orientation:
 ---------------------------------------------------------------------
 Center     Atomic      Atomic             Coordinates (Angstroms)
 Number     Number       Type             X           Y           Z
 ---------------------------------------------------------------------
      1          6           0       -4.952581   -1.977353    0.347489
      2          6           0       -5.058519    2.768545    1.390315
      3          6           0       -9.616634    3.124787   -0.262529
      4          6           0       -9.804177   -1.607253   -0.795574
      5          7           0       -5.214930    0.427361    0.773221
      6          6           0       -4.409078   -0.664845    0.851100
      7          6           0       -2.960680   -0.342196    1.287845
      8          6           0       -3.155458    1.064921    1.872967
      9          6           0       -4.513859    1.412034    1.288744
     10          6           0       -3.107252    1.236481    3.379548
     11          6           0       -2.063635   -0.537344    0.048802
     12          6           0       -0.537082   -0.392750    0.487010
     13          6           0        0.369259   -0.567372   -0.734962
     14          8           0        0.077459   -0.728348   -1.913736
     15          8           0        1.772079   -0.599184   -0.255970
     16          7           0       -7.285519    2.652299    0.527680
     17          6           0       -6.220975    3.371174    1.025647
     18          6           0       -6.539308    4.747842    1.058624
     19          6           0       -7.815558    4.872874    0.444667
     20          6           0       -8.357083    3.531806    0.185224
     21          6           0       -5.589412    5.836592    1.310207
     22          6           0       -8.588854    6.085853    0.204093
     23          6           0       -9.601334    6.285790   -0.693929
     24          7           0       -9.247510    0.723602   -0.510355
     25          6           0      -10.041674    1.832987   -0.510028
     26          6           0      -11.393389    1.567453   -0.850510
     27          6           0      -11.555904    0.166863   -1.040566
     28          6           0      -10.166412   -0.305622   -0.892410
     29          6           0      -12.494584    2.581449   -1.036935
     30          6           0      -12.661869   -0.627643   -1.582861
     31          6           0      -12.571576   -1.033602   -3.089415
     32          7           0       -7.433512   -1.395115   -0.036183
     33          6           0       -8.490409   -2.156737   -0.457841
     34          6           0       -8.028699   -3.430934   -0.527811
     35          6           0       -6.660218   -3.389418   -0.031016
     36          6           0       -6.346610   -2.100822    0.182769
     37          6           0       -8.662262   -4.763906   -0.966883
     38          6           0       -5.551376   -4.241024    0.035477
     39          8           0       -5.445159   -5.488450    0.131276
     40          6           0       -4.340771   -3.301114    0.421006
     41          6           0       -3.702846   -3.739551    1.727696
     42          8           0       -3.824913   -3.274270    2.821127
     43          8           0       -2.601379   -4.639062    1.459743
     44          6           0       -1.971752   -5.303454    2.569146
     45          6           0        2.666761   -0.650934   -1.428500
     46          6           0        3.972330   -0.468848   -0.751556
     47          6           0        5.034863    0.395914   -1.141814
     48          6           0        5.071665    1.238891   -2.344886
     49          6           0        6.257812    0.502641   -0.185062
     50          6           0        7.514607   -0.113556   -0.976249
     51          6           0        8.794258    0.016067   -0.098857
     52          6           0       10.052067   -0.655334   -0.699414
     53          6           0       10.042448   -2.152652   -1.025864
     54          6           0       11.324716   -0.174192    0.055303
     55          6           0       12.663804   -0.616064   -0.653560
     56          6           0       13.861334   -0.226748    0.197871
     57          6           0       15.252059   -0.393628   -0.482167
     58          6           0       15.607370   -1.930684   -0.443124
     59          6           0       16.295804    0.377868    0.467924
     60          6           0       17.751476    0.490322   -0.226859
     61          6           0       18.627525    1.299434    0.649886
     62          6           0       20.076540    1.617673    0.133732
     63          6           0       20.115357    2.462934   -1.172828
     64          6           0       20.931321    2.177335    1.319353
     65          1           0       -4.335726    3.540999    1.842168
     66          1           0      -10.219062    4.037235   -0.293172
     67          1           0      -10.406872   -2.389427   -1.239346
     68          1           0       -2.839159   -0.954921    1.982950
     69          1           0       -2.414245    1.755068    1.252521
     70          1           0       -2.115301    1.173216    3.913803
     71          1           0       -3.582427    2.140035    3.662407
     72          1           0       -3.638961    0.411970    3.969358
     73          1           0       -2.016328   -1.600611   -0.534157
     74          1           0       -2.216831    0.168145   -0.729170
     75          1           0       -0.304120    0.286495    0.864415
     76          1           0       -0.442989   -1.229173    1.159942
     77          1           0       -4.720176    5.990102    0.791000
     78          1           0       -5.951632    6.752133    1.304603
     79          1           0       -5.034901    5.581497    2.223168
     80          1           0       -8.437266    6.999490    0.874696
     81          1           0       -9.977976    5.492814   -1.577633
     82          1           0      -10.356900    7.163782   -0.644885
     83          1           0      -12.545561    3.189204   -0.141140
     84          1           0      -12.027385    3.167918   -2.048889
     85          1           0      -13.354636    2.128506   -1.378356
     86          1           0      -12.541624   -1.494249   -0.842419
     87          1           0      -13.634605   -0.196847   -1.426809
     88          1           0      -12.807509   -0.232019   -3.660531
     89          1           0      -11.683715   -1.677398   -3.272310
     90          1           0      -13.296424   -1.955137   -3.297512
     91          1           0       -9.385098   -5.103845   -0.165869
     92          1           0       -9.262835   -4.811778   -2.024624
     93          1           0       -7.940992   -5.633739   -1.025750
     94          1           0       -3.616892   -3.623100   -0.459214
     95          1           0       -1.241083   -6.180708    2.096584
     96          1           0       -1.264807   -4.473375    3.190240
     97          1           0       -2.528191   -5.857467    3.218969
     98          1           0        2.589988   -1.520920   -2.035235
     99          1           0        2.429137    0.353192   -2.219437
    100          1           0        4.022152   -0.946298    0.134582
    101          1           0        5.518954    2.133894   -2.323380
    102          1           0        5.454858    0.534823   -3.104553
    103          1           0        3.992606    1.448349   -2.775905
    104          1           0        6.314823    1.517232   -0.131774
    105          1           0        6.158904    0.117669    0.709978
    106          1           0        7.152656   -1.147308   -0.938627
    107          1           0        7.748235    0.385787   -1.806926
    108          1           0        8.954984    1.106232   -0.030021
    109          1           0        8.779880   -0.505073    0.881842
    110          1           0       10.191971   -0.345745   -1.708693
    111          1           0        9.232821   -2.217949   -1.676359
    112          1           0       10.977107   -2.497617   -1.518923
    113          1           0        9.941070   -2.735834   -0.114748
    114          1           0       11.333059    0.756729    0.488315
    115          1           0       11.222014   -0.517635    0.990645
    116          1           0       12.606205   -1.806410   -0.946082
    117          1           0       12.624582   -0.274086   -1.757694
    118          1           0       13.840499    0.854931    0.803710
    119          1           0       14.110039   -0.832519    1.109667
    120          1           0       15.276851   -0.078166   -1.604586
    121          1           0       14.907813   -2.353915   -1.117049
    122          1           0       16.469873   -2.134804   -0.947746
    123          1           0       15.700594   -2.317124    0.629690
    124          1           0       15.800753    1.467701    0.531886
    125          1           0       16.419314   -0.213613    1.319063
    126          1           0       18.117329   -0.570476   -0.291949
    127          1           0       17.420172    0.906583   -1.340900
    128          1           0       18.214042    2.469403    0.798480
    129          1           0       18.558291    0.594485    1.613869
    130          1           0       20.469920    0.529775   -0.298602
    131          1           0       19.932012    3.834945   -0.830949
    132          1           0       21.149453    2.442563   -1.310932
    133          1           0       19.614766    2.355662   -2.268990
    134          1           0       21.119122    1.393688    2.268710
    135          1           0       22.110495    2.452578    0.837316
    136          1           0       20.527900    3.271207    1.581135
    137          1           0       -7.369076    1.657786    0.530943
    138          1           0       -7.557614   -0.362753    0.034521
 ---------------------------------------------------------------------

 SCF Done:  E(RB3LYP) =  -2732.84094391     A.U. after   18 cycles

 Excitation energies and oscillator strengths:

 Excited State   1:      Singlet-A      2.0605 eV  601.71 nm  f=0.1607  <S**2>=0.000
     235 -> 237       -0.35819
     235 -> 238       -0.24700
     236 -> 237        0.51384
     236 -> 238       -0.20646
 This state for optimization and/or second-order correction.
 Total Energy, E(TD-HF/TD-KS) =  -2732.76522084
 Copying the excited state density for this state as the 1-particle RhoCI density.

 The electronic state is 1-A.
 Alpha  occ. eigenvalues --  -19.16729 -19.16149 -19.14548 -19.13558 -19.10910
 Alpha  occ. eigenvalues --  -14.36668 -14.36501 -14.33300 -14.30469 -10.32423
 Alpha  occ. eigenvalues --  -10.32218 -10.26727 -10.25280 -10.24635 -10.24443
 Alpha  occ. eigenvalues --  -10.24178 -10.24081 -10.24011 -10.22883 -10.22463
 Alpha  occ. eigenvalues --  -10.22375 -10.22260 -10.22216 -10.22172 -10.21926
 Alpha  occ. eigenvalues --  -10.21720 -10.21691 -10.21524 -10.21479 -10.21451
 Alpha  occ. eigenvalues --  -10.21173 -10.21172 -10.21142 -10.20686 -10.20553
 Alpha  occ. eigenvalues --  -10.20509 -10.20254 -10.20076 -10.20067 -10.20054
 Alpha  occ. eigenvalues --  -10.20039 -10.20029 -10.19942 -10.19651 -10.19607
 Alpha  occ. eigenvalues --  -10.19365 -10.19337 -10.19328 -10.19199 -10.19149
 Alpha  occ. eigenvalues --  -10.18942 -10.18751 -10.18744 -10.18711 -10.18667
 Alpha  occ. eigenvalues --  -10.18222 -10.17938 -10.17623 -10.17386 -10.17167
 Alpha  occ. eigenvalues --  -10.17086 -10.16929 -10.16893 -10.15949  -1.07536
 Alpha  occ. eigenvalues --   -1.06302  -1.00516  -0.99561  -0.99214  -0.99160
 Alpha  occ. eigenvalues --   -0.97441  -0.96297  -0.92664  -0.86104  -0.82571
 Alpha  occ. eigenvalues --   -0.82369  -0.81777  -0.81667  -0.80706  -0.80024
 Alpha  occ. eigenvalues --   -0.79888  -0.79617  -0.79307  -0.78722  -0.78552
 Alpha  occ. eigenvalues --   -0.76783  -0.75714  -0.75598  -0.75049  -0.73990
 Alpha  occ. eigenvalues --   -0.73551  -0.72715  -0.72367  -0.72201  -0.71584
 Alpha  occ. eigenvalues --   -0.70409  -0.69281  -0.68474  -0.68131  -0.67725
 Alpha  occ. eigenvalues --   -0.67353  -0.66167  -0.65979  -0.65212  -0.64996
 Alpha  occ. eigenvalues --   -0.64580  -0.63189  -0.63001  -0.62507  -0.62007
 Alpha  occ. eigenvalues --   -0.60653  -0.59326  -0.59032  -0.57997  -0.57916
 Alpha  occ. eigenvalues --   -0.57266  -0.56441  -0.55876  -0.55420  -0.55311
 Alpha  occ. eigenvalues --   -0.54874  -0.54229  -0.53722  -0.53557  -0.52875
 Alpha  occ. eigenvalues --   -0.52161  -0.52083  -0.51654  -0.51218  -0.50701
 Alpha  occ. eigenvalues --   -0.50064  -0.49756  -0.49299  -0.48955  -0.48018
 Alpha  occ. eigenvalues --   -0.47814  -0.47584  -0.47286  -0.46750  -0.46554
 Alpha  occ. eigenvalues --   -0.46432  -0.46273  -0.46248  -0.46061  -0.45818
 Alpha  occ. eigenvalues --   -0.45443  -0.45050  -0.44801  -0.44776  -0.44595
 Alpha  occ. eigenvalues --   -0.44362  -0.44121  -0.43910  -0.43857  -0.43506
 Alpha  occ. eigenvalues --   -0.43403  -0.43390  -0.43053  -0.42755  -0.42590
 Alpha  occ. eigenvalues --   -0.42402  -0.42193  -0.41969  -0.41654  -0.41540
 Alpha  occ. eigenvalues --   -0.41246  -0.40790  -0.40417  -0.40350  -0.40110
 Alpha  occ. eigenvalues --   -0.39876  -0.39836  -0.39586  -0.39393  -0.39179
 Alpha  occ. eigenvalues --   -0.39097  -0.38908  -0.38861  -0.38733  -0.38373
 Alpha  occ. eigenvalues --   -0.38263  -0.38167  -0.38023  -0.37954  -0.37852
 Alpha  occ. eigenvalues --   -0.37753  -0.37517  -0.37273  -0.37128  -0.36954
 Alpha  occ. eigenvalues --   -0.36888  -0.36183  -0.36144  -0.35899  -0.35820
 Alpha  occ. eigenvalues --   -0.35633  -0.35307  -0.35152  -0.34697  -0.34680
 Alpha  occ. eigenvalues --   -0.34495  -0.34398  -0.34305  -0.34063  -0.33819
 Alpha  occ. eigenvalues --   -0.33579  -0.33491  -0.32956  -0.32873  -0.32542
 Alpha  occ. eigenvalues --   -0.32446  -0.31923  -0.31538  -0.31393  -0.31183
 Alpha  occ. eigenvalues --   -0.30734  -0.30190  -0.29654  -0.29402  -0.29232
 Alpha  occ. eigenvalues --   -0.29117  -0.29076  -0.28599  -0.28475  -0.28263
 Alpha  occ. eigenvalues --   -0.27876  -0.27779  -0.27167  -0.26698  -0.25246
 Alpha  occ. eigenvalues --   -0.24198  -0.24017  -0.22369  -0.22265  -0.20046
 Alpha  occ. eigenvalues --   -0.19458
 Alpha virt. eigenvalues --   -0.10940  -0.08016  -0.05079  -0.02611  -0.01622
 Alpha virt. eigenvalues --   -0.01247  -0.00612   0.00555   0.01577   0.03325
 Alpha virt. eigenvalues --    0.03421   0.03882   0.04316   0.04347   0.04575

 Mulliken charges:
               1
     1  C   -0.055392
     2  C   -0.074095
     3  C   -0.117894
     4  C   -0.037100
     5  N   -0.131255
     6  C   -0.101829
     7  C    0.232968
     8  C   -0.064435
     9  C   -0.058407
    10  C    0.078632
    11  C    0.001223
    12  C    0.271259
    13  C    0.209167
    14  O   -0.222406
    15  O   -0.395461
    16  N   -0.094228
    17  C    0.115551
    18  C   -0.088122
    19  C    0.057180
    20  C    0.059541
    21  C    0.188682
    22  C   -0.066423
    23  C   -0.131019
    24  N   -0.286952
    25  C    0.178968
    26  C   -0.195562
    27  C   -0.073032
    28  C    0.090557
    29  C    0.136827
    30  C    0.031903
    31  C    0.044607
    32  N    0.006183
    33  C    0.006134
    34  C   -0.081153
    35  C   -0.007527
    36  C    0.095212
    37  C    0.012605
    38  C    0.017449
    39  O   -0.229273
    40  C   -0.064717
    41  C    0.259140
    42  O   -0.188704
    43  O   -0.363647
    44  C    0.146075
    45  C    0.236465
    46  C   -0.040069
    47  C   -0.202840
    48  C    0.106867
    49  C    0.198153
    50  C    0.046535
    51  C    0.025090
    52  C   -0.069273
    53  C    0.063197
    54  C    0.141628
    55  C    0.009621
    56  C    0.020760
    57  C   -0.148739
    58  C    0.082177
    59  C    0.003603
    60  C   -0.023081
    61  C    0.002733
    62  C   -0.091839
    63  C   -0.047597
    64  C   -0.075448
    65  H   -0.021366
    66  H   -0.027823
    67  H   -0.019213
    68  H   -0.121077
    69  H    0.022566
    70  H    0.024580
    71  H    0.003755
    72  H    0.031201
    73  H    0.056107
    74  H    0.007665
    75  H   -0.164461
    76  H    0.035307
    77  H   -0.006406
    78  H   -0.035015
    79  H    0.003458
    80  H    0.030593
    81  H    0.066335
    82  H    0.047650
    83  H    0.037938
    84  H    0.037031
    85  H   -0.013692
    86  H    0.020619
    87  H   -0.006290
    88  H    0.010013
    89  H    0.015792
    90  H    0.010717
    91  H    0.034472
    92  H    0.037154
    93  H    0.048551
    94  H    0.085509
    95  H    0.043865
    96  H    0.036726
    97  H    0.019254
    98  H    0.028461
    99  H    0.035060
   100  H   -0.049083
   101  H   -0.007894
   102  H    0.034890
   103  H    0.009500
   104  H   -0.036170
   105  H   -0.053730
   106  H    0.014137
   107  H   -0.026283
   108  H   -0.003349
   109  H   -0.004609
   110  H   -0.045180
   111  H   -0.008137
   112  H    0.009295
   113  H   -0.006193
   114  H   -0.061751
   115  H   -0.073686
   116  H    0.020218
   117  H    0.005968
   118  H    0.006058
   119  H   -0.011808
   120  H    0.003308
   121  H   -0.014473
   122  H   -0.027759
   123  H    0.021911
   124  H    0.028730
   125  H   -0.016535
   126  H    0.005613
   127  H    0.015473
   128  H    0.015048
   129  H    0.012311
   130  H    0.010031
   131  H   -0.007284
   132  H    0.007566
   133  H    0.066334
   134  H    0.061466
   135  H    0.023224
   136  H    0.045739
   137  H    0.125457
   138  H    0.147435
 Sum of Mulliken charges =   0.00000

 Dipole moment (field-independent basis, Debye):
    X=             -0.0692    Y=              5.7085    Z=              0.5766  Tot=              5.7379
 Quadrupole moment (field-independent basis, Debye-Ang):
   XX=           -338.4707   YY=           -388.1229   ZZ=           -391.9123
   XY=            -42.0588   XZ=              6.9910   YZ=              4.7332

 Normal termination of Gaussian 09 at Sat Aug  3 09:51:44 2019.
