 Gaussian 09, Revision D.01,
 Gaussian 09:  ES64L-G09RevD.01 24-Apr-2013

 --------------------------
 # td=(NStates=1) B3LYP/SVP
 --------------------------

 --
 TD
 --
 Symbolic Z-matrix:
 Charge =  0 Multiplicity = 1

                         Standard orientation:
 ---------------------------------------------------------------------
 Center     Atomic      Atomic             Coordinates (Angstroms)
 Number     Number       Type             X           Y           Z
 ---------------------------------------------------------------------
      1          6           0       -5.105376   -2.037714    0.529856
      2          6           0       -4.689981    2.755071    1.319552
      3          6           0       -9.344881    3.294065   -0.184650
      4          6           0       -9.924001   -1.570536   -0.806440
      5          7           0       -5.132199    0.408123    0.627641
      6          6           0       -4.425972   -0.839845    0.758985
      7          6           0       -3.057629   -0.613265    1.351601
      8          6           0       -3.087536    0.886933    1.814253
      9          6           0       -4.336211    1.421455    1.185168
     10          6           0       -3.104569    0.897891    3.402223
     11          6           0       -2.113046   -0.754618    0.085145
     12          6           0       -0.555312   -0.592700    0.497359
     13          6           0        0.398870   -0.836342   -0.584251
     14          8           0       -0.036783   -1.038815   -1.806366
     15          8           0        1.661553   -0.624444   -0.315132
     16          7           0       -6.993392    2.698014    0.489808
     17          6           0       -5.832381    3.398964    1.000837
     18          6           0       -6.178188    4.796409    0.972104
     19          6           0       -7.480805    4.994822    0.499823
     20          6           0       -8.023714    3.705002    0.271214
     21          6           0       -5.121206    5.811082    1.311274
     22          6           0       -8.146405    6.319741    0.316281
     23          6           0       -9.101843    6.598359   -0.569265
     24          7           0       -9.188659    0.812011   -0.434755
     25          6           0       -9.866069    2.034326   -0.455782
     26          6           0      -11.330237    1.823300   -0.884197
     27          6           0      -11.511973    0.501230   -0.984945
     28          6           0      -10.157712   -0.135724   -0.734419
     29          6           0      -12.374583    3.001651   -0.918655
     30          6           0      -12.746024   -0.423340   -1.375224
     31          6           0      -12.984619   -0.476450   -2.961572
     32          7           0       -7.506471   -1.281641   -0.197815
     33          6           0       -8.713192   -2.052605   -0.639979
     34          6           0       -8.167619   -3.416507   -0.679163
     35          6           0       -6.808282   -3.438397   -0.294717
     36          6           0       -6.442617   -2.093544    0.062807
     37          6           0       -8.933060   -4.653392   -1.109267
     38          6           0       -5.587302   -4.278101   -0.070454
     39          8           0       -5.554655   -5.505416   -0.184704
     40          6           0       -4.476701   -3.335926    0.497127
     41          6           0       -3.956871   -3.963353    1.727148
     42          8           0       -4.387944   -3.626836    2.837448
     43          8           0       -2.943148   -4.827284    1.575279
     44          6           0       -2.407874   -5.448800    2.797361
     45          6           0        2.688435   -0.963627   -1.325940
     46          6           0        3.951901   -0.692725   -0.650287
     47          6           0        4.954402    0.127765   -1.133722
     48          6           0        4.915560    0.822509   -2.574951
     49          6           0        6.143656    0.333216   -0.351830
     50          6           0        7.485012   -0.159551   -1.039600
     51          6           0        8.796992   -0.164219   -0.188256
     52          6           0       10.111904   -0.542451   -0.949272
     53          6           0       10.098154   -2.089399   -1.417265
     54          6           0       11.323571   -0.118612   -0.046784
     55          6           0       12.631257   -0.430667   -0.607138
     56          6           0       13.775040    0.062502    0.207688
     57          6           0       15.172481   -0.196712   -0.378426
     58          6           0       15.556440   -1.627559   -0.634778
     59          6           0       16.228355    0.466823    0.483856
     60          6           0       17.652733    0.710152   -0.075767
     61          6           0       18.646915    1.442162    0.802539
     62          6           0       20.077576    1.438253    0.303484
     63          6           0       20.345431    2.114952   -1.111741
     64          6           0       21.008242    2.064047    1.395485
     65          1           0       -3.760865    3.440933    1.513473
     66          1           0       -9.995719    4.131683   -0.145062
     67          1           0      -10.786226   -2.074767   -1.184556
     68          1           0       -2.761302   -1.304152    2.123475
     69          1           0       -2.121011    1.381333    1.417983
     70          1           0       -2.046160    0.617070    3.797270
     71          1           0       -3.221189    1.930236    3.692431
     72          1           0       -4.002437    0.278491    3.732870
     73          1           0       -2.124135   -1.903097   -0.396165
     74          1           0       -2.375463   -0.135815   -0.611787
     75          1           0       -0.449434    0.389205    1.089412
     76          1           0       -0.314950   -1.533509    1.363990
     77          1           0       -4.433449    6.266022    0.258690
     78          1           0       -5.634751    6.629802    1.782613
     79          1           0       -4.563920    5.503375    2.124136
     80          1           0       -7.883314    6.927194    0.992172
     81          1           0       -9.410845    5.770562   -1.381206
     82          1           0       -9.427693    7.642020   -0.615769
     83          1           0      -12.554667    3.408561   -0.042920
     84          1           0      -12.180605    3.718914   -1.684877
     85          1           0      -13.422043    2.634637   -1.222084
     86          1           0      -12.750031   -1.288453   -0.872782
     87          1           0      -13.404461    0.238856   -0.925770
     88          1           0      -13.347857    0.604302   -3.326510
     89          1           0      -11.974418   -0.680651   -3.495721
     90          1           0      -13.722561   -1.219043   -3.282938
     91          1           0       -9.684551   -4.959806   -0.486755
     92          1           0       -9.384558   -4.448290   -2.032449
     93          1           0       -8.321741   -5.571086   -1.044836
     94          1           0       -3.664474   -3.352588   -0.392574
     95          1           0       -1.531536   -6.009508    2.291295
     96          1           0       -2.096585   -4.675528    3.571317
     97          1           0       -3.257095   -6.114336    3.226119
     98          1           0        2.611279   -1.961987   -1.547374
     99          1           0        2.533535   -0.365511   -2.392208
    100          1           0        4.339405   -1.364130    0.241995
    101          1           0        5.317063    1.764409   -2.322790
    102          1           0        5.911713    0.210762   -3.207895
    103          1           0        4.006676    0.661897   -3.071200
    104          1           0        6.235955    1.397283   -0.078633
    105          1           0        6.066631   -0.398551    0.627889
    106          1           0        7.305687   -1.081499   -1.406604
    107          1           0        7.539541    0.551725   -1.850072
    108          1           0        8.966642    0.820885    0.481681
    109          1           0        8.938314   -1.079521    0.636607
    110          1           0       10.269000    0.128826   -1.882356
    111          1           0        9.035388   -2.277944   -2.060981
    112          1           0       11.080162   -2.154033   -1.959628
    113          1           0       10.308984   -2.769316   -0.464802
    114          1           0       11.129926    1.044500    0.389329
    115          1           0       11.289182   -0.906262    0.835943
    116          1           0       12.723171   -1.585707   -0.621505
    117          1           0       12.748319   -0.199381   -1.759836
    118          1           0       13.593718    1.075568    0.490913
    119          1           0       13.841261   -0.212416    1.350012
    120          1           0       15.278735    0.269883   -1.354205
    121          1           0       14.894282   -2.074677   -1.521450
    122          1           0       16.490128   -1.722389   -0.764132
    123          1           0       15.459205   -2.208181    0.323030
    124          1           0       15.797565    1.512690    0.869241
    125          1           0       16.210430    0.063663    1.612535
    126          1           0       18.138250   -0.163148   -0.479535
    127          1           0       17.579816    1.392786   -1.005304
    128          1           0       18.383316    2.547201    0.707837
    129          1           0       18.540875    1.075634    1.895082
    130          1           0       20.467434    0.278569    0.269001
    131          1           0       20.064346    3.033779   -0.965581
    132          1           0       21.307993    1.986598   -1.569640
    133          1           0       19.779583    1.586055   -1.831888
    134          1           0       21.033894    1.614727    2.435540
    135          1           0       22.208497    1.953933    1.068221
    136          1           0       20.740599    3.204510    1.823075
    137          1           0       -7.335030    1.682145    0.788507
    138          1           0       -7.603365   -0.305121    0.065749
 ---------------------------------------------------------------------

 SCF Done:  E(RB3LYP) =  -2732.99693994     A.U. after   18 cycles

 Excitation energies and oscillator strengths:

 Excited State   1:      Singlet-A      1.9520 eV  635.15 nm  f=0.1813  <S**2>=0.000
     235 -> 237       -0.13605
     235 -> 238        0.25889
     236 -> 237        0.62958
     236 -> 238        0.13599
 This state for optimization and/or second-order correction.
 Total Energy, E(TD-HF/TD-KS) =  -2732.92520369
 Copying the excited state density for this state as the 1-particle RhoCI density.

 The electronic state is 1-A.
 Alpha  occ. eigenvalues --  -19.18598 -19.18016 -19.12185 -19.11601 -19.10633
 Alpha  occ. eigenvalues --  -14.36279 -14.36056 -14.32302 -14.30697 -10.31501
 Alpha  occ. eigenvalues --  -10.31460 -10.28289 -10.26358 -10.25841 -10.23758
 Alpha  occ. eigenvalues --  -10.23583 -10.23577 -10.23097 -10.23095 -10.22704
 Alpha  occ. eigenvalues --  -10.22669 -10.21979 -10.21972 -10.21910 -10.21908
 Alpha  occ. eigenvalues --  -10.21480 -10.21433 -10.21031 -10.20981 -10.20955
 Alpha  occ. eigenvalues --  -10.20872 -10.20578 -10.20546 -10.20532 -10.20495
 Alpha  occ. eigenvalues --  -10.20423 -10.20382 -10.20337 -10.20334 -10.20285
 Alpha  occ. eigenvalues --  -10.20246 -10.20139 -10.20090 -10.20021 -10.19934
 Alpha  occ. eigenvalues --  -10.19899 -10.19750 -10.19586 -10.19518 -10.19469
 Alpha  occ. eigenvalues --  -10.19361 -10.19332 -10.19139 -10.19025 -10.18939
 Alpha  occ. eigenvalues --  -10.18934 -10.18889 -10.18753 -10.18664 -10.18633
 Alpha  occ. eigenvalues --  -10.18390 -10.17826 -10.17264 -10.16855  -1.09099
 Alpha  occ. eigenvalues --   -1.08668  -1.01616  -0.98957  -0.95532  -0.95372
 Alpha  occ. eigenvalues --   -0.93979  -0.91706  -0.91233  -0.85279  -0.82911
 Alpha  occ. eigenvalues --   -0.82534  -0.81330  -0.80798  -0.80472  -0.79944
 Alpha  occ. eigenvalues --   -0.79619  -0.79178  -0.78766  -0.78495  -0.77888
 Alpha  occ. eigenvalues --   -0.76770  -0.75913  -0.75470  -0.74604  -0.73750
 Alpha  occ. eigenvalues --   -0.73564  -0.73265  -0.72557  -0.71757  -0.70580
 Alpha  occ. eigenvalues --   -0.69965  -0.69035  -0.68623  -0.68400  -0.68169
 Alpha  occ. eigenvalues --   -0.67566  -0.67264  -0.65641  -0.65495  -0.64914
 Alpha  occ. eigenvalues --   -0.63978  -0.62800  -0.62337  -0.61740  -0.61090
 Alpha  occ. eigenvalues --   -0.60870  -0.59236  -0.58488  -0.57582  -0.56643
 Alpha  occ. eigenvalues --   -0.56459  -0.56247  -0.55999  -0.54929  -0.54460
 Alpha  occ. eigenvalues --   -0.54195  -0.54067  -0.53535  -0.53024  -0.52646
 Alpha  occ. eigenvalues --   -0.52084  -0.51690  -0.51116  -0.50691  -0.50308
 Alpha  occ. eigenvalues --   -0.49961  -0.49030  -0.48589  -0.48233  -0.48160
 Alpha  occ. eigenvalues --   -0.47956  -0.47734  -0.47428  -0.46980  -0.46734
 Alpha  occ. eigenvalues --   -0.46479  -0.46309  -0.45856  -0.45684  -0.45594
 Alpha  occ. eigenvalues --   -0.45312  -0.44951  -0.44770  -0.44586  -0.44218
 Alpha  occ. eigenvalues --   -0.44086  -0.43901  -0.43815  -0.43134  -0.43078
 Alpha  occ. eigenvalues --   -0.42989  -0.42894  -0.42682  -0.42449  -0.42406
 Alpha  occ. eigenvalues --   -0.42025  -0.41966  -0.41647  -0.41453  -0.41309
 Alpha  occ. eigenvalues --   -0.40983  -0.40703  -0.40281  -0.39996  -0.39867
 Alpha  occ. eigenvalues --   -0.39585  -0.39463  -0.39301  -0.39078  -0.38992
 Alpha  occ. eigenvalues --   -0.38801  -0.38745  -0.38504  -0.38374  -0.38133
 Alpha  occ. eigenvalues --   -0.37890  -0.37736  -0.37629  -0.37467  -0.37270
 Alpha  occ. eigenvalues --   -0.37190  -0.37077  -0.36855  -0.36809  -0.36763
 Alpha  occ. eigenvalues --   -0.36592  -0.36189  -0.35986  -0.35725  -0.35655
 Alpha  occ. eigenvalues --   -0.35566  -0.35542  -0.35366  -0.35305  -0.35083
 Alpha  occ. eigenvalues --   -0.35010  -0.34765  -0.34386  -0.34280  -0.33888
 Alpha  occ. eigenvalues --   -0.33594  -0.33291  -0.32667  -0.32391  -0.32110
 Alpha  occ. eigenvalues --   -0.32018  -0.31732  -0.31625  -0.31479  -0.31289
 Alpha  occ. eigenvalues --   -0.30690  -0.30406  -0.30278  -0.30216  -0.30031
 Alpha  occ. eigenvalues --   -0.29715  -0.29051  -0.28989  -0.27889  -0.27241
 Alpha  occ. eigenvalues --   -0.26629  -0.26418  -0.26161  -0.25704  -0.25507
 Alpha  occ. eigenvalues --   -0.24910  -0.24336  -0.24090  -0.23634  -0.20280
 Alpha  occ. eigenvalues --   -0.18199
 Alpha virt. eigenvalues --   -0.10230  -0.07800  -0.04311  -0.01969  -0.01811
 Alpha virt. eigenvalues --   -0.01493  -0.00554  -0.00001   0.01526   0.02989
 Alpha virt. eigenvalues --    0.03168   0.03767   0.04220   0.04395   0.04429

 Mulliken charges:
               1
     1  C    0.002995
     2  C   -0.095193
     3  C   -0.052266
     4  C   -0.091588
     5  N   -0.230647
     6  C   -0.045478
     7  C    0.008712
     8  C   -0.070996
     9  C    0.006621
    10  C    0.053605
    11  C    0.058946
    12  C   -0.055611
    13  C    0.229922
    14  O   -0.341303
    15  O   -0.280186
    16  N   -0.196593
    17  C    0.152690
    18  C   -0.149166
    19  C    0.041455
    20  C    0.033760
    21  C    0.112670
    22  C    0.047686
    23  C   -0.037312
    24  N   -0.262464
    25  C    0.089830
    26  C   -0.156387
    27  C   -0.124611
    28  C    0.004129
    29  C    0.145482
    30  C    0.158607
    31  C   -0.042569
    32  N   -0.104271
    33  C    0.230673
    34  C   -0.189234
    35  C    0.007365
    36  C    0.125123
    37  C    0.173774
    38  C    0.045696
    39  O   -0.186842
    40  C   -0.030189
    41  C    0.213627
    42  O   -0.261755
    43  O   -0.305356
    44  C    0.135341
    45  C    0.281999
    46  C   -0.108318
    47  C   -0.176020
    48  C    0.072971
    49  C    0.022672
    50  C    0.079208
    51  C   -0.026646
    52  C   -0.111053
    53  C   -0.051755
    54  C   -0.040197
    55  C    0.027955
    56  C    0.038108
    57  C   -0.011521
    58  C    0.126513
    59  C   -0.060748
    60  C    0.055063
    61  C    0.002528
    62  C   -0.131075
    63  C    0.130716
    64  C   -0.066371
    65  H    0.011678
    66  H   -0.033063
    67  H   -0.019353
    68  H   -0.001517
    69  H    0.011183
    70  H    0.028261
    71  H   -0.000299
    72  H    0.051940
    73  H    0.049583
    74  H   -0.028962
    75  H    0.054358
    76  H    0.047356
    77  H    0.064206
    78  H   -0.010205
    79  H   -0.005563
    80  H   -0.080338
    81  H    0.062604
    82  H    0.027275
    83  H   -0.005843
    84  H    0.010082
    85  H    0.001087
    86  H   -0.024877
    87  H   -0.012281
    88  H    0.031983
    89  H    0.036003
    90  H    0.025681
    91  H   -0.012407
    92  H    0.008124
    93  H    0.028288
    94  H    0.090209
    95  H    0.059756
    96  H    0.054583
    97  H    0.063587
    98  H   -0.000536
    99  H    0.063482
   100  H    0.021604
   101  H    0.020217
   102  H    0.049401
   103  H    0.010737
   104  H    0.020518
   105  H    0.016407
   106  H   -0.024306
   107  H   -0.003057
   108  H    0.013679
   109  H    0.007230
   110  H    0.000110
   111  H    0.061166
   112  H    0.031048
   113  H    0.031738
   114  H    0.029467
   115  H    0.005216
   116  H    0.009150
   117  H    0.007137
   118  H   -0.037105
   119  H   -0.016309
   120  H   -0.022576
   121  H    0.027354
   122  H   -0.070553
   123  H   -0.013767
   124  H   -0.010923
   125  H   -0.006057
   126  H   -0.008563
   127  H    0.001283
   128  H    0.000770
   129  H    0.016577
   130  H    0.006734
   131  H   -0.024539
   132  H    0.002271
   133  H   -0.008862
   134  H    0.012496
   135  H    0.026411
   136  H    0.016227
   137  H    0.200904
   138  H    0.131979
 Sum of Mulliken charges =   0.00000

 Dipole moment (field-independent basis, Debye):
    X=              3.0371    Y=              3.7815    Z=              1.3256  Tot=              5.0280
 Quadrupole moment (field-independent basis, Debye-Ang):
   XX=           -335.0878   YY=           -381.7425   ZZ=           -397.1940
   XY=            -26.7478   XZ=             -4.7292   YZ=              0.3532

 Normal termination of Gaussian 09 at Fri Aug  2 16:42:25 2019.
