 Gaussian 09, Revision D.01,
 Gaussian 09:  ES64L-G09RevD.01 24-Apr-2013

 --------------------------
 # td=(NStates=1) B3LYP/SVP
 --------------------------

 --
 TD
 --
 Symbolic Z-matrix:
 Charge =  0 Multiplicity = 1

                         Standard orientation:
 ---------------------------------------------------------------------
 Center     Atomic      Atomic             Coordinates (Angstroms)
 Number     Number       Type             X           Y           Z
 ---------------------------------------------------------------------
      1          6           0       -5.083535   -1.950955    0.416933
      2          6           0       -4.729881    2.746567    1.477403
      3          6           0       -9.213948    3.364382   -0.321828
      4          6           0       -9.794463   -1.432914   -1.110339
      5          7           0       -5.107401    0.430815    0.790273
      6          6           0       -4.423857   -0.830557    0.863254
      7          6           0       -3.031475   -0.660145    1.320343
      8          6           0       -3.033929    0.825135    1.898504
      9          6           0       -4.459768    1.397158    1.351988
     10          6           0       -2.961864    0.793475    3.405261
     11          6           0       -2.020335   -0.787413    0.127746
     12          6           0       -0.548496   -0.682167    0.534151
     13          6           0        0.318958   -1.163904   -0.514492
     14          8           0        0.091021   -1.856723   -1.565541
     15          8           0        1.591312   -0.737904   -0.291424
     16          7           0       -7.025694    2.763381    0.461668
     17          6           0       -5.926314    3.388327    1.056437
     18          6           0       -6.253706    4.793824    1.124723
     19          6           0       -7.421303    4.990627    0.523040
     20          6           0       -8.025300    3.595974    0.230386
     21          6           0       -5.285025    5.784375    1.688108
     22          6           0       -8.123880    6.213109    0.508527
     23          6           0       -8.991876    6.846225   -0.248729
     24          7           0       -9.210341    0.981261   -0.655952
     25          6           0       -9.836639    2.100572   -0.556275
     26          6           0      -11.220099    1.958572   -1.124266
     27          6           0      -11.305694    0.575050   -1.372789
     28          6           0      -10.109580   -0.047908   -1.003977
     29          6           0      -12.215626    2.961310   -1.156392
     30          6           0      -12.547421   -0.125709   -1.901266
     31          6           0      -12.630112   -0.260658   -3.377524
     32          7           0       -7.469832   -1.193173   -0.190851
     33          6           0       -8.559523   -2.028100   -0.629089
     34          6           0       -8.142550   -3.336872   -0.720753
     35          6           0       -6.866313   -3.417349   -0.229279
     36          6           0       -6.392787   -2.035789    0.017398
     37          6           0       -8.942925   -4.617732   -1.149049
     38          6           0       -5.764229   -4.341128    0.037749
     39          8           0       -5.611794   -5.505660   -0.045550
     40          6           0       -4.510932   -3.376973    0.572337
     41          6           0       -4.010965   -3.811661    1.877089
     42          8           0       -4.269299   -3.368273    2.913910
     43          8           0       -3.157577   -4.902468    1.671602
     44          6           0       -2.745121   -5.454744    2.967579
     45          6           0        2.756864   -1.131661   -1.163283
     46          6           0        3.970951   -0.705263   -0.446206
     47          6           0        4.955387   -0.027129   -0.969581
     48          6           0        5.013198    0.683245   -2.283058
     49          6           0        6.278638    0.164587   -0.301048
     50          6           0        7.507166   -0.231786   -1.164781
     51          6           0        8.760620   -0.145323   -0.324430
     52          6           0        9.998285   -0.797983   -0.819376
     53          6           0        9.903254   -2.380363   -0.840541
     54          6           0       11.146013   -0.225341   -0.034179
     55          6           0       12.664156   -0.623914   -0.570635
     56          6           0       13.783032    0.203447    0.087980
     57          6           0       15.104424   -0.227088   -0.405418
     58          6           0       15.445241   -1.672910   -0.445781
     59          6           0       16.240352    0.520936    0.300738
     60          6           0       17.729770    0.589543   -0.206485
     61          6           0       18.538196    1.692007    0.597034
     62          6           0       20.051494    1.741531    0.169104
     63          6           0       20.173530    2.195041   -1.338937
     64          6           0       20.889119    2.606783    1.126863
     65          1           0       -3.997915    3.397481    1.922456
     66          1           0       -9.836945    4.276507   -0.362298
     67          1           0      -10.586206   -2.025747   -1.365660
     68          1           0       -2.821250   -1.209251    2.175238
     69          1           0       -2.198504    1.406848    1.408443
     70          1           0       -1.883548    0.527799    3.639663
     71          1           0       -2.921014    1.832115    3.744456
     72          1           0       -3.582965    0.278701    3.965758
     73          1           0       -2.087101   -1.776277   -0.392895
     74          1           0       -2.076193    0.004137   -0.550371
     75          1           0       -0.087394    0.215025    0.860207
     76          1           0       -0.215862   -1.435699    1.256781
     77          1           0       -4.524194    6.071935    0.787367
     78          1           0       -5.918557    6.685451    1.462304
     79          1           0       -4.982028    5.677878    2.821082
     80          1           0       -7.712741    6.765022    1.348841
     81          1           0       -9.676161    6.288860   -1.127167
     82          1           0       -9.385431    7.743886   -0.208487
     83          1           0      -12.049336    3.418877   -0.096423
     84          1           0      -11.983218    3.717939   -1.976989
     85          1           0      -13.192681    2.782059   -1.428214
     86          1           0      -12.733644   -1.126997   -1.441734
     87          1           0      -13.507652    0.587211   -1.545051
     88          1           0      -12.686051    0.730952   -3.767371
     89          1           0      -11.943265   -1.020679   -4.037731
     90          1           0      -13.693553   -0.589697   -3.713449
     91          1           0       -9.969933   -4.570365   -0.604944
     92          1           0       -9.100518   -4.592834   -2.241869
     93          1           0       -8.521805   -5.660777   -0.955192
     94          1           0       -3.805987   -3.603986   -0.137310
     95          1           0       -1.986902   -6.373424    2.847985
     96          1           0       -2.268656   -4.986803    3.687934
     97          1           0       -3.528025   -5.871335    3.544326
     98          1           0        2.670359   -2.341590   -1.394347
     99          1           0        2.605591   -0.631031   -2.088571
    100          1           0        4.118276   -1.363553    0.392227
    101          1           0        5.374577    1.663486   -2.116854
    102          1           0        5.600460    0.098584   -2.992948
    103          1           0        3.915837    0.673401   -2.647061
    104          1           0        6.464987    1.243797   -0.106079
    105          1           0        6.037216   -0.535478    0.669403
    106          1           0        7.359520   -1.333328   -1.593091
    107          1           0        7.659637    0.114068   -2.090947
    108          1           0        9.040832    0.848557   -0.205191
    109          1           0        8.741985   -0.497389    0.785433
    110          1           0        9.941983   -0.403688   -1.815407
    111          1           0        9.143619   -2.679131   -1.601261
    112          1           0       10.738819   -2.794321   -1.490078
    113          1           0        9.476186   -2.877824    0.192264
    114          1           0       11.204009    0.975861    0.113919
    115          1           0       11.197480   -0.304917    1.133426
    116          1           0       12.740028   -1.822869   -0.400705
    117          1           0       12.826031   -0.227000   -1.608271
    118          1           0       13.526125    1.348358    0.206782
    119          1           0       13.680060    0.049903    1.256568
    120          1           0       15.374591    0.169923   -1.386070
    121          1           0       14.628497   -2.171783   -0.897421
    122          1           0       16.238867   -2.194366   -0.960954
    123          1           0       15.511244   -2.153544    0.587126
    124          1           0       16.033752    1.678454    0.471421
    125          1           0       16.335883    0.077728    1.297894
    126          1           0       18.371326   -0.494496   -0.455870
    127          1           0       17.765513    1.023511   -1.345224
    128          1           0       18.090390    2.691643    0.516249
    129          1           0       18.393452    1.544026    1.674296
    130          1           0       20.481196    0.694435    0.207034
    131          1           0       19.896831    3.186824   -1.557962
    132          1           0       21.299420    2.315355   -1.632097
    133          1           0       19.877279    1.504851   -2.035075
    134          1           0       21.059122    2.375184    2.150588
    135          1           0       21.884956    2.645901    0.720017
    136          1           0       20.743236    3.655090    0.859561
    137          1           0       -7.074017    1.809475    0.135723
    138          1           0       -7.561397   -0.236860   -0.073410
 ---------------------------------------------------------------------

 SCF Done:  E(RB3LYP) =  -2733.03841647     A.U. after   17 cycles

 Excitation energies and oscillator strengths:

 Excited State   1:      Singlet-A      2.1284 eV  582.51 nm  f=0.1384  <S**2>=0.000
     235 -> 238        0.29685
     236 -> 237        0.62932
 This state for optimization and/or second-order correction.
 Total Energy, E(TD-HF/TD-KS) =  -2732.96019812
 Copying the excited state density for this state as the 1-particle RhoCI density.

 The electronic state is 1-A.
 Alpha  occ. eigenvalues --  -19.16944 -19.16202 -19.12557 -19.12417 -19.10831
 Alpha  occ. eigenvalues --  -14.37200 -14.37042 -14.31769 -14.29301 -10.30823
 Alpha  occ. eigenvalues --  -10.30497 -10.27865 -10.25354 -10.24718 -10.23763
 Alpha  occ. eigenvalues --  -10.23544 -10.23500 -10.22861 -10.22807 -10.22727
 Alpha  occ. eigenvalues --  -10.22346 -10.21174 -10.21002 -10.20908 -10.20884
 Alpha  occ. eigenvalues --  -10.20784 -10.20782 -10.20757 -10.20690 -10.20578
 Alpha  occ. eigenvalues --  -10.20430 -10.20424 -10.20404 -10.20228 -10.20208
 Alpha  occ. eigenvalues --  -10.19984 -10.19942 -10.19917 -10.19857 -10.19811
 Alpha  occ. eigenvalues --  -10.19710 -10.19707 -10.19636 -10.19632 -10.19484
 Alpha  occ. eigenvalues --  -10.19387 -10.19218 -10.19167 -10.19165 -10.19017
 Alpha  occ. eigenvalues --  -10.18962 -10.18906 -10.18899 -10.18652 -10.18543
 Alpha  occ. eigenvalues --  -10.18267 -10.18192 -10.18172 -10.17900 -10.17643
 Alpha  occ. eigenvalues --  -10.17612 -10.17405 -10.17126 -10.16932  -1.09336
 Alpha  occ. eigenvalues --   -1.06103  -1.04629  -1.00748  -0.99309  -0.96970
 Alpha  occ. eigenvalues --   -0.95876  -0.93866  -0.93394  -0.84153  -0.84142
 Alpha  occ. eigenvalues --   -0.83975  -0.82375  -0.81961  -0.81560  -0.81279
 Alpha  occ. eigenvalues --   -0.80548  -0.79411  -0.79086  -0.78719  -0.78256
 Alpha  occ. eigenvalues --   -0.77060  -0.76289  -0.75715  -0.75339  -0.74425
 Alpha  occ. eigenvalues --   -0.73447  -0.73332  -0.72664  -0.71431  -0.71089
 Alpha  occ. eigenvalues --   -0.70471  -0.69447  -0.68857  -0.68215  -0.68160
 Alpha  occ. eigenvalues --   -0.67589  -0.67370  -0.66823  -0.66720  -0.65596
 Alpha  occ. eigenvalues --   -0.64562  -0.63812  -0.63461  -0.62186  -0.61416
 Alpha  occ. eigenvalues --   -0.60352  -0.59543  -0.59147  -0.58566  -0.57709
 Alpha  occ. eigenvalues --   -0.56405  -0.56400  -0.55993  -0.55814  -0.55309
 Alpha  occ. eigenvalues --   -0.55215  -0.54863  -0.54441  -0.54080  -0.53031
 Alpha  occ. eigenvalues --   -0.52824  -0.52301  -0.51314  -0.51113  -0.50515
 Alpha  occ. eigenvalues --   -0.50170  -0.49832  -0.49115  -0.48576  -0.48251
 Alpha  occ. eigenvalues --   -0.48180  -0.47782  -0.47425  -0.47312  -0.46869
 Alpha  occ. eigenvalues --   -0.46728  -0.46341  -0.46219  -0.46043  -0.45986
 Alpha  occ. eigenvalues --   -0.45411  -0.45146  -0.45033  -0.44792  -0.44647
 Alpha  occ. eigenvalues --   -0.44615  -0.44216  -0.43998  -0.43893  -0.43604
 Alpha  occ. eigenvalues --   -0.43484  -0.43199  -0.43033  -0.42909  -0.42870
 Alpha  occ. eigenvalues --   -0.42585  -0.42453  -0.42097  -0.41938  -0.41878
 Alpha  occ. eigenvalues --   -0.41585  -0.41428  -0.40837  -0.40548  -0.40210
 Alpha  occ. eigenvalues --   -0.40092  -0.39896  -0.39870  -0.39863  -0.39518
 Alpha  occ. eigenvalues --   -0.39444  -0.39240  -0.39117  -0.38973  -0.38858
 Alpha  occ. eigenvalues --   -0.38763  -0.38540  -0.38308  -0.38145  -0.38044
 Alpha  occ. eigenvalues --   -0.37812  -0.37481  -0.37228  -0.37075  -0.36747
 Alpha  occ. eigenvalues --   -0.36521  -0.36451  -0.35838  -0.35512  -0.35422
 Alpha  occ. eigenvalues --   -0.35416  -0.35016  -0.34919  -0.34636  -0.34413
 Alpha  occ. eigenvalues --   -0.34308  -0.33920  -0.33815  -0.33623  -0.33434
 Alpha  occ. eigenvalues --   -0.32906  -0.32898  -0.32477  -0.32110  -0.31801
 Alpha  occ. eigenvalues --   -0.31629  -0.31555  -0.31418  -0.31352  -0.31169
 Alpha  occ. eigenvalues --   -0.30726  -0.30367  -0.30223  -0.30156  -0.29508
 Alpha  occ. eigenvalues --   -0.29342  -0.28809  -0.28770  -0.28206  -0.28022
 Alpha  occ. eigenvalues --   -0.27156  -0.26874  -0.26772  -0.25516  -0.25514
 Alpha  occ. eigenvalues --   -0.25275  -0.25098  -0.24495  -0.21859  -0.20262
 Alpha  occ. eigenvalues --   -0.18971
 Alpha virt. eigenvalues --   -0.09826  -0.08231  -0.04446  -0.01467  -0.00166
 Alpha virt. eigenvalues --    0.00447   0.00774   0.01418   0.02255   0.03796
 Alpha virt. eigenvalues --    0.03945   0.04025   0.04696   0.04907   0.05140

 Mulliken charges:
               1
     1  C    0.039970
     2  C   -0.058087
     3  C   -0.072095
     4  C    0.002399
     5  N   -0.183306
     6  C   -0.106650
     7  C    0.103870
     8  C   -0.151376
     9  C    0.023044
    10  C    0.145424
    11  C    0.090947
    12  C    0.095563
    13  C    0.145808
    14  O   -0.305509
    15  O   -0.360413
    16  N   -0.027993
    17  C    0.112681
    18  C   -0.152192
    19  C    0.045427
    20  C    0.077488
    21  C    0.072583
    22  C   -0.057179
    23  C   -0.015853
    24  N   -0.231956
    25  C    0.020109
    26  C   -0.135905
    27  C   -0.049260
    28  C    0.053764
    29  C    0.101097
    30  C   -0.003911
    31  C    0.000918
    32  N   -0.039983
    33  C    0.086045
    34  C   -0.138905
    35  C   -0.007164
    36  C    0.117800
    37  C    0.047237
    38  C    0.046476
    39  O   -0.112936
    40  C   -0.032117
    41  C    0.200813
    42  O   -0.167219
    43  O   -0.337114
    44  C    0.245157
    45  C    0.231105
    46  C   -0.043458
    47  C   -0.154276
    48  C    0.109325
    49  C    0.064515
    50  C    0.043844
    51  C    0.030390
    52  C    0.014126
    53  C    0.017203
    54  C   -0.070498
    55  C   -0.006771
    56  C   -0.032054
    57  C    0.040108
    58  C    0.054882
    59  C   -0.020437
    60  C   -0.078535
    61  C    0.046418
    62  C   -0.101841
    63  C    0.038231
    64  C    0.096060
    65  H   -0.027868
    66  H   -0.019461
    67  H   -0.061530
    68  H   -0.024834
    69  H    0.004625
    70  H    0.003474
    71  H   -0.012563
    72  H   -0.002163
    73  H    0.043392
    74  H   -0.002257
    75  H    0.018376
    76  H    0.024107
    77  H    0.052308
    78  H   -0.008820
    79  H    0.078148
    80  H    0.006626
    81  H    0.035546
    82  H   -0.020545
    83  H    0.048919
    84  H    0.017023
    85  H   -0.023010
    86  H    0.008113
    87  H    0.016955
    88  H   -0.007238
    89  H    0.040526
    90  H    0.000870
    91  H    0.038041
    92  H    0.030270
    93  H    0.053476
    94  H    0.016001
    95  H    0.023985
    96  H   -0.025457
    97  H   -0.000775
    98  H    0.060494
    99  H    0.000385
   100  H   -0.018352
   101  H    0.011024
   102  H    0.036906
   103  H    0.010792
   104  H    0.017207
   105  H    0.022487
   106  H   -0.009953
   107  H   -0.038909
   108  H   -0.036091
   109  H   -0.011009
   110  H   -0.032335
   111  H   -0.009322
   112  H    0.018515
   113  H    0.045539
   114  H   -0.008360
   115  H    0.000570
   116  H    0.059277
   117  H    0.008362
   118  H    0.014157
   119  H   -0.015760
   120  H   -0.015487
   121  H   -0.024601
   122  H    0.002442
   123  H   -0.004668
   124  H    0.004216
   125  H   -0.011346
   126  H    0.022858
   127  H    0.006243
   128  H   -0.008908
   129  H   -0.012877
   130  H    0.001370
   131  H   -0.003539
   132  H   -0.009721
   133  H    0.001401
   134  H    0.014602
   135  H   -0.030236
   136  H   -0.016692
   137  H    0.138914
   138  H    0.090308
 Sum of Mulliken charges =   0.00000

 Dipole moment (field-independent basis, Debye):
    X=              2.1373    Y=              6.2251    Z=              0.8822  Tot=              6.6406
 Quadrupole moment (field-independent basis, Debye-Ang):
   XX=           -351.6150   YY=           -381.0649   ZZ=           -390.6304
   XY=            -27.9667   XZ=             -3.9596   YZ=              0.3394

 Normal termination of Gaussian 09 at Fri Aug  2 10:45:23 2019.
