 Gaussian 09, Revision D.01,
 Gaussian 09:  ES64L-G09RevD.01 24-Apr-2013

 --------------------------
 # td=(NStates=1) B3LYP/SVP
 --------------------------

 --
 TD
 --
 Symbolic Z-matrix:
 Charge =  0 Multiplicity = 1

                         Standard orientation:
 ---------------------------------------------------------------------
 Center     Atomic      Atomic             Coordinates (Angstroms)
 Number     Number       Type             X           Y           Z
 ---------------------------------------------------------------------
      1          6           0       -5.171823   -1.920079    0.417825
      2          6           0       -4.592266    2.730026    1.310612
      3          6           0       -9.264633    3.363457   -0.085299
      4          6           0       -9.813925   -1.329459   -0.794030
      5          7           0       -5.167777    0.414221    0.836179
      6          6           0       -4.500401   -0.659621    0.799753
      7          6           0       -3.094432   -0.578880    1.171456
      8          6           0       -3.084649    0.758695    1.677063
      9          6           0       -4.285768    1.436397    1.273646
     10          6           0       -2.971495    0.801780    3.296726
     11          6           0       -2.036034   -0.814827    0.097127
     12          6           0       -0.626174   -1.053158    0.597791
     13          6           0        0.353596   -1.300762   -0.550337
     14          8           0        0.071965   -1.770646   -1.555182
     15          8           0        1.637387   -0.991158   -0.089762
     16          7           0       -7.012612    2.798823    0.414662
     17          6           0       -5.821013    3.310906    0.900674
     18          6           0       -6.058196    4.770436    1.059515
     19          6           0       -7.441585    5.052085    0.643411
     20          6           0       -8.015736    3.751650    0.294351
     21          6           0       -5.059753    5.803980    1.454092
     22          6           0       -8.147029    6.403509    0.479058
     23          6           0       -8.925183    6.735004   -0.644783
     24          7           0       -9.187597    0.927852   -0.540727
     25          6           0       -9.813374    2.132282   -0.443813
     26          6           0      -11.271328    2.016331   -0.914958
     27          6           0      -11.399480    0.632324   -1.257079
     28          6           0      -10.163918   -0.032965   -0.818345
     29          6           0      -12.289939    3.126776   -1.006000
     30          6           0      -12.596928    0.055942   -1.853320
     31          6           0      -12.682101   -0.198244   -3.388205
     32          7           0       -7.574999   -1.274673   -0.149551
     33          6           0       -8.628035   -1.959821   -0.610983
     34          6           0       -8.293330   -3.385699   -0.550892
     35          6           0       -6.968597   -3.392858   -0.278668
     36          6           0       -6.473555   -1.989319    0.010757
     37          6           0       -9.127074   -4.509419   -1.033407
     38          6           0       -5.853565   -4.220722    0.144715
     39          8           0       -5.741165   -5.482211   -0.092189
     40          6           0       -4.546410   -3.291299    0.409499
     41          6           0       -3.887042   -3.778826    1.711547
     42          8           0       -4.244016   -3.345691    2.762574
     43          8           0       -3.001614   -4.717685    1.470403
     44          6           0       -2.690379   -5.475821    2.600755
     45          6           0        2.763004   -1.444965   -0.949334
     46          6           0        4.099511   -0.887810   -0.436714
     47          6           0        4.974101   -0.174612   -1.092641
     48          6           0        4.774357    0.566134   -2.286478
     49          6           0        6.241065    0.074110   -0.141379
     50          6           0        7.510003   -0.450851   -0.933799
     51          6           0        8.850681   -0.327919   -0.109225
     52          6           0       10.130293   -0.990905   -0.753108
     53          6           0       10.020824   -2.425994   -0.888039
     54          6           0       11.320641   -0.558339    0.052256
     55          6           0       12.675126   -0.811875   -0.523850
     56          6           0       13.864772   -0.270146    0.221910
     57          6           0       15.262196   -0.273762   -0.427070
     58          6           0       15.746296   -1.641619   -0.666875
     59          6           0       16.243278    0.632365    0.444054
     60          6           0       17.731922    0.861152   -0.273677
     61          6           0       18.489855    1.765524    0.492867
     62          6           0       20.017360    2.004538    0.070521
     63          6           0       20.136665    2.564973   -1.364541
     64          6           0       20.761513    3.004543    1.055330
     65          1           0       -3.766469    3.330710    1.567270
     66          1           0       -9.788442    4.348367   -0.275464
     67          1           0      -10.664518   -2.053058   -1.229931
     68          1           0       -2.741043   -1.302245    1.915642
     69          1           0       -1.991916    1.199839    1.481387
     70          1           0       -2.026128    0.446880    3.731019
     71          1           0       -3.186445    1.799775    3.798772
     72          1           0       -3.707446    0.308442    3.697039
     73          1           0       -2.362940   -1.730221   -0.595882
     74          1           0       -2.194164    0.134663   -0.546427
     75          1           0       -0.125214   -0.078305    1.111335
     76          1           0       -0.455491   -1.859403    1.328672
     77          1           0       -4.075996    5.582704    0.987314
     78          1           0       -5.630744    6.871042    1.234121
     79          1           0       -5.094995    5.659160    2.550052
     80          1           0       -7.951434    7.089962    1.362322
     81          1           0       -8.895475    6.133161   -1.405693
     82          1           0       -9.279665    7.763233   -0.656261
     83          1           0      -12.273491    3.657520   -0.157610
     84          1           0      -11.667788    3.800221   -1.756575
     85          1           0      -13.433083    2.846825   -1.425392
     86          1           0      -12.825955   -1.051912   -1.384304
     87          1           0      -13.506119    0.665054   -1.796892
     88          1           0      -12.397924    0.668557   -3.855508
     89          1           0      -11.931670   -0.951063   -3.527348
     90          1           0      -13.639113   -0.643195   -3.676279
     91          1           0      -10.232940   -4.398478   -0.592771
     92          1           0       -9.151012   -4.565439   -2.108922
     93          1           0       -8.933828   -5.438341   -0.588818
     94          1           0       -3.920964   -3.431820   -0.491678
     95          1           0       -2.092441   -6.534931    2.391946
     96          1           0       -2.034510   -4.851354    3.108422
     97          1           0       -3.484522   -5.738454    3.210602
     98          1           0        2.694185   -2.420916   -1.017778
     99          1           0        2.608399   -1.087135   -1.981743
    100          1           0        4.345785   -1.276627    0.671278
    101          1           0        4.955306    1.750897   -1.724856
    102          1           0        5.397742    0.659543   -3.148875
    103          1           0        3.607472    0.632621   -2.331105
    104          1           0        6.113606    1.084361    0.062236
    105          1           0        5.886649   -0.521260    0.652840
    106          1           0        7.445044   -1.628544   -1.127011
    107          1           0        7.497721    0.171379   -1.828434
    108          1           0        9.094336    0.755281   -0.044285
    109          1           0        8.863964   -0.770360    0.850216
    110          1           0       10.169480   -0.482886   -1.758974
    111          1           0        8.917425   -2.793176   -1.411019
    112          1           0       10.819325   -2.864700   -1.581852
    113          1           0        9.790492   -2.823823    0.214012
    114          1           0       11.245941    0.478959    0.203461
    115          1           0       11.521835   -1.056659    1.006480
    116          1           0       12.632882   -1.904742   -0.755994
    117          1           0       12.724132   -0.272647   -1.568863
    118          1           0       13.592685    0.773281    0.438688
    119          1           0       13.688349   -0.704406    1.293564
    120          1           0       15.015143    0.304478   -1.507095
    121          1           0       14.997046   -2.236057   -1.309306
    122          1           0       16.824965   -1.613232   -1.360763
    123          1           0       15.861504   -2.214465    0.312186
    124          1           0       15.828729    1.572925    0.767843
    125          1           0       16.393839    0.158518    1.381002
    126          1           0       18.169992   -0.176698   -0.160480
    127          1           0       17.554684    1.305233   -1.410545
    128          1           0       17.986654    2.871953    0.555989
    129          1           0       18.541925    1.459847    1.623232
    130          1           0       20.581914    1.073722    0.065427
    131          1           0       19.726356    3.605004   -1.481099
    132          1           0       21.121016    2.847566   -1.501038
    133          1           0       19.464421    1.699150   -1.900630
    134          1           0       20.557244    2.667245    2.065017
    135          1           0       21.763350    2.756441    0.967461
    136          1           0       20.663274    4.031442    1.028539
    137          1           0       -6.950428    1.907258   -0.277748
    138          1           0       -7.661520   -0.227176    0.072413
 ---------------------------------------------------------------------

 SCF Done:  E(RB3LYP) =  -2732.98043661     A.U. after   17 cycles

 Excitation energies and oscillator strengths:

 Excited State   1:      Singlet-A      1.9874 eV  623.84 nm  f=0.2450  <S**2>=0.000
     235 -> 238        0.22329
     236 -> 237        0.65576
     236 -> 238        0.10756
 This state for optimization and/or second-order correction.
 Total Energy, E(TD-HF/TD-KS) =  -2732.90740016
 Copying the excited state density for this state as the 1-particle RhoCI density.

 The electronic state is 1-A.
 Alpha  occ. eigenvalues --  -19.18858 -19.16448 -19.13420 -19.12428 -19.11538
 Alpha  occ. eigenvalues --  -14.37045 -14.36594 -14.31930 -14.29793 -10.31659
 Alpha  occ. eigenvalues --  -10.31134 -10.27747 -10.24502 -10.24137 -10.23646
 Alpha  occ. eigenvalues --  -10.23085 -10.22934 -10.22861 -10.22641 -10.22634
 Alpha  occ. eigenvalues --  -10.21997 -10.21944 -10.21727 -10.21578 -10.21448
 Alpha  occ. eigenvalues --  -10.21267 -10.21178 -10.21172 -10.21117 -10.21035
 Alpha  occ. eigenvalues --  -10.20953 -10.20731 -10.20442 -10.20403 -10.20372
 Alpha  occ. eigenvalues --  -10.20280 -10.20050 -10.19968 -10.19909 -10.19831
 Alpha  occ. eigenvalues --  -10.19758 -10.19653 -10.19583 -10.19570 -10.19434
 Alpha  occ. eigenvalues --  -10.19198 -10.19190 -10.19167 -10.19133 -10.19122
 Alpha  occ. eigenvalues --  -10.19094 -10.18788 -10.18754 -10.18684 -10.18599
 Alpha  occ. eigenvalues --  -10.18484 -10.18405 -10.18332 -10.18216 -10.17980
 Alpha  occ. eigenvalues --  -10.17906 -10.17176 -10.16830 -10.16188  -1.12055
 Alpha  occ. eigenvalues --   -1.09946  -1.02510  -1.01275  -0.99748  -0.97963
 Alpha  occ. eigenvalues --   -0.97256  -0.96103  -0.91922  -0.84245  -0.83539
 Alpha  occ. eigenvalues --   -0.82870  -0.82409  -0.81391  -0.80962  -0.80538
 Alpha  occ. eigenvalues --   -0.79933  -0.79600  -0.79528  -0.78764  -0.77620
 Alpha  occ. eigenvalues --   -0.76705  -0.76233  -0.75637  -0.74757  -0.74509
 Alpha  occ. eigenvalues --   -0.74216  -0.73643  -0.72742  -0.71974  -0.70774
 Alpha  occ. eigenvalues --   -0.70342  -0.69272  -0.68849  -0.68519  -0.67823
 Alpha  occ. eigenvalues --   -0.67691  -0.66922  -0.66377  -0.65745  -0.65411
 Alpha  occ. eigenvalues --   -0.64495  -0.63055  -0.62379  -0.61457  -0.60662
 Alpha  occ. eigenvalues --   -0.60597  -0.58900  -0.58660  -0.58266  -0.57864
 Alpha  occ. eigenvalues --   -0.56751  -0.56705  -0.55777  -0.55502  -0.55080
 Alpha  occ. eigenvalues --   -0.54390  -0.54185  -0.53988  -0.53783  -0.52930
 Alpha  occ. eigenvalues --   -0.52312  -0.52118  -0.51446  -0.51322  -0.50906
 Alpha  occ. eigenvalues --   -0.49914  -0.49726  -0.49017  -0.48668  -0.48504
 Alpha  occ. eigenvalues --   -0.48366  -0.48142  -0.47678  -0.47294  -0.47051
 Alpha  occ. eigenvalues --   -0.46835  -0.46675  -0.46552  -0.46335  -0.46086
 Alpha  occ. eigenvalues --   -0.45913  -0.45569  -0.45323  -0.44900  -0.44855
 Alpha  occ. eigenvalues --   -0.44828  -0.44531  -0.44042  -0.43782  -0.43753
 Alpha  occ. eigenvalues --   -0.43285  -0.43171  -0.42935  -0.42872  -0.42632
 Alpha  occ. eigenvalues --   -0.42478  -0.42459  -0.42184  -0.41880  -0.41558
 Alpha  occ. eigenvalues --   -0.41508  -0.41244  -0.41119  -0.40854  -0.40667
 Alpha  occ. eigenvalues --   -0.40387  -0.39981  -0.39759  -0.39712  -0.39492
 Alpha  occ. eigenvalues --   -0.39325  -0.39068  -0.38906  -0.38446  -0.38410
 Alpha  occ. eigenvalues --   -0.38318  -0.38121  -0.37993  -0.37900  -0.37752
 Alpha  occ. eigenvalues --   -0.37375  -0.37289  -0.36780  -0.36682  -0.36518
 Alpha  occ. eigenvalues --   -0.36358  -0.36185  -0.35858  -0.35800  -0.35716
 Alpha  occ. eigenvalues --   -0.35474  -0.35388  -0.35191  -0.35009  -0.34318
 Alpha  occ. eigenvalues --   -0.34291  -0.34119  -0.33834  -0.33734  -0.33466
 Alpha  occ. eigenvalues --   -0.33367  -0.33295  -0.33101  -0.32574  -0.32495
 Alpha  occ. eigenvalues --   -0.32256  -0.31834  -0.31620  -0.31364  -0.31091
 Alpha  occ. eigenvalues --   -0.30966  -0.30525  -0.30336  -0.30121  -0.29477
 Alpha  occ. eigenvalues --   -0.29286  -0.28829  -0.28432  -0.28274  -0.27851
 Alpha  occ. eigenvalues --   -0.27781  -0.27616  -0.26687  -0.26288  -0.25852
 Alpha  occ. eigenvalues --   -0.25532  -0.23937  -0.23507  -0.21234  -0.20323
 Alpha  occ. eigenvalues --   -0.18016
 Alpha virt. eigenvalues --   -0.10137  -0.07563  -0.04622  -0.03265  -0.00483
 Alpha virt. eigenvalues --   -0.00330   0.00578   0.00818   0.02067   0.03446
 Alpha virt. eigenvalues --    0.03591   0.03982   0.04193   0.04521   0.04541

 Mulliken charges:
               1
     1  C   -0.023937
     2  C   -0.093376
     3  C   -0.078475
     4  C   -0.119458
     5  N   -0.125706
     6  C   -0.061837
     7  C    0.028729
     8  C   -0.083144
     9  C    0.064878
    10  C    0.099253
    11  C   -0.013674
    12  C   -0.016594
    13  C    0.162852
    14  O   -0.150238
    15  O   -0.380664
    16  N   -0.130125
    17  C    0.148245
    18  C   -0.207954
    19  C    0.027436
    20  C   -0.023114
    21  C    0.071992
    22  C   -0.091313
    23  C    0.065715
    24  N   -0.275466
    25  C    0.134095
    26  C   -0.174206
    27  C   -0.021683
    28  C    0.097451
    29  C    0.110987
    30  C   -0.048233
    31  C    0.072474
    32  N   -0.002428
    33  C    0.050913
    34  C   -0.136830
    35  C    0.043867
    36  C    0.029281
    37  C    0.109600
    38  C    0.074660
    39  O   -0.256463
    40  C   -0.022724
    41  C    0.170560
    42  O   -0.207613
    43  O   -0.250617
    44  C    0.202947
    45  C    0.338443
    46  C   -0.127513
    47  C   -0.170767
    48  C    0.029819
    49  C    0.150923
    50  C    0.000147
    51  C    0.042378
    52  C   -0.052308
    53  C   -0.038283
    54  C    0.069414
    55  C   -0.009374
    56  C    0.019960
    57  C   -0.055441
    58  C   -0.023664
    59  C    0.040142
    60  C    0.013624
    61  C   -0.038280
    62  C   -0.106767
    63  C    0.038365
    64  C    0.087734
    65  H   -0.051261
    66  H   -0.027526
    67  H    0.007010
    68  H    0.000607
    69  H    0.010989
    70  H    0.013715
    71  H    0.001607
    72  H   -0.031715
    73  H    0.043470
    74  H    0.015742
    75  H    0.048035
    76  H    0.042097
    77  H    0.050551
    78  H    0.043992
    79  H    0.037538
    80  H    0.032456
    81  H   -0.011608
    82  H    0.036807
    83  H   -0.004417
    84  H    0.035770
    85  H    0.057414
    86  H    0.010432
    87  H   -0.009412
    88  H   -0.008083
    89  H   -0.011387
    90  H    0.015204
    91  H    0.019691
    92  H    0.046614
    93  H    0.014099
    94  H    0.061384
    95  H    0.050771
    96  H   -0.001516
    97  H    0.019547
    98  H   -0.031190
    99  H   -0.001514
   100  H    0.022647
   101  H    0.018223
   102  H    0.044907
   103  H    0.047928
   104  H   -0.008094
   105  H   -0.032250
   106  H    0.024473
   107  H    0.000782
   108  H   -0.007051
   109  H   -0.019498
   110  H   -0.017719
   111  H    0.016263
   112  H    0.047787
   113  H    0.019481
   114  H   -0.035598
   115  H   -0.019725
   116  H   -0.006464
   117  H   -0.023067
   118  H   -0.018881
   119  H   -0.014262
   120  H    0.010697
   121  H    0.027720
   122  H    0.035069
   123  H    0.020529
   124  H   -0.016597
   125  H   -0.021789
   126  H    0.016867
   127  H    0.040307
   128  H    0.004651
   129  H    0.000208
   130  H   -0.008105
   131  H   -0.006963
   132  H   -0.018635
   133  H    0.041741
   134  H   -0.018575
   135  H   -0.021752
   136  H   -0.002102
   137  H    0.209129
   138  H    0.163187
 Sum of Mulliken charges =   0.00000

 Dipole moment (field-independent basis, Debye):
    X=              3.5295    Y=              4.4177    Z=              0.4905  Tot=              5.6757
 Quadrupole moment (field-independent basis, Debye-Ang):
   XX=           -372.7928   YY=           -381.5115   ZZ=           -395.4115
   XY=            -25.1561   XZ=             17.2325   YZ=             -5.2555

 Normal termination of Gaussian 09 at Sat Aug  3 12:26:23 2019.
