 Gaussian 09, Revision D.01,
 Gaussian 09:  ES64L-G09RevD.01 24-Apr-2013

 --------------------------
 # td=(NStates=1) B3LYP/SVP
 --------------------------

 --
 TD
 --
 Symbolic Z-matrix:
 Charge =  0 Multiplicity = 1

                         Standard orientation:
 ---------------------------------------------------------------------
 Center     Atomic      Atomic             Coordinates (Angstroms)
 Number     Number       Type             X           Y           Z
 ---------------------------------------------------------------------
      1          6           0       -5.138766   -1.941765    0.428416
      2          6           0       -4.824646    2.631903    1.435877
      3          6           0       -9.320582    3.407254   -0.155908
      4          6           0       -9.756992   -1.400370   -0.903274
      5          7           0       -5.208503    0.437070    0.833288
      6          6           0       -4.523608   -0.802395    0.861756
      7          6           0       -3.107396   -0.607529    1.237094
      8          6           0       -3.123530    0.887420    1.925742
      9          6           0       -4.444536    1.322782    1.321040
     10          6           0       -2.982600    0.858681    3.458141
     11          6           0       -1.936738   -0.766778    0.212890
     12          6           0       -0.510340   -0.831980    0.645747
     13          6           0        0.470322   -0.991085   -0.530460
     14          8           0        0.154483   -1.519315   -1.589596
     15          8           0        1.745841   -0.690199   -0.165650
     16          7           0       -7.070622    2.758665    0.519681
     17          6           0       -5.966711    3.314025    0.988672
     18          6           0       -6.237348    4.780854    0.881361
     19          6           0       -7.514792    4.953804    0.466980
     20          6           0       -8.004823    3.698860    0.223226
     21          6           0       -5.220146    5.821003    1.456520
     22          6           0       -8.192241    6.290729    0.323322
     23          6           0       -9.077529    6.683702   -0.606793
     24          7           0       -9.251075    0.907849   -0.452375
     25          6           0       -9.887838    2.136695   -0.467410
     26          6           0      -11.356673    1.831434   -0.871240
     27          6           0      -11.463536    0.570795   -1.143073
     28          6           0      -10.143198   -0.040658   -0.733821
     29          6           0      -12.378852    2.888134   -1.014846
     30          6           0      -12.714487   -0.320148   -1.547526
     31          6           0      -12.732101   -0.813272   -2.970949
     32          7           0       -7.415083   -1.280411   -0.312507
     33          6           0       -8.570367   -2.009264   -0.625281
     34          6           0       -8.257679   -3.374857   -0.761048
     35          6           0       -6.869893   -3.417332   -0.268450
     36          6           0       -6.436023   -2.090981   -0.090170
     37          6           0       -9.147469   -4.627879   -1.005832
     38          6           0       -5.778176   -4.309904   -0.012143
     39          8           0       -5.649977   -5.533522   -0.035225
     40          6           0       -4.571393   -3.400442    0.432083
     41          6           0       -3.939237   -3.923116    1.748138
     42          8           0       -4.162378   -3.478230    2.845343
     43          8           0       -3.038017   -4.965629    1.468791
     44          6           0       -2.365356   -5.604005    2.638167
     45          6           0        2.682813   -0.721721   -1.173458
     46          6           0        4.032570   -0.341948   -0.644235
     47          6           0        4.911220    0.442953   -1.296640
     48          6           0        4.858154    1.163392   -2.606483
     49          6           0        6.293927    0.592081   -0.542175
     50          6           0        7.512942   -0.136294   -1.234598
     51          6           0        8.810689    0.032529   -0.378517
     52          6           0       10.045877   -0.618154   -0.944158
     53          6           0        9.990581   -2.175164   -1.192203
     54          6           0       11.372764   -0.305874   -0.136369
     55          6           0       12.725370   -0.663918   -0.691394
     56          6           0       13.815341   -0.163153    0.135330
     57          6           0       15.233003   -0.284910   -0.405105
     58          6           0       15.547498   -1.584025   -0.579295
     59          6           0       16.200523    0.521024    0.531217
     60          6           0       17.592074    0.679267   -0.017372
     61          6           0       18.573306    1.501298    0.818568
     62          6           0       20.115894    1.473411    0.341016
     63          6           0       20.418771    1.954405   -1.062049
     64          6           0       21.024442    2.234443    1.449214
     65          1           0       -4.263753    3.717967    1.765709
     66          1           0       -9.985734    4.242762   -0.102202
     67          1           0      -10.483493   -2.224191   -1.215119
     68          1           0       -2.970926   -1.459373    2.000546
     69          1           0       -2.407635    1.378554    1.387335
     70          1           0       -2.115669    0.229110    3.851296
     71          1           0       -2.936785    1.873462    3.896678
     72          1           0       -4.066730    0.473000    3.943021
     73          1           0       -2.237117   -1.573195   -0.389029
     74          1           0       -2.028826   -0.059287   -0.747957
     75          1           0       -0.492863    0.105533    1.355469
     76          1           0       -0.262720   -1.887216    1.165814
     77          1           0       -4.503582    5.942146    0.568688
     78          1           0       -5.800180    6.649869    1.564398
     79          1           0       -4.658258    5.475941    2.552176
     80          1           0       -7.803339    7.022683    0.972413
     81          1           0       -9.562718    5.871707   -1.190379
     82          1           0       -9.433944    7.746563   -0.655529
     83          1           0      -12.535473    3.307475    0.026713
     84          1           0      -11.997715    3.756825   -1.543614
     85          1           0      -13.364507    2.458670   -1.085227
     86          1           0      -12.631613   -1.257599   -0.972951
     87          1           0      -13.543464    0.301349   -1.388809
     88          1           0      -12.430647    0.026122   -3.675498
     89          1           0      -11.945446   -1.570314   -3.347161
     90          1           0      -13.840440   -1.293813   -2.992519
     91          1           0      -10.048356   -4.654567   -0.328006
     92          1           0       -9.409880   -4.687014   -2.138879
     93          1           0       -8.376473   -5.456190   -0.926789
     94          1           0       -3.706201   -3.374873   -0.369702
     95          1           0       -1.575376   -6.469013    2.343656
     96          1           0       -1.827184   -4.899623    3.159608
     97          1           0       -3.076549   -5.797725    3.449648
     98          1           0        2.655081   -1.733695   -1.638060
     99          1           0        2.396332   -0.125281   -2.072939
    100          1           0        4.153577   -0.840572    0.489816
    101          1           0        5.362054    2.194265   -2.608873
    102          1           0        5.457293    0.484812   -3.430061
    103          1           0        3.878200    1.248779   -2.924735
    104          1           0        6.635743    1.780037   -0.709518
    105          1           0        6.332869    0.366913    0.554448
    106          1           0        7.370142   -1.212395   -1.417080
    107          1           0        7.789960    0.375727   -2.183596
    108          1           0        9.114228    1.068114   -0.021848
    109          1           0        8.562311   -0.472302    0.558045
    110          1           0       10.133435   -0.100597   -1.837469
    111          1           0        9.090591   -2.429160   -1.670498
    112          1           0       10.780560   -2.631389   -1.708902
    113          1           0        9.960698   -2.552757   -0.122795
    114          1           0       11.350286    0.854341    0.184880
    115          1           0       11.181402   -0.927578    0.911241
    116          1           0       12.597047   -1.773284   -0.480883
    117          1           0       12.724092   -0.430508   -1.707936
    118          1           0       13.667218    0.841274    0.302437
    119          1           0       13.796277   -0.776133    1.078812
    120          1           0       15.262361    0.094618   -1.448460
    121          1           0       14.982090   -2.301327   -1.174108
    122          1           0       16.537508   -1.604092   -1.195497
    123          1           0       15.768841   -2.132342    0.385655
    124          1           0       15.482484    1.387040    0.821957
    125          1           0       16.132012    0.080867    1.526771
    126          1           0       18.012788   -0.373342   -0.020029
    127          1           0       17.606334    1.147551   -1.049039
    128          1           0       18.267175    2.635945    0.572683
    129          1           0       18.487389    1.584021    1.865011
    130          1           0       20.486963    0.402745    0.419123
    131          1           0       20.096022    2.963545   -1.374325
    132          1           0       21.372339    2.068528   -1.401634
    133          1           0       20.051080    1.249476   -1.920321
    134          1           0       20.763213    1.700806    2.330408
    135          1           0       22.129089    2.168438    1.229269
    136          1           0       20.559109    3.459286    1.333731
    137          1           0       -7.352962    1.863159    0.362686
    138          1           0       -7.487122   -0.210071   -0.137546
 ---------------------------------------------------------------------

 SCF Done:  E(RB3LYP) =  -2733.08209217     A.U. after   16 cycles

 Excitation energies and oscillator strengths:

 Excited State   1:      Singlet-A      2.1197 eV  584.93 nm  f=0.2165  <S**2>=0.000
     235 -> 237       -0.16257
     235 -> 238        0.23136
     236 -> 237        0.63356
     236 -> 238        0.12735
 This state for optimization and/or second-order correction.
 Total Energy, E(TD-HF/TD-KS) =  -2733.00419643
 Copying the excited state density for this state as the 1-particle RhoCI density.

 The electronic state is 1-A.
 Alpha  occ. eigenvalues --  -19.18500 -19.17008 -19.13365 -19.12978 -19.11095
 Alpha  occ. eigenvalues --  -14.36983 -14.36517 -14.31921 -14.30993 -10.32702
 Alpha  occ. eigenvalues --  -10.31902 -10.27040 -10.24540 -10.24441 -10.23880
 Alpha  occ. eigenvalues --  -10.23103 -10.22873 -10.22743 -10.22725 -10.22658
 Alpha  occ. eigenvalues --  -10.22594 -10.22417 -10.21998 -10.21960 -10.21856
 Alpha  occ. eigenvalues --  -10.21717 -10.21248 -10.21123 -10.21079 -10.20893
 Alpha  occ. eigenvalues --  -10.20787 -10.20762 -10.20708 -10.20644 -10.20622
 Alpha  occ. eigenvalues --  -10.20442 -10.20284 -10.20268 -10.20258 -10.20249
 Alpha  occ. eigenvalues --  -10.20040 -10.19934 -10.19904 -10.19822 -10.19786
 Alpha  occ. eigenvalues --  -10.19744 -10.19619 -10.19543 -10.19183 -10.19170
 Alpha  occ. eigenvalues --  -10.19060 -10.18893 -10.18874 -10.18537 -10.18421
 Alpha  occ. eigenvalues --  -10.18310 -10.18172 -10.18064 -10.17518 -10.17413
 Alpha  occ. eigenvalues --  -10.17289 -10.17214 -10.16778 -10.16602  -1.10611
 Alpha  occ. eigenvalues --   -1.06992  -1.01460  -1.00901  -1.00771  -0.99539
 Alpha  occ. eigenvalues --   -0.99376  -0.95559  -0.93610  -0.84497  -0.83806
 Alpha  occ. eigenvalues --   -0.83261  -0.81758  -0.81160  -0.80879  -0.80489
 Alpha  occ. eigenvalues --   -0.80168  -0.79834  -0.79099  -0.78730  -0.77345
 Alpha  occ. eigenvalues --   -0.76795  -0.76614  -0.75681  -0.75323  -0.74605
 Alpha  occ. eigenvalues --   -0.73933  -0.73453  -0.72398  -0.72346  -0.71499
 Alpha  occ. eigenvalues --   -0.69940  -0.69363  -0.68441  -0.68021  -0.67882
 Alpha  occ. eigenvalues --   -0.67628  -0.67131  -0.66400  -0.66187  -0.65379
 Alpha  occ. eigenvalues --   -0.64312  -0.63187  -0.62733  -0.61971  -0.60799
 Alpha  occ. eigenvalues --   -0.60510  -0.58987  -0.58543  -0.58455  -0.57987
 Alpha  occ. eigenvalues --   -0.57111  -0.56712  -0.56399  -0.55654  -0.55621
 Alpha  occ. eigenvalues --   -0.55175  -0.54837  -0.54708  -0.54403  -0.53190
 Alpha  occ. eigenvalues --   -0.52430  -0.52030  -0.51441  -0.51144  -0.50061
 Alpha  occ. eigenvalues --   -0.49608  -0.49348  -0.49249  -0.48779  -0.48073
 Alpha  occ. eigenvalues --   -0.47749  -0.47365  -0.47075  -0.46843  -0.46724
 Alpha  occ. eigenvalues --   -0.46631  -0.46407  -0.46070  -0.45926  -0.45684
 Alpha  occ. eigenvalues --   -0.45591  -0.45523  -0.45379  -0.45133  -0.44914
 Alpha  occ. eigenvalues --   -0.44532  -0.44321  -0.44177  -0.43945  -0.43750
 Alpha  occ. eigenvalues --   -0.43196  -0.42984  -0.42813  -0.42492  -0.42402
 Alpha  occ. eigenvalues --   -0.42361  -0.42259  -0.42159  -0.41731  -0.41517
 Alpha  occ. eigenvalues --   -0.41453  -0.41268  -0.41080  -0.40953  -0.40348
 Alpha  occ. eigenvalues --   -0.40292  -0.40276  -0.39638  -0.39529  -0.39506
 Alpha  occ. eigenvalues --   -0.39142  -0.38730  -0.38534  -0.38463  -0.38095
 Alpha  occ. eigenvalues --   -0.38055  -0.37957  -0.37833  -0.37709  -0.37584
 Alpha  occ. eigenvalues --   -0.37507  -0.37296  -0.37092  -0.37042  -0.36672
 Alpha  occ. eigenvalues --   -0.36644  -0.36347  -0.36233  -0.36110  -0.36039
 Alpha  occ. eigenvalues --   -0.35520  -0.35430  -0.35210  -0.35073  -0.35009
 Alpha  occ. eigenvalues --   -0.34698  -0.34520  -0.33859  -0.33825  -0.33679
 Alpha  occ. eigenvalues --   -0.33276  -0.33124  -0.32659  -0.32305  -0.31885
 Alpha  occ. eigenvalues --   -0.31779  -0.31676  -0.31299  -0.30948  -0.30710
 Alpha  occ. eigenvalues --   -0.30655  -0.30351  -0.30112  -0.29984  -0.29637
 Alpha  occ. eigenvalues --   -0.29570  -0.29336  -0.28708  -0.28530  -0.28438
 Alpha  occ. eigenvalues --   -0.28016  -0.27754  -0.26947  -0.25981  -0.25837
 Alpha  occ. eigenvalues --   -0.25313  -0.24716  -0.24268  -0.24048  -0.20205
 Alpha  occ. eigenvalues --   -0.18873
 Alpha virt. eigenvalues --   -0.10476  -0.06978  -0.04353  -0.01984  -0.01145
 Alpha virt. eigenvalues --   -0.00122  -0.00050   0.00982   0.02072   0.03431
 Alpha virt. eigenvalues --    0.03873   0.04032   0.04279   0.04466   0.04594

 Mulliken charges:
               1
     1  C    0.030776
     2  C   -0.031165
     3  C   -0.088063
     4  C   -0.068927
     5  N   -0.139801
     6  C   -0.071272
     7  C   -0.070301
     8  C    0.072157
     9  C   -0.051306
    10  C    0.029058
    11  C    0.053373
    12  C    0.019436
    13  C    0.177619
    14  O   -0.239893
    15  O   -0.282457
    16  N    0.073029
    17  C   -0.041904
    18  C   -0.154611
    19  C    0.052989
    20  C    0.028681
    21  C    0.078194
    22  C   -0.026864
    23  C   -0.027286
    24  N   -0.241738
    25  C    0.053026
    26  C   -0.155305
    27  C   -0.121942
    28  C    0.053280
    29  C    0.170191
    30  C    0.150001
    31  C   -0.076016
    32  N   -0.013929
    33  C    0.037221
    34  C   -0.117353
    35  C   -0.026299
    36  C    0.019039
    37  C    0.051940
    38  C    0.059316
    39  O   -0.190737
    40  C   -0.071572
    41  C    0.229076
    42  O   -0.213235
    43  O   -0.350387
    44  C    0.206924
    45  C    0.232915
    46  C   -0.115045
    47  C   -0.100542
    48  C    0.073224
    49  C   -0.001576
    50  C    0.020087
    51  C   -0.000583
    52  C   -0.000431
    53  C    0.059916
    54  C   -0.129064
    55  C    0.116421
    56  C    0.069563
    57  C   -0.048452
    58  C    0.016689
    59  C    0.035967
    60  C    0.081878
    61  C    0.020373
    62  C   -0.101068
    63  C    0.051958
    64  C   -0.028694
    65  H    0.005256
    66  H   -0.030854
    67  H   -0.007940
    68  H    0.022466
    69  H   -0.038344
    70  H    0.041534
    71  H    0.016881
    72  H    0.041943
    73  H   -0.031594
    74  H    0.006627
    75  H    0.054066
    76  H    0.061697
    77  H    0.053477
    78  H   -0.017555
    79  H    0.077660
    80  H   -0.018342
    81  H    0.031748
    82  H    0.039845
    83  H   -0.000034
    84  H    0.021590
    85  H   -0.006661
    86  H    0.008865
    87  H   -0.017834
    88  H    0.021661
    89  H    0.027012
    90  H    0.036915
    91  H    0.060314
    92  H    0.037382
    93  H    0.055361
    94  H    0.085566
    95  H    0.070527
    96  H   -0.012255
    97  H    0.025534
    98  H    0.015642
    99  H   -0.001402
   100  H    0.040464
   101  H    0.038499
   102  H    0.052221
   103  H   -0.004691
   104  H    0.006630
   105  H    0.015572
   106  H    0.011069
   107  H   -0.000787
   108  H    0.001606
   109  H   -0.027795
   110  H   -0.041436
   111  H   -0.010998
   112  H    0.007591
   113  H    0.003297
   114  H   -0.004995
   115  H   -0.000984
   116  H    0.004907
   117  H   -0.023321
   118  H   -0.038091
   119  H   -0.011927
   120  H   -0.027285
   121  H    0.003163
   122  H   -0.005770
   123  H   -0.012887
   124  H   -0.019164
   125  H   -0.027020
   126  H    0.011994
   127  H    0.019796
   128  H   -0.011437
   129  H   -0.020654
   130  H    0.001718
   131  H   -0.007049
   132  H   -0.030852
   133  H    0.006454
   134  H    0.016877
   135  H    0.030171
   136  H    0.030080
   137  H    0.077115
   138  H    0.184666
 Sum of Mulliken charges =   0.00000

 Dipole moment (field-independent basis, Debye):
    X=              1.0430    Y=              5.5004    Z=              0.2029  Tot=              5.6021
 Quadrupole moment (field-independent basis, Debye-Ang):
   XX=           -343.0508   YY=           -387.1441   ZZ=           -394.3747
   XY=            -38.3158   XZ=             -3.5006   YZ=             -2.7493

 Normal termination of Gaussian 09 at Wed Jul 31 06:12:36 2019.
