 Gaussian 09, Revision D.01,
 Gaussian 09:  ES64L-G09RevD.01 24-Apr-2013

 --------------------------
 # td=(NStates=1) B3LYP/SVP
 --------------------------

 --
 TD
 --
 Symbolic Z-matrix:
 Charge =  0 Multiplicity = 1

                         Standard orientation:
 ---------------------------------------------------------------------
 Center     Atomic      Atomic             Coordinates (Angstroms)
 Number     Number       Type             X           Y           Z
 ---------------------------------------------------------------------
      1          6           0       -5.048182   -1.884515    0.406538
      2          6           0       -4.665362    2.845605    1.309114
      3          6           0       -9.201868    3.368099   -0.325287
      4          6           0       -9.822956   -1.390520   -0.868144
      5          7           0       -5.094373    0.536326    0.673012
      6          6           0       -4.480443   -0.700006    0.838143
      7          6           0       -2.972327   -0.543073    1.312950
      8          6           0       -2.978921    0.928551    1.763463
      9          6           0       -4.308158    1.443347    1.338729
     10          6           0       -2.874230    1.050454    3.325523
     11          6           0       -2.038035   -0.779930    0.060918
     12          6           0       -0.614382   -0.973892    0.539646
     13          6           0        0.284066   -1.228712   -0.604188
     14          8           0        0.054171   -1.921405   -1.600796
     15          8           0        1.561302   -0.848823   -0.311881
     16          7           0       -7.087745    2.787160    0.543281
     17          6           0       -5.909610    3.507811    0.982402
     18          6           0       -6.218829    4.857426    1.104971
     19          6           0       -7.541676    4.991276    0.501864
     20          6           0       -8.028970    3.618704    0.229447
     21          6           0       -5.336817    5.988345    1.619207
     22          6           0       -8.169457    6.327473    0.377406
     23          6           0       -8.947768    6.740513   -0.772598
     24          7           0       -9.088851    0.943476   -0.552326
     25          6           0       -9.827305    2.122011   -0.570221
     26          6           0      -11.227221    2.004893   -0.968184
     27          6           0      -11.414201    0.625275   -1.151625
     28          6           0       -9.992506    0.002243   -0.815952
     29          6           0      -12.190469    3.044550   -1.220388
     30          6           0      -12.590256   -0.052334   -1.652692
     31          6           0      -12.682745   -0.500382   -3.162289
     32          7           0       -7.452767   -1.231987   -0.139093
     33          6           0       -8.605875   -1.954621   -0.492504
     34          6           0       -8.201120   -3.360549   -0.593922
     35          6           0       -6.794238   -3.414762   -0.223786
     36          6           0       -6.400312   -2.077271    0.060917
     37          6           0       -9.117580   -4.548384   -0.931789
     38          6           0       -5.712895   -4.276804    0.136246
     39          8           0       -5.726339   -5.502772    0.044739
     40          6           0       -4.545269   -3.404194    0.418276
     41          6           0       -3.889982   -3.828063    1.777167
     42          8           0       -4.341796   -3.458824    2.875886
     43          8           0       -2.894108   -4.653615    1.653953
     44          6           0       -2.365840   -5.239878    2.822554
     45          6           0        2.606263   -1.341895   -1.205413
     46          6           0        3.951334   -0.906750   -0.691929
     47          6           0        4.912749   -0.237369   -1.298337
     48          6           0        4.787195    0.169919   -2.794673
     49          6           0        6.205230    0.044875   -0.580092
     50          6           0        7.325692   -0.874077   -0.995571
     51          6           0        8.715919   -0.378278   -0.202986
     52          6           0       10.060240   -0.970882   -0.660142
     53          6           0       10.113204   -2.521271   -0.371912
     54          6           0       11.148903   -0.140224   -0.040687
     55          6           0       12.546472   -0.518150   -0.599983
     56          6           0       13.756710    0.125421    0.167647
     57          6           0       15.238907   -0.081622   -0.449575
     58          6           0       15.642206   -1.425742   -0.311684
     59          6           0       16.169020    0.875161    0.312474
     60          6           0       17.692909    0.787827   -0.090978
     61          6           0       18.574279    1.861149    0.533468
     62          6           0       20.020317    1.827788    0.243608
     63          6           0       20.304265    1.974280   -1.234944
     64          6           0       20.794082    2.905511    1.065905
     65          1           0       -3.944430    3.744839    1.892440
     66          1           0       -9.909991    4.119730   -0.556540
     67          1           0      -10.597109   -2.047721   -1.132767
     68          1           0       -2.951698   -1.396525    2.167005
     69          1           0       -2.191869    1.568616    1.388382
     70          1           0       -1.967016    0.489682    3.433078
     71          1           0       -2.828400    2.187219    3.863426
     72          1           0       -3.716467    0.480966    3.770121
     73          1           0       -2.032970   -1.887376   -0.307631
     74          1           0       -2.119180   -0.139285   -0.805067
     75          1           0       -0.238205   -0.143758    1.194381
     76          1           0       -0.522750   -1.922280    1.407360
     77          1           0       -4.469840    6.115149    0.836139
     78          1           0       -5.860320    6.906613    1.846483
     79          1           0       -4.917021    5.463876    2.544090
     80          1           0       -7.950943    6.966730    1.324046
     81          1           0       -9.389127    5.867373   -1.485291
     82          1           0       -9.347786    7.735322   -0.671008
     83          1           0      -12.349539    3.659519   -0.313789
     84          1           0      -11.957340    3.712237   -2.024079
     85          1           0      -13.231486    2.828165   -1.440119
     86          1           0      -12.845921   -1.113415   -0.914796
     87          1           0      -13.352418    0.653057   -1.178778
     88          1           0      -12.881566    0.323294   -3.869338
     89          1           0      -11.866463   -1.001556   -3.460512
     90          1           0      -13.420342   -1.431433   -3.403192
     91          1           0       -9.708826   -5.256085    0.191522
     92          1           0      -10.049215   -4.277651   -1.886219
     93          1           0       -8.352710   -5.415592   -1.445203
     94          1           0       -3.738966   -3.631658   -0.531989
     95          1           0       -1.688763   -5.969378    2.465422
     96          1           0       -1.938642   -4.431820    3.384393
     97          1           0       -3.217585   -5.701063    3.390782
     98          1           0        2.441388   -2.491386   -1.402164
     99          1           0        2.432777   -0.826273   -2.145997
    100          1           0        4.138073   -1.502117    0.392753
    101          1           0        5.273955    1.211563   -2.867345
    102          1           0        5.474375   -0.556427   -3.466592
    103          1           0        3.786931   -0.022341   -3.421689
    104          1           0        6.511916    0.962691   -1.012259
    105          1           0        6.136832    0.031721    0.507157
    106          1           0        7.368703   -2.037505   -0.546046
    107          1           0        7.484515   -0.677760   -2.022177
    108          1           0        8.822120    0.748293   -0.203441
    109          1           0        8.347580   -0.544522    0.874043
    110          1           0       10.032473   -0.735038   -1.588802
    111          1           0        9.141282   -3.176183   -0.775445
    112          1           0       10.985547   -2.811588   -1.078950
    113          1           0       10.204447   -2.660230    0.737779
    114          1           0       11.100608    1.129345   -0.057392
    115          1           0       11.274186   -0.385592    1.051080
    116          1           0       12.619880   -1.673526   -0.722089
    117          1           0       12.599307   -0.214087   -1.551150
    118          1           0       13.641822    1.203746    0.124880
    119          1           0       13.520649    0.021709    1.207879
    120          1           0       15.307051    0.353589   -1.527816
    121          1           0       14.871675   -2.041498   -0.637433
    122          1           0       16.628238   -1.730265   -0.942631
    123          1           0       15.924762   -1.813711    0.678945
    124          1           0       15.893673    1.876373    0.578514
    125          1           0       16.087907    0.590913    1.434636
    126          1           0       18.137440   -0.306941   -0.003695
    127          1           0       17.833350    1.140080   -1.239958
    128          1           0       18.166127    2.895050   -0.005348
    129          1           0       18.454300    1.974757    1.669289
    130          1           0       20.571121    0.819498    0.588642
    131          1           0       19.818301    2.911155   -1.849298
    132          1           0       21.386318    2.158631   -1.594246
    133          1           0       19.860251    1.104373   -2.046828
    134          1           0       20.760069    2.654546    2.168418
    135          1           0       21.784409    2.886013    0.625726
    136          1           0       20.200853    3.865684    0.889956
    137          1           0       -7.090066    1.820358    0.324540
    138          1           0       -7.344901   -0.276323    0.015849
 ---------------------------------------------------------------------

 SCF Done:  E(RB3LYP) =  -2732.95717041     A.U. after   17 cycles

 Excitation energies and oscillator strengths:

 Excited State   1:      Singlet-A      1.9523 eV  635.08 nm  f=0.1909  <S**2>=0.000
     235 -> 238        0.28181
     236 -> 237        0.63859
 This state for optimization and/or second-order correction.
 Total Energy, E(TD-HF/TD-KS) =  -2732.88542578
 Copying the excited state density for this state as the 1-particle RhoCI density.

 The electronic state is 1-A.
 Alpha  occ. eigenvalues --  -19.18936 -19.17218 -19.12459 -19.11973 -19.10903
 Alpha  occ. eigenvalues --  -14.36671 -14.36420 -14.32980 -14.30462 -10.32117
 Alpha  occ. eigenvalues --  -10.31549 -10.26660 -10.25178 -10.24859 -10.24701
 Alpha  occ. eigenvalues --  -10.24442 -10.23798 -10.23759 -10.23404 -10.23115
 Alpha  occ. eigenvalues --  -10.23104 -10.23067 -10.22564 -10.22429 -10.22420
 Alpha  occ. eigenvalues --  -10.22201 -10.22160 -10.21757 -10.21708 -10.21660
 Alpha  occ. eigenvalues --  -10.21602 -10.21510 -10.21499 -10.21078 -10.20915
 Alpha  occ. eigenvalues --  -10.20895 -10.20838 -10.20719 -10.20689 -10.20683
 Alpha  occ. eigenvalues --  -10.20552 -10.20391 -10.20043 -10.20036 -10.20032
 Alpha  occ. eigenvalues --  -10.19862 -10.19857 -10.19702 -10.19607 -10.19455
 Alpha  occ. eigenvalues --  -10.19310 -10.19216 -10.19031 -10.19022 -10.18991
 Alpha  occ. eigenvalues --  -10.18872 -10.18668 -10.18614 -10.18441 -10.18423
 Alpha  occ. eigenvalues --  -10.18353 -10.18142 -10.17756 -10.17329  -1.11572
 Alpha  occ. eigenvalues --   -1.08264  -1.01139  -0.99467  -0.99164  -0.98685
 Alpha  occ. eigenvalues --   -0.97584  -0.93696  -0.93036  -0.84697  -0.82850
 Alpha  occ. eigenvalues --   -0.82082  -0.81836  -0.81502  -0.81243  -0.80668
 Alpha  occ. eigenvalues --   -0.80307  -0.80079  -0.79366  -0.78714  -0.77775
 Alpha  occ. eigenvalues --   -0.76618  -0.76177  -0.75277  -0.74548  -0.74179
 Alpha  occ. eigenvalues --   -0.74082  -0.72837  -0.71959  -0.71342  -0.70608
 Alpha  occ. eigenvalues --   -0.69530  -0.68938  -0.68564  -0.67383  -0.67287
 Alpha  occ. eigenvalues --   -0.66843  -0.66326  -0.65894  -0.65333  -0.65088
 Alpha  occ. eigenvalues --   -0.64572  -0.62620  -0.62371  -0.62026  -0.61314
 Alpha  occ. eigenvalues --   -0.60658  -0.58690  -0.58021  -0.57799  -0.57317
 Alpha  occ. eigenvalues --   -0.57007  -0.56602  -0.56334  -0.55627  -0.55553
 Alpha  occ. eigenvalues --   -0.54933  -0.54750  -0.53487  -0.53430  -0.52730
 Alpha  occ. eigenvalues --   -0.52614  -0.51731  -0.51475  -0.50638  -0.50338
 Alpha  occ. eigenvalues --   -0.49338  -0.49293  -0.49058  -0.48549  -0.48459
 Alpha  occ. eigenvalues --   -0.48127  -0.47032  -0.46942  -0.46858  -0.46786
 Alpha  occ. eigenvalues --   -0.46671  -0.46199  -0.45770  -0.45647  -0.45416
 Alpha  occ. eigenvalues --   -0.45185  -0.44887  -0.44696  -0.44578  -0.44461
 Alpha  occ. eigenvalues --   -0.44156  -0.44004  -0.43802  -0.43710  -0.43521
 Alpha  occ. eigenvalues --   -0.43302  -0.43185  -0.43062  -0.42541  -0.42205
 Alpha  occ. eigenvalues --   -0.42129  -0.42107  -0.41800  -0.41440  -0.41263
 Alpha  occ. eigenvalues --   -0.41069  -0.40796  -0.40587  -0.40443  -0.40416
 Alpha  occ. eigenvalues --   -0.40127  -0.39926  -0.39726  -0.39411  -0.39193
 Alpha  occ. eigenvalues --   -0.38883  -0.38496  -0.38392  -0.38316  -0.37964
 Alpha  occ. eigenvalues --   -0.37749  -0.37511  -0.37323  -0.37235  -0.37101
 Alpha  occ. eigenvalues --   -0.36746  -0.36554  -0.36325  -0.36263  -0.36231
 Alpha  occ. eigenvalues --   -0.36087  -0.36041  -0.35871  -0.35659  -0.35571
 Alpha  occ. eigenvalues --   -0.35317  -0.35203  -0.35115  -0.34933  -0.34637
 Alpha  occ. eigenvalues --   -0.34380  -0.34351  -0.33744  -0.33706  -0.33491
 Alpha  occ. eigenvalues --   -0.33471  -0.33202  -0.32924  -0.32655  -0.32489
 Alpha  occ. eigenvalues --   -0.32185  -0.31820  -0.31787  -0.31455  -0.31166
 Alpha  occ. eigenvalues --   -0.30848  -0.30762  -0.30268  -0.29948  -0.29828
 Alpha  occ. eigenvalues --   -0.28969  -0.28893  -0.28496  -0.28380  -0.28115
 Alpha  occ. eigenvalues --   -0.27462  -0.27379  -0.26666  -0.26408  -0.25241
 Alpha  occ. eigenvalues --   -0.25155  -0.24555  -0.23433  -0.22898  -0.19755
 Alpha  occ. eigenvalues --   -0.18742
 Alpha virt. eigenvalues --   -0.10628  -0.07865  -0.04734  -0.02829  -0.02459
 Alpha virt. eigenvalues --   -0.00725  -0.00128   0.00083   0.01196   0.01700
 Alpha virt. eigenvalues --    0.02722   0.03108   0.03430   0.03884   0.04028

 Mulliken charges:
               1
     1  C    0.072297
     2  C   -0.103207
     3  C   -0.109845
     4  C   -0.064704
     5  N   -0.214530
     6  C   -0.090352
     7  C   -0.074706
     8  C   -0.009325
     9  C    0.048714
    10  C    0.010769
    11  C    0.033941
    12  C   -0.036364
    13  C    0.204644
    14  O   -0.260043
    15  O   -0.325996
    16  N   -0.012473
    17  C    0.061071
    18  C   -0.131578
    19  C   -0.035412
    20  C    0.188083
    21  C    0.078108
    22  C   -0.103133
    23  C   -0.052362
    24  N   -0.224017
    25  C    0.018912
    26  C   -0.088299
    27  C   -0.083219
    28  C    0.079079
    29  C    0.114662
    30  C   -0.067255
    31  C    0.067191
    32  N   -0.022633
    33  C    0.130597
    34  C   -0.081817
    35  C    0.028983
    36  C    0.022982
    37  C   -0.133769
    38  C    0.051047
    39  O   -0.199231
    40  C   -0.079380
    41  C    0.189464
    42  O   -0.277828
    43  O   -0.249422
    44  C    0.208926
    45  C    0.256461
    46  C   -0.138402
    47  C   -0.086623
    48  C   -0.041247
    49  C    0.144596
    50  C   -0.017730
    51  C   -0.082969
    52  C    0.108646
    53  C   -0.038631
    54  C   -0.063652
    55  C    0.060831
    56  C    0.031870
    57  C   -0.025688
    58  C    0.080382
    59  C    0.018580
    60  C   -0.018097
    61  C   -0.020445
    62  C   -0.080740
    63  C   -0.103035
    64  C    0.035406
    65  H    0.015973
    66  H   -0.064266
    67  H   -0.041915
    68  H    0.058810
    69  H    0.010288
    70  H    0.007449
    71  H    0.047633
    72  H    0.032573
    73  H    0.048722
    74  H    0.028103
    75  H    0.019101
    76  H    0.064851
    77  H    0.059607
    78  H    0.019560
    79  H    0.041914
    80  H    0.045947
    81  H    0.075216
    82  H    0.030187
    83  H    0.015114
    84  H    0.012293
    85  H   -0.004552
    86  H    0.019780
    87  H    0.025519
    88  H    0.026806
    89  H   -0.021375
    90  H    0.015389
    91  H    0.072004
    92  H    0.057891
    93  H    0.082357
    94  H    0.101392
    95  H    0.030188
    96  H    0.021181
    97  H    0.045438
    98  H    0.050267
    99  H   -0.010373
   100  H    0.016133
   101  H    0.035358
   102  H    0.045942
   103  H    0.055536
   104  H   -0.024971
   105  H    0.004775
   106  H    0.038107
   107  H   -0.013182
   108  H   -0.011587
   109  H   -0.009996
   110  H   -0.074029
   111  H    0.041840
   112  H    0.039934
   113  H    0.034407
   114  H    0.025528
   115  H   -0.004483
   116  H    0.003691
   117  H   -0.050334
   118  H   -0.027644
   119  H   -0.023109
   120  H    0.011733
   121  H   -0.023116
   122  H    0.013610
   123  H    0.001058
   124  H   -0.028714
   125  H   -0.023555
   126  H    0.024745
   127  H    0.012313
   128  H    0.011982
   129  H    0.000498
   130  H    0.013225
   131  H    0.009900
   132  H    0.019668
   133  H    0.035234
   134  H    0.023000
   135  H    0.013103
   136  H    0.012978
   137  H    0.120893
   138  H    0.112374
 Sum of Mulliken charges =   0.00000

 Dipole moment (field-independent basis, Debye):
    X=              3.3508    Y=              4.8804    Z=              0.5955  Tot=              5.9498
 Quadrupole moment (field-independent basis, Debye-Ang):
   XX=           -361.2979   YY=           -390.1692   ZZ=           -392.2048
   XY=            -36.5432   XZ=              7.8608   YZ=             -0.2137

 Normal termination of Gaussian 09 at Sat Aug  3 09:22:24 2019.
