 Gaussian 09, Revision D.01,
 Gaussian 09:  ES64L-G09RevD.01 24-Apr-2013

 --------------------------
 # td=(NStates=1) B3LYP/SVP
 --------------------------

 --
 TD
 --
 Symbolic Z-matrix:
 Charge =  0 Multiplicity = 1

                         Standard orientation:
 ---------------------------------------------------------------------
 Center     Atomic      Atomic             Coordinates (Angstroms)
 Number     Number       Type             X           Y           Z
 ---------------------------------------------------------------------
      1          6           0       -5.094299   -1.887351    0.491025
      2          6           0       -4.837082    2.905782    1.464619
      3          6           0       -9.469311    3.186327   -0.312510
      4          6           0       -9.945958   -1.647712   -0.714691
      5          7           0       -5.229983    0.465728    0.817796
      6          6           0       -4.536383   -0.671859    0.807860
      7          6           0       -3.037083   -0.504323    1.104993
      8          6           0       -2.988680    0.919727    1.590602
      9          6           0       -4.480503    1.498419    1.306254
     10          6           0       -2.575830    1.091942    3.071972
     11          6           0       -2.100160   -0.673325   -0.068655
     12          6           0       -0.584875   -0.546691    0.363666
     13          6           0        0.369263   -0.909591   -0.753033
     14          8           0       -0.029230   -1.237107   -1.908079
     15          8           0        1.612566   -0.802400   -0.453809
     16          7           0       -7.135712    2.704242    0.546448
     17          6           0       -6.084008    3.455554    1.052121
     18          6           0       -6.435773    4.799250    1.015707
     19          6           0       -7.719344    4.951350    0.552584
     20          6           0       -8.137287    3.605728    0.164159
     21          6           0       -5.461762    5.928157    1.288245
     22          6           0       -8.399630    6.228629    0.182404
     23          6           0       -9.145055    6.577478   -0.941911
     24          7           0       -9.332694    0.760820   -0.392310
     25          6           0       -9.943162    2.023150   -0.456223
     26          6           0      -11.393709    1.752521   -0.869198
     27          6           0      -11.528748    0.432100   -0.951941
     28          6           0      -10.164829   -0.212696   -0.749417
     29          6           0      -12.498076    2.793513   -0.874852
     30          6           0      -12.738264   -0.426156   -1.466257
     31          6           0      -12.716782   -0.889351   -2.886422
     32          7           0       -7.529494   -1.263124   -0.227743
     33          6           0       -8.620863   -2.105300   -0.456379
     34          6           0       -8.198569   -3.511559   -0.336278
     35          6           0       -6.787332   -3.374039   -0.110467
     36          6           0       -6.432350   -1.982020    0.084249
     37          6           0       -9.011178   -4.694292   -0.657128
     38          6           0       -5.624686   -4.245029    0.120995
     39          8           0       -5.517896   -5.461349    0.237240
     40          6           0       -4.521753   -3.259054    0.489206
     41          6           0       -3.885352   -3.730307    1.836001
     42          8           0       -4.159136   -3.284722    2.941173
     43          8           0       -2.831689   -4.618845    1.694527
     44          6           0       -2.411410   -5.163511    2.858316
     45          6           0        2.663337   -1.016952   -1.497767
     46          6           0        4.026104   -0.717687   -0.936663
     47          6           0        4.977274   -0.033983   -1.330781
     48          6           0        5.023311    0.825335   -2.624662
     49          6           0        6.274011    0.089910   -0.441537
     50          6           0        7.522537   -0.507428   -1.193035
     51          6           0        8.833174   -0.408719   -0.270987
     52          6           0       10.091902   -0.680133   -1.069036
     53          6           0       10.190832   -2.213157   -1.441942
     54          6           0       11.311950   -0.205556   -0.184557
     55          6           0       12.703675   -0.619908   -0.795430
     56          6           0       13.845781   -0.119411    0.184868
     57          6           0       15.269791   -0.106086   -0.490491
     58          6           0       15.641434   -1.591543   -0.796510
     59          6           0       16.319855    0.646333    0.494250
     60          6           0       17.713328    0.705275   -0.017058
     61          6           0       18.664669    1.558285    0.952593
     62          6           0       20.197579    1.635731    0.663351
     63          6           0       20.609447    2.124553   -0.738062
     64          6           0       20.903983    2.415252    1.702385
     65          1           0       -4.143372    3.607444    1.849256
     66          1           0      -10.120735    4.091061   -0.463264
     67          1           0      -10.736772   -2.354095   -0.842131
     68          1           0       -2.695544   -1.097329    1.929062
     69          1           0       -2.350851    1.516360    1.134689
     70          1           0       -1.573469    0.658656    3.226755
     71          1           0       -2.796370    2.170541    3.544948
     72          1           0       -3.403426    0.569948    3.779037
     73          1           0       -2.430820   -1.431064   -0.560122
     74          1           0       -2.370132    0.134401   -0.716548
     75          1           0       -0.285031    0.544598    0.799960
     76          1           0       -0.311534   -1.189205    1.192234
     77          1           0       -4.845315    5.867544    0.259102
     78          1           0       -6.124408    6.883152    1.634070
     79          1           0       -4.588873    5.543139    2.170892
     80          1           0       -8.224341    7.126239    0.788522
     81          1           0       -9.283084    6.090507   -1.733468
     82          1           0       -9.429022    7.739608   -1.073672
     83          1           0      -12.519706    3.351515    0.068188
     84          1           0      -12.393728    3.331456   -1.732338
     85          1           0      -13.399759    2.417056   -1.262022
     86          1           0      -12.829589   -1.142130   -0.660144
     87          1           0      -13.673200    0.088251   -1.235733
     88          1           0      -13.043481   -0.060948   -3.557323
     89          1           0      -11.604829   -1.222269   -3.247806
     90          1           0      -13.420088   -1.663512   -3.003263
     91          1           0       -9.737142   -5.086936    0.274531
     92          1           0       -9.764871   -4.494478   -1.567058
     93          1           0       -8.227327   -5.597152   -0.994866
     94          1           0       -3.603098   -3.181620   -0.268848
     95          1           0       -1.721497   -5.928286    2.588892
     96          1           0       -1.817452   -4.473215    3.420402
     97          1           0       -3.256249   -5.606078    3.614952
     98          1           0        2.398020   -2.104921   -1.806092
     99          1           0        2.412110   -0.426504   -2.465734
    100          1           0        4.331034   -1.189207   -0.006121
    101          1           0        5.341512    1.889760   -2.394830
    102          1           0        5.893555    0.402955   -3.433803
    103          1           0        4.156001    0.695701   -3.244635
    104          1           0        6.431682    1.205148   -0.241896
    105          1           0        5.961359   -0.517087    0.467717
    106          1           0        7.442745   -1.500597   -1.388925
    107          1           0        7.664427   -0.078428   -2.267806
    108          1           0        8.830012    0.668906    0.116197
    109          1           0        8.445935   -0.921088    0.567263
    110          1           0       10.118756    0.042742   -1.978312
    111          1           0        9.165354   -2.464477   -1.798972
    112          1           0       10.991554   -2.392672   -2.263282
    113          1           0       10.482017   -2.746468   -0.371275
    114          1           0       11.420129    0.971936   -0.053912
    115          1           0       11.434982   -0.645172    0.819770
    116          1           0       12.788636   -1.750682   -0.728485
    117          1           0       12.767428   -0.403552   -1.754852
    118          1           0       13.614291    0.814719    0.648407
    119          1           0       13.597941   -0.646982    1.082555
    120          1           0       15.396224    0.436429   -1.440562
    121          1           0       15.156631   -2.142475   -1.453237
    122          1           0       16.701161   -1.714050   -1.226829
    123          1           0       15.901845   -2.288052    0.338418
    124          1           0       15.928423    1.645870    0.924769
    125          1           0       16.253826    0.166300    1.539497
    126          1           0       18.160701   -0.352676   -0.104937
    127          1           0       17.800392    0.852559   -1.077143
    128          1           0       18.292866    2.701134    0.731032
    129          1           0       18.360898    1.180882    2.016967
    130          1           0       20.814199    0.563628    0.501944
    131          1           0       20.139727    3.104689   -1.059118
    132          1           0       21.873561    2.123671   -0.746141
    133          1           0       20.145264    1.508888   -1.636381
    134          1           0       20.659210    2.262187    2.723377
    135          1           0       22.011586    2.424855    1.458781
    136          1           0       20.577634    3.515428    1.737544
    137          1           0       -7.389833    1.782114    0.416709
    138          1           0       -7.609315   -0.290295   -0.253602
 ---------------------------------------------------------------------

 SCF Done:  E(RB3LYP) =  -2733.01048024     A.U. after   17 cycles

 Excitation energies and oscillator strengths:

 Excited State   1:      Singlet-A      1.9397 eV  639.21 nm  f=0.2607  <S**2>=0.000
     235 -> 238       -0.21980
     236 -> 237        0.66425
 This state for optimization and/or second-order correction.
 Total Energy, E(TD-HF/TD-KS) =  -2732.93919904
 Copying the excited state density for this state as the 1-particle RhoCI density.

 The electronic state is 1-A.
 Alpha  occ. eigenvalues --  -19.18517 -19.17659 -19.12902 -19.12389 -19.10618
 Alpha  occ. eigenvalues --  -14.37331 -14.36896 -14.32584 -14.30352 -10.32207
 Alpha  occ. eigenvalues --  -10.31188 -10.27995 -10.27201 -10.24398 -10.23962
 Alpha  occ. eigenvalues --  -10.23893 -10.23734 -10.23587 -10.23559 -10.23441
 Alpha  occ. eigenvalues --  -10.22911 -10.22887 -10.22638 -10.22382 -10.22209
 Alpha  occ. eigenvalues --  -10.21934 -10.21775 -10.21035 -10.20936 -10.20932
 Alpha  occ. eigenvalues --  -10.20922 -10.20725 -10.20682 -10.20661 -10.20623
 Alpha  occ. eigenvalues --  -10.20618 -10.20609 -10.20455 -10.20404 -10.20399
 Alpha  occ. eigenvalues --  -10.20099 -10.20069 -10.19947 -10.19759 -10.19693
 Alpha  occ. eigenvalues --  -10.19669 -10.19355 -10.19309 -10.19109 -10.19060
 Alpha  occ. eigenvalues --  -10.18913 -10.18870 -10.18825 -10.18624 -10.18597
 Alpha  occ. eigenvalues --  -10.18575 -10.18371 -10.18364 -10.18182 -10.18028
 Alpha  occ. eigenvalues --  -10.17923 -10.17866 -10.17763 -10.17235  -1.10142
 Alpha  occ. eigenvalues --   -1.09874  -1.02248  -1.00649  -0.98617  -0.97822
 Alpha  occ. eigenvalues --   -0.97224  -0.94251  -0.92836  -0.85767  -0.83581
 Alpha  occ. eigenvalues --   -0.82166  -0.81859  -0.81060  -0.80967  -0.80367
 Alpha  occ. eigenvalues --   -0.80131  -0.79118  -0.79082  -0.78581  -0.77166
 Alpha  occ. eigenvalues --   -0.76371  -0.75853  -0.75817  -0.74918  -0.74466
 Alpha  occ. eigenvalues --   -0.73518  -0.73212  -0.72477  -0.71316  -0.70031
 Alpha  occ. eigenvalues --   -0.69790  -0.69441  -0.68771  -0.68305  -0.67622
 Alpha  occ. eigenvalues --   -0.66855  -0.66380  -0.66229  -0.65991  -0.65279
 Alpha  occ. eigenvalues --   -0.64009  -0.63072  -0.62879  -0.61798  -0.61700
 Alpha  occ. eigenvalues --   -0.61366  -0.59379  -0.58570  -0.58201  -0.58040
 Alpha  occ. eigenvalues --   -0.57985  -0.56820  -0.56273  -0.56102  -0.55790
 Alpha  occ. eigenvalues --   -0.55319  -0.55308  -0.54791  -0.53981  -0.52991
 Alpha  occ. eigenvalues --   -0.52624  -0.52225  -0.51843  -0.51094  -0.50764
 Alpha  occ. eigenvalues --   -0.49820  -0.49358  -0.48725  -0.48501  -0.47904
 Alpha  occ. eigenvalues --   -0.47614  -0.47320  -0.47024  -0.46846  -0.46488
 Alpha  occ. eigenvalues --   -0.46336  -0.46217  -0.45938  -0.45695  -0.45453
 Alpha  occ. eigenvalues --   -0.45309  -0.45110  -0.45055  -0.44937  -0.44516
 Alpha  occ. eigenvalues --   -0.44350  -0.44178  -0.43931  -0.43782  -0.43601
 Alpha  occ. eigenvalues --   -0.43542  -0.43412  -0.43099  -0.42796  -0.42548
 Alpha  occ. eigenvalues --   -0.42403  -0.42071  -0.41946  -0.41732  -0.41511
 Alpha  occ. eigenvalues --   -0.41475  -0.41291  -0.40743  -0.40295  -0.40136
 Alpha  occ. eigenvalues --   -0.39975  -0.39834  -0.39711  -0.39509  -0.39378
 Alpha  occ. eigenvalues --   -0.39194  -0.38832  -0.38794  -0.38306  -0.38303
 Alpha  occ. eigenvalues --   -0.38198  -0.37858  -0.37806  -0.37556  -0.37456
 Alpha  occ. eigenvalues --   -0.37327  -0.36959  -0.36793  -0.36618  -0.36524
 Alpha  occ. eigenvalues --   -0.36408  -0.36110  -0.35943  -0.35840  -0.35672
 Alpha  occ. eigenvalues --   -0.35513  -0.35366  -0.35028  -0.34746  -0.34660
 Alpha  occ. eigenvalues --   -0.34547  -0.34512  -0.34108  -0.33871  -0.33319
 Alpha  occ. eigenvalues --   -0.33071  -0.33009  -0.32863  -0.32805  -0.32561
 Alpha  occ. eigenvalues --   -0.32308  -0.31933  -0.31856  -0.31678  -0.31319
 Alpha  occ. eigenvalues --   -0.31150  -0.30505  -0.30463  -0.29836  -0.29743
 Alpha  occ. eigenvalues --   -0.29386  -0.28895  -0.28404  -0.28233  -0.27600
 Alpha  occ. eigenvalues --   -0.27273  -0.27073  -0.26611  -0.26306  -0.25983
 Alpha  occ. eigenvalues --   -0.25502  -0.25211  -0.24082  -0.23483  -0.20458
 Alpha  occ. eigenvalues --   -0.18475
 Alpha virt. eigenvalues --   -0.10952  -0.06967  -0.04854  -0.02520  -0.00922
 Alpha virt. eigenvalues --   -0.00210   0.00135   0.00973   0.02052   0.02971
 Alpha virt. eigenvalues --    0.03636   0.03702   0.04287   0.04360   0.04541

 Mulliken charges:
               1
     1  C   -0.016711
     2  C   -0.040167
     3  C   -0.098470
     4  C   -0.050524
     5  N   -0.138997
     6  C   -0.111709
     7  C   -0.030470
     8  C    0.010881
     9  C    0.013406
    10  C   -0.032148
    11  C    0.253131
    12  C    0.000821
    13  C    0.171483
    14  O   -0.309479
    15  O   -0.276446
    16  N   -0.030979
    17  C    0.127613
    18  C   -0.111638
    19  C    0.061429
    20  C   -0.036868
    21  C   -0.038679
    22  C   -0.059770
    23  C    0.001315
    24  N   -0.257785
    25  C    0.151187
    26  C   -0.178591
    27  C   -0.125476
    28  C    0.040113
    29  C    0.230853
    30  C    0.083989
    31  C    0.032572
    32  N    0.009772
    33  C    0.077607
    34  C   -0.066382
    35  C   -0.079454
    36  C    0.128500
    37  C   -0.070204
    38  C    0.112049
    39  O   -0.178736
    40  C   -0.032332
    41  C    0.209834
    42  O   -0.225552
    43  O   -0.279458
    44  C    0.177811
    45  C    0.233771
    46  C   -0.023363
    47  C   -0.159931
    48  C    0.024339
    49  C    0.056206
    50  C   -0.012120
    51  C    0.043663
    52  C   -0.040758
    53  C   -0.018557
    54  C   -0.039695
    55  C    0.044614
    56  C    0.071536
    57  C   -0.008640
    58  C    0.000587
    59  C   -0.016466
    60  C    0.045603
    61  C   -0.026925
    62  C   -0.094062
    63  C   -0.066732
    64  C    0.068267
    65  H   -0.050156
    66  H   -0.005649
    67  H   -0.018004
    68  H   -0.007529
    69  H   -0.049353
    70  H    0.026253
    71  H    0.025037
    72  H    0.028416
    73  H   -0.088431
    74  H   -0.014529
    75  H    0.058554
    76  H    0.023404
    77  H    0.071328
    78  H    0.068800
    79  H    0.052861
    80  H    0.006907
    81  H   -0.047600
    82  H    0.040121
    83  H    0.045077
    84  H   -0.034263
    85  H   -0.036308
    86  H   -0.012692
    87  H   -0.023224
    88  H    0.013649
    89  H    0.036194
    90  H    0.005375
    91  H    0.065973
    92  H    0.053043
    93  H    0.079894
    94  H    0.088091
    95  H    0.007954
    96  H   -0.002303
    97  H    0.044310
    98  H    0.047016
    99  H    0.045168
   100  H   -0.027713
   101  H    0.038699
   102  H    0.035326
   103  H    0.004258
   104  H    0.025732
   105  H    0.010204
   106  H   -0.026486
   107  H    0.005878
   108  H   -0.008676
   109  H   -0.019425
   110  H    0.011140
   111  H    0.018813
   112  H    0.040030
   113  H    0.040946
   114  H    0.014924
   115  H   -0.007210
   116  H    0.009212
   117  H   -0.046674
   118  H   -0.038466
   119  H   -0.028782
   120  H    0.006674
   121  H   -0.013932
   122  H   -0.000778
   123  H    0.012415
   124  H   -0.002044
   125  H   -0.010149
   126  H   -0.002895
   127  H   -0.021880
   128  H    0.021441
   129  H    0.028762
   130  H    0.013491
   131  H    0.005621
   132  H    0.040014
   133  H    0.023576
   134  H   -0.009023
   135  H    0.013374
   136  H   -0.010804
   137  H    0.104636
   138  H    0.107710
 Sum of Mulliken charges =   0.00000

 Dipole moment (field-independent basis, Debye):
    X=              2.1774    Y=              4.4798    Z=             -0.9260  Tot=              5.0663
 Quadrupole moment (field-independent basis, Debye-Ang):
   XX=           -348.0927   YY=           -391.0954   ZZ=           -397.5196
   XY=            -20.4856   XZ=             11.1692   YZ=              0.8871

 Normal termination of Gaussian 09 at Wed Jul 31 07:44:24 2019.
