 Gaussian 09, Revision D.01,
 Gaussian 09:  ES64L-G09RevD.01 24-Apr-2013

 --------------------------
 # td=(NStates=1) B3LYP/SVP
 --------------------------

 --
 TD
 --
 Symbolic Z-matrix:
 Charge =  0 Multiplicity = 1

                         Standard orientation:
 ---------------------------------------------------------------------
 Center     Atomic      Atomic             Coordinates (Angstroms)
 Number     Number       Type             X           Y           Z
 ---------------------------------------------------------------------
      1          6           0       -5.132571   -1.924803    0.475150
      2          6           0       -4.665914    2.728924    1.358641
      3          6           0       -9.243652    3.298193   -0.267034
      4          6           0       -9.944224   -1.349669   -0.886875
      5          7           0       -5.181316    0.398973    0.840817
      6          6           0       -4.461640   -0.724864    0.784816
      7          6           0       -3.081928   -0.644387    1.134462
      8          6           0       -3.104764    0.813290    1.792087
      9          6           0       -4.351529    1.365142    1.234293
     10          6           0       -2.887222    0.746962    3.340034
     11          6           0       -2.014991   -0.793200    0.098044
     12          6           0       -0.647568   -0.665558    0.560794
     13          6           0        0.375163   -1.051014   -0.516209
     14          8           0        0.035669   -1.546758   -1.571903
     15          8           0        1.676769   -0.778261   -0.239956
     16          7           0       -6.941383    2.758827    0.382033
     17          6           0       -5.892611    3.385693    1.071989
     18          6           0       -6.132551    4.773509    1.027588
     19          6           0       -7.420231    4.988281    0.395241
     20          6           0       -7.908532    3.681521    0.159042
     21          6           0       -5.193572    5.811267    1.522310
     22          6           0       -8.152241    6.273007    0.357759
     23          6           0       -8.737709    6.715900   -0.716386
     24          7           0       -9.164730    0.865157   -0.504889
     25          6           0       -9.806970    2.066495   -0.492366
     26          6           0      -11.280102    1.984345   -0.774163
     27          6           0      -11.512592    0.637414   -1.077024
     28          6           0      -10.150619   -0.007283   -0.858830
     29          6           0      -12.208536    3.149619   -0.875118
     30          6           0      -12.835572   -0.060598   -1.443933
     31          6           0      -12.780168   -0.491368   -2.892396
     32          7           0       -7.608072   -1.164614   -0.134885
     33          6           0       -8.621595   -1.928692   -0.713517
     34          6           0       -8.229101   -3.304437   -0.629197
     35          6           0       -6.916887   -3.342951   -0.152114
     36          6           0       -6.526768   -2.029242    0.085018
     37          6           0       -9.177114   -4.477087   -1.044157
     38          6           0       -5.799765   -4.307060    0.059669
     39          8           0       -5.686511   -5.498008   -0.217154
     40          6           0       -4.544293   -3.403582    0.364575
     41          6           0       -3.830580   -3.813822    1.588792
     42          8           0       -4.064436   -3.437737    2.739887
     43          8           0       -3.088557   -4.902986    1.301635
     44          6           0       -2.467383   -5.517985    2.468740
     45          6           0        2.615732   -1.181164   -1.127678
     46          6           0        3.972961   -0.801515   -0.489748
     47          6           0        4.978567   -0.124089   -1.161215
     48          6           0        4.907699    0.457411   -2.603383
     49          6           0        6.276312    0.190660   -0.519402
     50          6           0        7.507999   -0.396346   -0.977369
     51          6           0        8.782391   -0.235975   -0.096602
     52          6           0       10.052933   -0.874377   -0.702381
     53          6           0       10.016891   -2.294755   -0.660195
     54          6           0       11.192447   -0.222782    0.031917
     55          6           0       12.668946   -0.778172   -0.383368
     56          6           0       13.842624    0.110176    0.179793
     57          6           0       15.193201   -0.226360   -0.267544
     58          6           0       15.505177   -1.764395   -0.069403
     59          6           0       16.251176    0.773839    0.424399
     60          6           0       17.773322    0.645204   -0.111435
     61          6           0       18.576455    1.730876    0.523693
     62          6           0       20.056836    1.800803   -0.031466
     63          6           0       20.139932    2.238713   -1.426943
     64          6           0       20.807228    2.673495    0.947890
     65          1           0       -4.033062    3.380227    1.946929
     66          1           0       -9.957914    4.218082   -0.332192
     67          1           0      -10.811134   -2.070029   -0.963101
     68          1           0       -3.040301   -1.370338    1.891916
     69          1           0       -2.213694    1.432824    1.358012
     70          1           0       -1.938044    0.429129    3.566559
     71          1           0       -2.985711    1.880896    3.756653
     72          1           0       -3.713585    0.221548    3.810330
     73          1           0       -2.054833   -1.827648   -0.473353
     74          1           0       -2.200916   -0.105832   -0.721128
     75          1           0       -0.383083    0.364022    1.044239
     76          1           0       -0.308614   -1.462573    1.423680
     77          1           0       -4.300203    5.840408    0.855666
     78          1           0       -5.673881    6.792543    1.450166
     79          1           0       -4.799028    5.670970    2.506692
     80          1           0       -7.977070    6.807581    1.283716
     81          1           0       -8.653463    6.019949   -1.729939
     82          1           0       -9.270470    7.713401   -0.839751
     83          1           0      -12.377453    3.900330   -0.003087
     84          1           0      -11.856786    3.958747   -1.703533
     85          1           0      -13.105323    2.767973   -1.097382
     86          1           0      -12.976724   -0.976903   -0.892021
     87          1           0      -13.658440    0.486481   -1.317195
     88          1           0      -12.369256    0.420083   -3.440175
     89          1           0      -11.961386   -1.301601   -3.011530
     90          1           0      -13.907299   -0.659439   -3.320786
     91          1           0      -10.140459   -4.624888   -0.568242
     92          1           0       -9.362950   -4.478134   -2.025183
     93          1           0       -8.588771   -5.446409   -0.809573
     94          1           0       -3.875404   -3.540089   -0.687381
     95          1           0       -2.074555   -6.529816    2.063554
     96          1           0       -1.610056   -4.765018    2.818101
     97          1           0       -3.360356   -5.733317    3.073377
     98          1           0        2.699348   -2.294808   -1.438907
     99          1           0        2.556994   -0.904347   -2.256526
    100          1           0        4.166209   -1.197872    0.345771
    101          1           0        5.348388    1.530821   -2.646544
    102          1           0        5.567691   -0.127004   -3.330265
    103          1           0        3.926171    0.213149   -3.133357
    104          1           0        6.539150    1.330323   -0.513477
    105          1           0        6.285070   -0.121588    0.534085
    106          1           0        7.270935   -1.527233   -1.057019
    107          1           0        7.671340   -0.037455   -1.969662
    108          1           0        9.064623    0.827829    0.129229
    109          1           0        8.414645   -0.525519    0.952460
    110          1           0       10.232040   -0.378479   -1.590772
    111          1           0        9.124020   -2.546432   -1.213897
    112          1           0       10.802993   -2.838641   -1.213927
    113          1           0       10.068898   -2.953749    0.175193
    114          1           0       11.171366    0.934651   -0.018203
    115          1           0       11.064499   -0.528966    1.217499
    116          1           0       12.935738   -1.924079   -0.167740
    117          1           0       12.628950   -0.755117   -1.557997
    118          1           0       13.691149    1.227737    0.056772
    119          1           0       14.066498   -0.125767    1.390109
    120          1           0       15.203657    0.062534   -1.386229
    121          1           0       14.967656   -2.398777   -0.788366
    122          1           0       16.703508   -2.014577   -0.178512
    123          1           0       15.264365   -2.087097    1.032843
    124          1           0       15.866157    1.770407    0.439306
    125          1           0       16.133866    0.396054    1.512281
    126          1           0       18.368238   -0.268571   -0.053392
    127          1           0       17.653860    1.013625   -1.393893
    128          1           0       18.049038    2.849340    0.392002
    129          1           0       18.499761    1.544142    1.640087
    130          1           0       20.484802    0.556853   -0.131706
    131          1           0       19.759023    3.163643   -1.354635
    132          1           0       21.381095    2.264096   -1.658877
    133          1           0       19.435910    1.616039   -2.279115
    134          1           0       20.921975    2.055203    1.912361
    135          1           0       21.984576    2.982837    0.815904
    136          1           0       20.581538    3.665811    1.346556
    137          1           0       -7.003199    1.718065    0.343356
    138          1           0       -7.722248   -0.097891   -0.114118
 ---------------------------------------------------------------------

 SCF Done:  E(RB3LYP) =  -2733.06677883     A.U. after   17 cycles

 Excitation energies and oscillator strengths:

 Excited State   1:      Singlet-A      2.0188 eV  614.14 nm  f=0.1903  <S**2>=0.000
     235 -> 237        0.11409
     235 -> 238       -0.28475
     236 -> 237        0.63390
 This state for optimization and/or second-order correction.
 Total Energy, E(TD-HF/TD-KS) =  -2732.99258871
 Copying the excited state density for this state as the 1-particle RhoCI density.

 The electronic state is 1-A.
 Alpha  occ. eigenvalues --  -19.19184 -19.17526 -19.13059 -19.12672 -19.12462
 Alpha  occ. eigenvalues --  -14.36469 -14.36143 -14.32278 -14.30781 -10.32416
 Alpha  occ. eigenvalues --  -10.31558 -10.28622 -10.25830 -10.25657 -10.23700
 Alpha  occ. eigenvalues --  -10.23336 -10.23010 -10.22981 -10.22781 -10.22670
 Alpha  occ. eigenvalues --  -10.22333 -10.22280 -10.21759 -10.21607 -10.21361
 Alpha  occ. eigenvalues --  -10.21145 -10.21072 -10.20871 -10.20675 -10.20645
 Alpha  occ. eigenvalues --  -10.20602 -10.20540 -10.20537 -10.20439 -10.20350
 Alpha  occ. eigenvalues --  -10.20305 -10.20168 -10.20036 -10.19981 -10.19974
 Alpha  occ. eigenvalues --  -10.19920 -10.19911 -10.19880 -10.19876 -10.19763
 Alpha  occ. eigenvalues --  -10.19696 -10.19627 -10.19545 -10.19542 -10.19495
 Alpha  occ. eigenvalues --  -10.19396 -10.19381 -10.19369 -10.19206 -10.19027
 Alpha  occ. eigenvalues --  -10.18966 -10.18946 -10.18674 -10.18652 -10.18418
 Alpha  occ. eigenvalues --  -10.18189 -10.18146 -10.18025 -10.16880  -1.11562
 Alpha  occ. eigenvalues --   -1.08943  -1.02138  -1.01936  -0.99611  -0.97741
 Alpha  occ. eigenvalues --   -0.96786  -0.96164  -0.93528  -0.83889  -0.83299
 Alpha  occ. eigenvalues --   -0.82553  -0.81739  -0.81583  -0.81256  -0.80522
 Alpha  occ. eigenvalues --   -0.79963  -0.79925  -0.79143  -0.78579  -0.77989
 Alpha  occ. eigenvalues --   -0.77106  -0.76249  -0.75615  -0.74963  -0.74565
 Alpha  occ. eigenvalues --   -0.73627  -0.72826  -0.72515  -0.71076  -0.70947
 Alpha  occ. eigenvalues --   -0.70146  -0.68873  -0.68537  -0.68251  -0.67577
 Alpha  occ. eigenvalues --   -0.67508  -0.67232  -0.66192  -0.65750  -0.65287
 Alpha  occ. eigenvalues --   -0.63617  -0.62773  -0.62090  -0.61336  -0.60811
 Alpha  occ. eigenvalues --   -0.60747  -0.58743  -0.57863  -0.57538  -0.57523
 Alpha  occ. eigenvalues --   -0.56989  -0.56514  -0.55407  -0.55386  -0.54821
 Alpha  occ. eigenvalues --   -0.54029  -0.54013  -0.53569  -0.53392  -0.53211
 Alpha  occ. eigenvalues --   -0.52802  -0.52453  -0.51768  -0.50528  -0.50135
 Alpha  occ. eigenvalues --   -0.49790  -0.49521  -0.49030  -0.48844  -0.48451
 Alpha  occ. eigenvalues --   -0.48221  -0.48134  -0.47639  -0.47425  -0.47205
 Alpha  occ. eigenvalues --   -0.47104  -0.46609  -0.46227  -0.45822  -0.45702
 Alpha  occ. eigenvalues --   -0.45378  -0.45249  -0.45147  -0.44606  -0.44465
 Alpha  occ. eigenvalues --   -0.44279  -0.44263  -0.44130  -0.43925  -0.43666
 Alpha  occ. eigenvalues --   -0.43302  -0.43005  -0.42777  -0.42639  -0.42568
 Alpha  occ. eigenvalues --   -0.42217  -0.41759  -0.41622  -0.41593  -0.41489
 Alpha  occ. eigenvalues --   -0.41324  -0.41244  -0.40807  -0.40595  -0.40310
 Alpha  occ. eigenvalues --   -0.40082  -0.40018  -0.39708  -0.39224  -0.39124
 Alpha  occ. eigenvalues --   -0.39007  -0.38662  -0.38489  -0.38367  -0.38254
 Alpha  occ. eigenvalues --   -0.37998  -0.37811  -0.37734  -0.37424  -0.37247
 Alpha  occ. eigenvalues --   -0.37111  -0.37077  -0.36972  -0.36876  -0.36594
 Alpha  occ. eigenvalues --   -0.36539  -0.36213  -0.36146  -0.36000  -0.35779
 Alpha  occ. eigenvalues --   -0.35319  -0.35083  -0.34909  -0.34711  -0.34671
 Alpha  occ. eigenvalues --   -0.34544  -0.34422  -0.34378  -0.34029  -0.33911
 Alpha  occ. eigenvalues --   -0.33634  -0.33357  -0.33089  -0.32936  -0.32439
 Alpha  occ. eigenvalues --   -0.31973  -0.31669  -0.31272  -0.30972  -0.30880
 Alpha  occ. eigenvalues --   -0.30488  -0.30390  -0.29919  -0.29832  -0.29790
 Alpha  occ. eigenvalues --   -0.29474  -0.28996  -0.28699  -0.28310  -0.28155
 Alpha  occ. eigenvalues --   -0.28076  -0.28009  -0.27640  -0.26258  -0.25695
 Alpha  occ. eigenvalues --   -0.25299  -0.24357  -0.24280  -0.23344  -0.19240
 Alpha  occ. eigenvalues --   -0.19070
 Alpha virt. eigenvalues --   -0.10712  -0.06796  -0.04709  -0.01924  -0.01023
 Alpha virt. eigenvalues --   -0.00790  -0.00505  -0.00099   0.01680   0.02594
 Alpha virt. eigenvalues --    0.03213   0.03999   0.04022   0.04277   0.04426

 Mulliken charges:
               1
     1  C   -0.038723
     2  C   -0.066234
     3  C   -0.136993
     4  C   -0.130814
     5  N   -0.135459
     6  C   -0.077093
     7  C    0.026391
     8  C   -0.121487
     9  C    0.039988
    10  C    0.104796
    11  C    0.091892
    12  C   -0.033511
    13  C    0.175742
    14  O   -0.234847
    15  O   -0.250933
    16  N   -0.091501
    17  C    0.079317
    18  C   -0.160119
    19  C   -0.026224
    20  C    0.080569
    21  C    0.123701
    22  C   -0.006243
    23  C   -0.074166
    24  N   -0.252953
    25  C    0.122125
    26  C   -0.133170
    27  C   -0.114197
    28  C    0.114746
    29  C    0.087772
    30  C    0.195193
    31  C   -0.086263
    32  N   -0.117921
    33  C    0.076324
    34  C   -0.166068
    35  C   -0.020397
    36  C    0.138319
    37  C    0.119626
    38  C    0.109011
    39  O   -0.172888
    40  C   -0.089140
    41  C    0.220516
    42  O   -0.257976
    43  O   -0.306134
    44  C    0.142481
    45  C    0.203940
    46  C    0.014433
    47  C   -0.094364
    48  C    0.019514
    49  C    0.063187
    50  C    0.019641
    51  C   -0.016546
    52  C    0.047174
    53  C    0.110901
    54  C   -0.065147
    55  C   -0.016327
    56  C   -0.020610
    57  C   -0.063861
    58  C   -0.038319
    59  C    0.027437
    60  C   -0.003419
    61  C   -0.044476
    62  C   -0.089347
    63  C    0.013146
    64  C   -0.019281
    65  H   -0.029092
    66  H    0.002266
    67  H    0.008427
    68  H   -0.012456
    69  H    0.003216
    70  H    0.001448
    71  H    0.011291
    72  H    0.032355
    73  H    0.036755
    74  H    0.001300
    75  H    0.049947
    76  H    0.047084
    77  H    0.026003
    78  H    0.004538
    79  H    0.019823
    80  H    0.011151
    81  H    0.062454
    82  H    0.042105
    83  H    0.032523
    84  H    0.036308
    85  H   -0.028204
    86  H   -0.003417
    87  H   -0.047589
    88  H    0.020622
    89  H    0.035100
    90  H    0.034164
    91  H    0.020639
    92  H   -0.008547
    93  H    0.037277
    94  H    0.109068
    95  H    0.050109
    96  H    0.061031
    97  H    0.051183
    98  H    0.019642
    99  H    0.012063
   100  H   -0.091876
   101  H    0.038858
   102  H    0.027298
   103  H    0.015322
   104  H    0.002849
   105  H   -0.025406
   106  H    0.001826
   107  H   -0.025300
   108  H   -0.018995
   109  H   -0.004926
   110  H   -0.035224
   111  H   -0.016385
   112  H   -0.014847
   113  H   -0.003918
   114  H    0.017930
   115  H    0.002358
   116  H    0.031142
   117  H    0.001119
   118  H    0.004809
   119  H   -0.000137
   120  H   -0.009506
   121  H    0.033099
   122  H    0.025339
   123  H    0.021051
   124  H   -0.008208
   125  H   -0.002649
   126  H    0.018509
   127  H    0.010462
   128  H    0.012960
   129  H    0.009164
   130  H    0.011331
   131  H   -0.024529
   132  H    0.038474
   133  H    0.044532
   134  H    0.014230
   135  H    0.001222
   136  H    0.014816
   137  H    0.158668
   138  H    0.179226
 Sum of Mulliken charges =   0.00000

 Dipole moment (field-independent basis, Debye):
    X=              1.2309    Y=              4.4546    Z=              1.0657  Tot=              4.7428
 Quadrupole moment (field-independent basis, Debye-Ang):
   XX=           -359.4808   YY=           -379.6712   ZZ=           -399.1852
   XY=            -28.4609   XZ=              8.7676   YZ=             -0.4560

 Normal termination of Gaussian 09 at Thu Aug  1 16:47:24 2019.
