 Gaussian 09, Revision D.01,
 Gaussian 09:  ES64L-G09RevD.01 24-Apr-2013

 --------------------------
 # td=(NStates=1) B3LYP/SVP
 --------------------------

 --
 TD
 --
 Symbolic Z-matrix:
 Charge =  0 Multiplicity = 1

                         Standard orientation:
 ---------------------------------------------------------------------
 Center     Atomic      Atomic             Coordinates (Angstroms)
 Number     Number       Type             X           Y           Z
 ---------------------------------------------------------------------
      1          6           0       -5.131270   -1.979613    0.366337
      2          6           0       -4.830606    2.695973    1.532161
      3          6           0       -9.376945    3.387499   -0.077303
      4          6           0       -9.875846   -1.420825   -0.974397
      5          7           0       -5.180366    0.360732    0.829552
      6          6           0       -4.468427   -0.845911    0.867988
      7          6           0       -2.973220   -0.594120    1.263646
      8          6           0       -3.033441    0.773053    1.810732
      9          6           0       -4.339133    1.431135    1.362314
     10          6           0       -2.988547    0.992449    3.409323
     11          6           0       -2.139617   -0.688046    0.056325
     12          6           0       -0.582289   -0.762497    0.475932
     13          6           0        0.326796   -1.122615   -0.594533
     14          8           0        0.025074   -1.571355   -1.678992
     15          8           0        1.664015   -0.813315   -0.222532
     16          7           0       -7.113727    2.743014    0.597685
     17          6           0       -6.001745    3.443874    1.146114
     18          6           0       -6.275814    4.791951    1.116051
     19          6           0       -7.507281    5.035011    0.518013
     20          6           0       -8.056045    3.733366    0.297829
     21          6           0       -5.168237    5.801643    1.473994
     22          6           0       -8.087530    6.413662    0.315852
     23          6           0       -9.049514    6.778474   -0.584014
     24          7           0       -9.144312    1.042560   -0.434867
     25          6           0       -9.807239    2.124007   -0.446874
     26          6           0      -11.192048    1.941275   -1.081751
     27          6           0      -11.347694    0.547865   -1.183403
     28          6           0      -10.099919   -0.055768   -0.858274
     29          6           0      -12.316064    2.919785   -1.190473
     30          6           0      -12.469497   -0.187470   -1.891126
     31          6           0      -12.193787   -0.537860   -3.435455
     32          7           0       -7.510337   -1.249363   -0.194162
     33          6           0       -8.667969   -1.970620   -0.487751
     34          6           0       -8.298636   -3.443483   -0.533155
     35          6           0       -6.905656   -3.495034   -0.207954
     36          6           0       -6.451538   -2.144315    0.064077
     37          6           0       -9.108743   -4.506011   -0.960077
     38          6           0       -5.803016   -4.369959    0.074740
     39          8           0       -5.675226   -5.535419   -0.070957
     40          6           0       -4.495258   -3.393398    0.384776
     41          6           0       -3.972580   -3.945147    1.704379
     42          8           0       -4.162840   -3.512178    2.835059
     43          8           0       -3.092245   -4.939739    1.559584
     44          6           0       -2.644126   -5.631484    2.648929
     45          6           0        2.716829   -1.086460   -1.051325
     46          6           0        4.100778   -0.786091   -0.480141
     47          6           0        4.908764    0.097063   -0.916173
     48          6           0        4.662607    1.046224   -2.044592
     49          6           0        6.302830    0.286079   -0.196600
     50          6           0        7.521214   -0.143903   -0.918491
     51          6           0        8.793936   -0.170233   -0.080697
     52          6           0       10.043885   -0.611423   -0.819574
     53          6           0       10.075233   -2.101489   -1.200773
     54          6           0       11.292080   -0.100013   -0.042377
     55          6           0       12.630015   -0.535301   -0.750941
     56          6           0       13.815808    0.040711    0.118639
     57          6           0       15.303399   -0.303604   -0.491926
     58          6           0       15.547320   -1.774632   -0.765730
     59          6           0       16.282743    0.409004    0.369965
     60          6           0       17.645163    0.734312   -0.203400
     61          6           0       18.616010    1.426502    0.725636
     62          6           0       20.124891    1.669517    0.144054
     63          6           0       20.030782    2.495399   -1.188714
     64          6           0       21.017554    2.178782    1.291868
     65          1           0       -3.747709    3.296966    2.031505
     66          1           0       -9.993280    4.293575   -0.287665
     67          1           0      -10.658304   -2.115524   -1.387643
     68          1           0       -2.726234   -1.300952    2.063552
     69          1           0       -2.299584    1.390097    1.433074
     70          1           0       -2.034504    0.554427    3.842777
     71          1           0       -3.210887    1.996014    3.795086
     72          1           0       -3.804190    0.301028    3.809537
     73          1           0       -2.209457   -1.658597   -0.458422
     74          1           0       -2.134941    0.268955   -0.819116
     75          1           0       -0.166112    0.249739    0.986167
     76          1           0       -0.396093   -1.508869    1.376703
     77          1           0       -4.221250    5.676734    0.674330
     78          1           0       -5.604389    6.662732    1.542398
     79          1           0       -4.918462    5.345892    2.480059
     80          1           0       -7.479078    7.108952    0.873198
     81          1           0       -9.614562    6.347052   -1.410651
     82          1           0       -9.387773    7.741551   -0.392717
     83          1           0      -12.430688    3.643312   -0.402439
     84          1           0      -12.125859    3.574211   -1.844998
     85          1           0      -13.157280    2.405607   -1.442817
     86          1           0      -12.739451   -1.084594   -1.248855
     87          1           0      -13.435153    0.333850   -1.895298
     88          1           0      -12.081536    0.391453   -3.899704
     89          1           0      -11.104124   -0.979895   -3.382130
     90          1           0      -12.903017   -1.364414   -3.887971
     91          1           0       -9.953770   -4.545190   -0.334633
     92          1           0       -9.382447   -4.216024   -2.082782
     93          1           0       -8.642004   -5.505437   -0.895603
     94          1           0       -3.884738   -3.767042   -0.446807
     95          1           0       -1.928158   -6.405756    2.299564
     96          1           0       -1.961314   -5.021071    3.267920
     97          1           0       -3.487194   -6.216421    3.154432
     98          1           0        2.604047   -2.151890   -1.546353
     99          1           0        2.369612   -0.575393   -2.095966
    100          1           0        4.313466   -1.521880    0.377183
    101          1           0        4.907262    2.114477   -1.926283
    102          1           0        5.475282    0.727801   -2.717025
    103          1           0        3.697520    0.921571   -2.696661
    104          1           0        6.358434    1.225407    0.165544
    105          1           0        6.234820   -0.503045    0.684063
    106          1           0        7.086441   -1.236510   -1.527908
    107          1           0        7.531978    0.477565   -1.860186
    108          1           0        9.116391    0.820644    0.207883
    109          1           0        8.413550   -0.698093    0.945101
    110          1           0        9.873160   -0.017493   -1.954135
    111          1           0        9.087772   -2.319057   -1.849201
    112          1           0       10.829514   -2.554350   -2.080821
    113          1           0        9.959729   -2.688676   -0.233068
    114          1           0       11.164441    1.084631    0.021484
    115          1           0       11.188150   -0.512194    0.912532
    116          1           0       12.690173   -1.679013   -0.919631
    117          1           0       12.788595   -0.227378   -1.762595
    118          1           0       13.618838    1.124987    0.150735
    119          1           0       13.836307   -0.338184    1.174571
    120          1           0       15.288452    0.337054   -1.493760
    121          1           0       14.682234   -2.246195   -1.485804
    122          1           0       16.510928   -2.058773   -1.082980
    123          1           0       15.339794   -2.359992    0.205787
    124          1           0       15.647831    1.450625    0.629838
    125          1           0       16.377163   -0.269900    1.366305
    126          1           0       18.108284   -0.299668   -0.512808
    127          1           0       17.476246    1.244992   -1.110281
    128          1           0       18.254025    2.558822    0.814943
    129          1           0       18.606439    0.934746    1.638590
    130          1           0       20.661795    0.607200   -0.207217
    131          1           0       19.736497    3.579519   -1.323497
    132          1           0       21.205173    2.621535   -1.368806
    133          1           0       19.427994    1.955577   -1.912638
    134          1           0       21.121497    1.246839    2.129765
    135          1           0       21.964036    2.313169    1.149677
    136          1           0       20.742263    3.300049    1.805354
    137          1           0       -7.240917    1.779105    0.195132
    138          1           0       -7.256888   -0.287273   -0.271736
 ---------------------------------------------------------------------

 SCF Done:  E(RB3LYP) =  -2732.98867995     A.U. after   17 cycles

 Excitation energies and oscillator strengths:

 Excited State   1:      Singlet-A      1.8772 eV  660.48 nm  f=0.2133  <S**2>=0.000
     235 -> 237       -0.16174
     235 -> 238        0.23463
     236 -> 237        0.63853
     236 -> 238        0.11121
 This state for optimization and/or second-order correction.
 Total Energy, E(TD-HF/TD-KS) =  -2732.91969445
 Copying the excited state density for this state as the 1-particle RhoCI density.

 The electronic state is 1-A.
 Alpha  occ. eigenvalues --  -19.17024 -19.16568 -19.13532 -19.12648 -19.11164
 Alpha  occ. eigenvalues --  -14.37372 -14.36314 -14.32386 -14.30223 -10.31995
 Alpha  occ. eigenvalues --  -10.31279 -10.27936 -10.24914 -10.24782 -10.24351
 Alpha  occ. eigenvalues --  -10.24195 -10.23582 -10.23503 -10.23334 -10.23229
 Alpha  occ. eigenvalues --  -10.22545 -10.22244 -10.22114 -10.21976 -10.21958
 Alpha  occ. eigenvalues --  -10.21823 -10.21647 -10.21515 -10.21132 -10.21060
 Alpha  occ. eigenvalues --  -10.20906 -10.20889 -10.20725 -10.20504 -10.20409
 Alpha  occ. eigenvalues --  -10.20293 -10.20203 -10.20199 -10.20109 -10.20088
 Alpha  occ. eigenvalues --  -10.20012 -10.19959 -10.19849 -10.19833 -10.19825
 Alpha  occ. eigenvalues --  -10.19808 -10.19804 -10.19650 -10.19590 -10.19538
 Alpha  occ. eigenvalues --  -10.19534 -10.19501 -10.19336 -10.19139 -10.19081
 Alpha  occ. eigenvalues --  -10.19070 -10.18793 -10.18736 -10.18664 -10.18609
 Alpha  occ. eigenvalues --  -10.18451 -10.18428 -10.18130 -10.16504  -1.10233
 Alpha  occ. eigenvalues --   -1.08305  -1.04897  -1.01327  -0.99219  -0.96890
 Alpha  occ. eigenvalues --   -0.96610  -0.92681  -0.91603  -0.84517  -0.82818
 Alpha  occ. eigenvalues --   -0.81905  -0.81607  -0.81517  -0.81240  -0.80627
 Alpha  occ. eigenvalues --   -0.80414  -0.79357  -0.78438  -0.78370  -0.77545
 Alpha  occ. eigenvalues --   -0.76772  -0.76008  -0.75709  -0.74821  -0.74253
 Alpha  occ. eigenvalues --   -0.74076  -0.72744  -0.72376  -0.71802  -0.71198
 Alpha  occ. eigenvalues --   -0.70224  -0.69787  -0.68732  -0.67964  -0.67447
 Alpha  occ. eigenvalues --   -0.67344  -0.66718  -0.66259  -0.66069  -0.65367
 Alpha  occ. eigenvalues --   -0.63791  -0.63148  -0.61951  -0.61771  -0.61430
 Alpha  occ. eigenvalues --   -0.60988  -0.58878  -0.58385  -0.57830  -0.56952
 Alpha  occ. eigenvalues --   -0.56815  -0.55759  -0.55124  -0.54930  -0.54774
 Alpha  occ. eigenvalues --   -0.54313  -0.54057  -0.53893  -0.53139  -0.52682
 Alpha  occ. eigenvalues --   -0.52530  -0.51824  -0.51317  -0.50772  -0.50272
 Alpha  occ. eigenvalues --   -0.49797  -0.49365  -0.48658  -0.48447  -0.47950
 Alpha  occ. eigenvalues --   -0.47925  -0.47626  -0.47288  -0.47050  -0.46822
 Alpha  occ. eigenvalues --   -0.46675  -0.46212  -0.45944  -0.45751  -0.45748
 Alpha  occ. eigenvalues --   -0.45451  -0.45334  -0.44896  -0.44759  -0.44640
 Alpha  occ. eigenvalues --   -0.44301  -0.44155  -0.44039  -0.43865  -0.43694
 Alpha  occ. eigenvalues --   -0.43580  -0.43350  -0.43205  -0.42926  -0.42686
 Alpha  occ. eigenvalues --   -0.42477  -0.42164  -0.41702  -0.41499  -0.41367
 Alpha  occ. eigenvalues --   -0.41278  -0.41142  -0.40830  -0.40578  -0.40247
 Alpha  occ. eigenvalues --   -0.40089  -0.39983  -0.39952  -0.39721  -0.39583
 Alpha  occ. eigenvalues --   -0.39425  -0.39128  -0.38781  -0.38542  -0.38326
 Alpha  occ. eigenvalues --   -0.38189  -0.37911  -0.37867  -0.37690  -0.37427
 Alpha  occ. eigenvalues --   -0.37234  -0.37030  -0.36788  -0.36746  -0.36535
 Alpha  occ. eigenvalues --   -0.36432  -0.36149  -0.35684  -0.35632  -0.35625
 Alpha  occ. eigenvalues --   -0.35150  -0.35064  -0.34907  -0.34536  -0.34487
 Alpha  occ. eigenvalues --   -0.34061  -0.33938  -0.33808  -0.33665  -0.33481
 Alpha  occ. eigenvalues --   -0.33352  -0.33087  -0.32938  -0.32808  -0.32533
 Alpha  occ. eigenvalues --   -0.32200  -0.32057  -0.31816  -0.31191  -0.30731
 Alpha  occ. eigenvalues --   -0.30606  -0.30363  -0.30048  -0.29856  -0.29716
 Alpha  occ. eigenvalues --   -0.29321  -0.28723  -0.27893  -0.27811  -0.27518
 Alpha  occ. eigenvalues --   -0.27482  -0.26775  -0.26593  -0.25994  -0.25730
 Alpha  occ. eigenvalues --   -0.25676  -0.24752  -0.24038  -0.22528  -0.20276
 Alpha  occ. eigenvalues --   -0.18466
 Alpha virt. eigenvalues --   -0.10903  -0.07992  -0.04664  -0.02544  -0.01301
 Alpha virt. eigenvalues --   -0.00249   0.00204   0.01451   0.01774   0.02892
 Alpha virt. eigenvalues --    0.03306   0.03791   0.03926   0.04318   0.04440

 Mulliken charges:
               1
     1  C    0.044642
     2  C   -0.069366
     3  C   -0.069057
     4  C   -0.141613
     5  N   -0.280292
     6  C   -0.049695
     7  C    0.084898
     8  C    0.039613
     9  C   -0.071911
    10  C    0.018227
    11  C    0.025921
    12  C   -0.083687
    13  C    0.216798
    14  O   -0.215840
    15  O   -0.326567
    16  N   -0.131464
    17  C    0.149798
    18  C   -0.178579
    19  C    0.012003
    20  C    0.026920
    21  C    0.144958
    22  C   -0.002741
    23  C   -0.004135
    24  N   -0.249271
    25  C    0.082335
    26  C   -0.196596
    27  C   -0.098587
    28  C    0.119886
    29  C    0.303673
    30  C    0.022362
    31  C   -0.001298
    32  N   -0.061113
    33  C    0.138804
    34  C   -0.162921
    35  C    0.050025
    36  C    0.066702
    37  C    0.092806
    38  C   -0.004530
    39  O   -0.135647
    40  C   -0.089220
    41  C    0.200390
    42  O   -0.249561
    43  O   -0.264331
    44  C    0.173029
    45  C    0.152262
    46  C   -0.065862
    47  C   -0.099860
    48  C    0.078475
    49  C    0.089159
    50  C   -0.075874
    51  C    0.084047
    52  C   -0.143755
    53  C   -0.036156
    54  C    0.052813
    55  C    0.027576
    56  C   -0.004980
    57  C   -0.088872
    58  C    0.028367
    59  C   -0.047446
    60  C    0.058360
    61  C    0.064491
    62  C   -0.121905
    63  C   -0.028121
    64  C    0.034325
    65  H    0.017833
    66  H   -0.029040
    67  H    0.018670
    68  H    0.009246
    69  H   -0.031208
    70  H    0.021174
    71  H    0.027742
    72  H    0.032495
    73  H    0.033621
    74  H    0.060386
    75  H    0.058603
    76  H    0.056842
    77  H    0.069266
    78  H   -0.047011
    79  H    0.040414
    80  H   -0.001358
    81  H    0.038625
    82  H    0.007584
    83  H   -0.002983
    84  H   -0.072573
    85  H   -0.026317
    86  H    0.004848
    87  H   -0.003088
    88  H    0.008523
    89  H    0.015135
    90  H    0.044640
    91  H    0.019501
    92  H    0.058608
    93  H    0.040529
    94  H    0.056784
    95  H    0.012657
    96  H    0.017505
    97  H    0.041614
    98  H    0.014301
    99  H   -0.002824
   100  H    0.011589
   101  H    0.018808
   102  H    0.004950
   103  H    0.032171
   104  H   -0.022471
   105  H    0.002119
   106  H    0.017156
   107  H   -0.001736
   108  H   -0.013277
   109  H    0.013862
   110  H    0.006810
   111  H    0.015413
   112  H    0.043802
   113  H    0.020366
   114  H    0.020339
   115  H   -0.010496
   116  H    0.015069
   117  H   -0.015882
   118  H    0.001890
   119  H    0.001357
   120  H   -0.007905
   121  H    0.026689
   122  H    0.009821
   123  H    0.005876
   124  H    0.007396
   125  H    0.001707
   126  H   -0.006313
   127  H   -0.022408
   128  H    0.008024
   129  H   -0.021240
   130  H    0.017422
   131  H    0.018620
   132  H    0.017985
   133  H    0.028851
   134  H    0.018894
   135  H   -0.040710
   136  H    0.024623
   137  H    0.171247
   138  H    0.136023
 Sum of Mulliken charges =   0.00000

 Dipole moment (field-independent basis, Debye):
    X=              0.9546    Y=              4.2833    Z=             -0.7687  Tot=              4.4552
 Quadrupole moment (field-independent basis, Debye-Ang):
   XX=           -337.8416   YY=           -377.6157   ZZ=           -400.6700
   XY=            -18.4799   XZ=             17.3345   YZ=             -2.6636

 Normal termination of Gaussian 09 at Wed Jul 24 09:12:11 2019.
