 Gaussian 09, Revision D.01,
 Gaussian 09:  ES64L-G09RevD.01 24-Apr-2013

 --------------------------
 # td=(NStates=1) B3LYP/SVP
 --------------------------

 --
 TD
 --
 Symbolic Z-matrix:
 Charge =  0 Multiplicity = 1

                         Standard orientation:
 ---------------------------------------------------------------------
 Center     Atomic      Atomic             Coordinates (Angstroms)
 Number     Number       Type             X           Y           Z
 ---------------------------------------------------------------------
      1          6           0       -5.258126   -1.974376    0.527086
      2          6           0       -4.573883    2.659992    1.585583
      3          6           0       -9.066712    3.501530   -0.176524
      4          6           0       -9.867833   -1.163142   -1.005605
      5          7           0       -5.062959    0.436184    0.825450
      6          6           0       -4.478645   -0.823153    0.898944
      7          6           0       -3.045925   -0.761550    1.311148
      8          6           0       -2.900410    0.603781    1.848537
      9          6           0       -4.311260    1.315989    1.413787
     10          6           0       -2.872494    0.768085    3.357025
     11          6           0       -2.139821   -1.099120    0.219757
     12          6           0       -0.544708   -1.040557    0.655984
     13          6           0        0.408512   -1.320954   -0.503951
     14          8           0        0.082262   -1.798995   -1.517320
     15          8           0        1.725276   -0.995920   -0.251234
     16          7           0       -6.857165    2.799534    0.485453
     17          6           0       -5.700948    3.303913    1.059419
     18          6           0       -5.915744    4.715378    1.071962
     19          6           0       -7.267494    4.972204    0.658565
     20          6           0       -7.851289    3.643572    0.304551
     21          6           0       -4.998108    5.667756    1.755905
     22          6           0       -7.788511    6.421782    0.440580
     23          6           0       -8.690443    6.803733   -0.481100
     24          7           0       -9.130641    1.001800   -0.570947
     25          6           0       -9.735536    2.348204   -0.635186
     26          6           0      -11.127776    2.259725   -1.045879
     27          6           0      -11.379477    0.919507   -1.187218
     28          6           0      -10.169196    0.199349   -0.855380
     29          6           0      -12.125693    3.334075   -1.034781
     30          6           0      -12.651693    0.153628   -1.742667
     31          6           0      -12.609892   -0.144975   -3.296418
     32          7           0       -7.516104   -1.139055   -0.283754
     33          6           0       -8.627711   -1.744023   -0.709712
     34          6           0       -8.411888   -3.260253   -0.883580
     35          6           0       -7.071785   -3.293904   -0.380083
     36          6           0       -6.511877   -1.956148    0.050824
     37          6           0       -9.222597   -4.315369   -1.333466
     38          6           0       -6.024530   -4.242316   -0.050698
     39          8           0       -6.032063   -5.504960   -0.181084
     40          6           0       -4.779191   -3.447451    0.451300
     41          6           0       -4.106606   -4.012386    1.721166
     42          8           0       -4.404514   -3.469362    2.883373
     43          8           0       -3.450602   -5.067733    1.561068
     44          6           0       -2.947107   -5.819183    2.683017
     45          6           0        2.691326   -1.159121   -1.242083
     46          6           0        3.987953   -0.960293   -0.674219
     47          6           0        4.958786   -0.145464   -1.045320
     48          6           0        4.839977    0.740435   -2.209592
     49          6           0        6.251037   -0.215861   -0.176122
     50          6           0        7.463344   -0.588503   -1.043364
     51          6           0        8.754212   -0.480509   -0.250737
     52          6           0       10.099657   -0.843472   -0.812482
     53          6           0       10.179005   -2.295363   -1.100171
     54          6           0       11.293653   -0.346695    0.074858
     55          6           0       12.641534   -0.573991   -0.493795
     56          6           0       13.883376   -0.023808    0.285646
     57          6           0       15.194369   -0.090838   -0.300127
     58          6           0       15.582759   -1.692980   -0.541833
     59          6           0       16.188299    0.698762    0.345285
     60          6           0       17.653041    0.797327   -0.290075
     61          6           0       18.566684    1.793239    0.519842
     62          6           0       19.994139    1.822823    0.018818
     63          6           0       20.090044    2.686993   -1.243809
     64          6           0       20.920401    2.453791    1.076317
     65          1           0       -3.877596    3.228760    1.775514
     66          1           0       -9.555863    4.468500   -0.223814
     67          1           0      -10.778216   -1.761819   -1.415801
     68          1           0       -2.951680   -1.627094    2.026161
     69          1           0       -2.007383    1.021006    1.488112
     70          1           0       -2.024855    0.346743    3.696437
     71          1           0       -3.102264    1.735000    3.644370
     72          1           0       -3.771365    0.096465    3.813025
     73          1           0       -2.320873   -2.214324   -0.094198
     74          1           0       -2.143118   -0.413007   -0.683632
     75          1           0       -0.347231   -0.177119    1.049237
     76          1           0       -0.200743   -1.738371    1.268729
     77          1           0       -3.885085    5.676551    1.435531
     78          1           0       -5.364145    6.886793    1.571119
     79          1           0       -4.915419    5.688177    2.998751
     80          1           0       -7.208308    7.145501    1.148852
     81          1           0       -9.220969    6.172020   -1.151474
     82          1           0       -9.163618    7.885009   -0.559650
     83          1           0      -12.194318    3.919919   -0.105869
     84          1           0      -11.818742    4.185377   -1.744632
     85          1           0      -12.981553    2.833345   -1.460819
     86          1           0      -12.584347   -0.611487   -1.117111
     87          1           0      -13.529593    0.710493   -1.655772
     88          1           0      -12.765023    0.791732   -4.041168
     89          1           0      -11.569691   -0.677695   -3.689224
     90          1           0      -13.642572   -0.795597   -3.374288
     91          1           0      -10.572874   -4.074556   -1.049506
     92          1           0       -9.349350   -4.569702   -2.562454
     93          1           0       -8.672256   -5.248410   -0.551606
     94          1           0       -4.015763   -3.579293   -0.353008
     95          1           0       -2.339386   -6.520913    2.264230
     96          1           0       -2.503773   -5.166472    3.511655
     97          1           0       -3.704615   -6.182972    3.176575
     98          1           0        2.470070   -2.063794   -1.820755
     99          1           0        2.555749   -0.598396   -2.111067
    100          1           0        4.166525   -1.469654    0.331809
    101          1           0        5.323083    1.827470   -1.776263
    102          1           0        5.367902    0.511286   -3.145369
    103          1           0        3.669151    0.984585   -2.497793
    104          1           0        6.322134    0.978511    0.416741
    105          1           0        5.984582   -0.879995    0.638443
    106          1           0        7.220044   -1.679765   -1.242667
    107          1           0        7.438731    0.062154   -1.975325
    108          1           0        8.937255    0.547430    0.239931
    109          1           0        8.459042   -1.438946    0.635620
    110          1           0       10.108822   -0.424680   -1.872202
    111          1           0        9.234164   -2.506028   -1.497504
    112          1           0       11.276192   -2.590076   -1.625679
    113          1           0       10.070980   -3.069638   -0.390686
    114          1           0       11.238782    0.794433    0.246325
    115          1           0       11.485046   -0.956569    0.974003
    116          1           0       12.842271   -1.608297   -0.767218
    117          1           0       12.643233    0.066585   -1.393122
    118          1           0       13.614578    1.051225    0.429743
    119          1           0       13.670409   -0.496949    1.267282
    120          1           0       15.101889    0.309975   -1.348068
    121          1           0       14.905801   -2.268840   -1.072074
    122          1           0       16.496112   -1.785215   -0.826236
    123          1           0       15.653369   -2.284248    0.457676
    124          1           0       15.610977    1.735904    0.320592
    125          1           0       16.310745    0.324809    1.334337
    126          1           0       18.049440   -0.287453   -0.173593
    127          1           0       17.703138    0.958647   -1.437596
    128          1           0       18.012700    2.871165    0.687533
    129          1           0       18.662648    1.375221    1.728475
    130          1           0       20.503981    0.869610    0.025464
    131          1           0       19.969539    3.898441   -1.378791
    132          1           0       21.092016    2.547930   -1.690776
    133          1           0       19.331313    2.254354   -2.018536
    134          1           0       21.214449    1.707865    1.861642
    135          1           0       21.863981    2.684758    0.663399
    136          1           0       20.477358    3.435811    1.689972
    137          1           0       -7.016174    1.800172    0.388226
    138          1           0       -7.557444   -0.114729   -0.001562
 ---------------------------------------------------------------------

 SCF Done:  E(RB3LYP) =  -2732.87811886     A.U. after   17 cycles

 Excitation energies and oscillator strengths:

 Excited State   1:      Singlet-A      2.0059 eV  618.11 nm  f=0.1838  <S**2>=0.000
     235 -> 238        0.29674
     236 -> 237        0.63247
 This state for optimization and/or second-order correction.
 Total Energy, E(TD-HF/TD-KS) =  -2732.80440467
 Copying the excited state density for this state as the 1-particle RhoCI density.

 The electronic state is 1-A.
 Alpha  occ. eigenvalues --  -19.20704 -19.16963 -19.12835 -19.11659 -19.11009
 Alpha  occ. eigenvalues --  -14.37963 -14.37056 -14.32311 -14.29924 -10.32412
 Alpha  occ. eigenvalues --  -10.31465 -10.27695 -10.24949 -10.24924 -10.24461
 Alpha  occ. eigenvalues --  -10.24025 -10.23936 -10.23865 -10.23241 -10.23123
 Alpha  occ. eigenvalues --  -10.22877 -10.22826 -10.22763 -10.22304 -10.22139
 Alpha  occ. eigenvalues --  -10.22058 -10.21502 -10.21395 -10.21390 -10.21316
 Alpha  occ. eigenvalues --  -10.21095 -10.20996 -10.20906 -10.20688 -10.20655
 Alpha  occ. eigenvalues --  -10.20536 -10.20391 -10.20370 -10.20306 -10.20121
 Alpha  occ. eigenvalues --  -10.19991 -10.19762 -10.19602 -10.19526 -10.19494
 Alpha  occ. eigenvalues --  -10.19465 -10.19448 -10.19272 -10.19173 -10.19162
 Alpha  occ. eigenvalues --  -10.18954 -10.18692 -10.18604 -10.18466 -10.18406
 Alpha  occ. eigenvalues --  -10.18384 -10.18368 -10.18136 -10.17814 -10.17804
 Alpha  occ. eigenvalues --  -10.17655 -10.17617 -10.17313 -10.16536  -1.13085
 Alpha  occ. eigenvalues --   -1.10352  -1.02331  -0.99951  -0.99157  -0.99012
 Alpha  occ. eigenvalues --   -0.95856  -0.95136  -0.91915  -0.85068  -0.83300
 Alpha  occ. eigenvalues --   -0.82914  -0.82676  -0.81884  -0.81552  -0.80727
 Alpha  occ. eigenvalues --   -0.80457  -0.80308  -0.79552  -0.78605  -0.78374
 Alpha  occ. eigenvalues --   -0.78219  -0.77113  -0.76293  -0.75218  -0.75078
 Alpha  occ. eigenvalues --   -0.74525  -0.73782  -0.72601  -0.71913  -0.71202
 Alpha  occ. eigenvalues --   -0.70523  -0.69369  -0.68414  -0.68141  -0.67946
 Alpha  occ. eigenvalues --   -0.67675  -0.66858  -0.66384  -0.65813  -0.65243
 Alpha  occ. eigenvalues --   -0.64483  -0.63466  -0.63062  -0.61485  -0.61188
 Alpha  occ. eigenvalues --   -0.61100  -0.59768  -0.59389  -0.58985  -0.58453
 Alpha  occ. eigenvalues --   -0.57850  -0.57322  -0.55894  -0.55593  -0.55359
 Alpha  occ. eigenvalues --   -0.55268  -0.54601  -0.54320  -0.54228  -0.53403
 Alpha  occ. eigenvalues --   -0.52740  -0.52429  -0.51713  -0.51317  -0.50986
 Alpha  occ. eigenvalues --   -0.50609  -0.50122  -0.49473  -0.49188  -0.49067
 Alpha  occ. eigenvalues --   -0.48478  -0.48239  -0.47870  -0.47242  -0.46941
 Alpha  occ. eigenvalues --   -0.46574  -0.46531  -0.46404  -0.46259  -0.45995
 Alpha  occ. eigenvalues --   -0.45700  -0.45279  -0.45190  -0.45088  -0.44918
 Alpha  occ. eigenvalues --   -0.44860  -0.44805  -0.44405  -0.44237  -0.43933
 Alpha  occ. eigenvalues --   -0.43685  -0.43456  -0.43193  -0.43088  -0.42716
 Alpha  occ. eigenvalues --   -0.42597  -0.42421  -0.42186  -0.41894  -0.41809
 Alpha  occ. eigenvalues --   -0.41539  -0.41189  -0.41026  -0.40949  -0.40539
 Alpha  occ. eigenvalues --   -0.40017  -0.39563  -0.39355  -0.39208  -0.39021
 Alpha  occ. eigenvalues --   -0.38731  -0.38687  -0.38606  -0.38431  -0.38274
 Alpha  occ. eigenvalues --   -0.38150  -0.38054  -0.37937  -0.37849  -0.37445
 Alpha  occ. eigenvalues --   -0.37004  -0.36919  -0.36880  -0.36714  -0.36599
 Alpha  occ. eigenvalues --   -0.36285  -0.36121  -0.35966  -0.35800  -0.35527
 Alpha  occ. eigenvalues --   -0.35273  -0.35083  -0.34881  -0.34869  -0.34709
 Alpha  occ. eigenvalues --   -0.34476  -0.34320  -0.33942  -0.33689  -0.33361
 Alpha  occ. eigenvalues --   -0.33138  -0.33115  -0.33027  -0.32461  -0.32136
 Alpha  occ. eigenvalues --   -0.31930  -0.31771  -0.31636  -0.31451  -0.30876
 Alpha  occ. eigenvalues --   -0.30331  -0.30265  -0.30187  -0.29818  -0.29680
 Alpha  occ. eigenvalues --   -0.29531  -0.29397  -0.28614  -0.28579  -0.28529
 Alpha  occ. eigenvalues --   -0.27179  -0.26915  -0.26556  -0.26212  -0.25784
 Alpha  occ. eigenvalues --   -0.24695  -0.24480  -0.23804  -0.22528  -0.20048
 Alpha  occ. eigenvalues --   -0.18773
 Alpha virt. eigenvalues --   -0.10261  -0.08249  -0.05562  -0.01905  -0.01293
 Alpha virt. eigenvalues --    0.00044   0.00809   0.01438   0.01965   0.02064
 Alpha virt. eigenvalues --    0.03270   0.03587   0.03781   0.04237   0.04556

 Mulliken charges:
               1
     1  C    0.032628
     2  C    0.085759
     3  C   -0.087996
     4  C   -0.113214
     5  N   -0.166741
     6  C   -0.093205
     7  C    0.059907
     8  C   -0.031970
     9  C   -0.008902
    10  C    0.121855
    11  C   -0.012118
    12  C    0.184028
    13  C    0.115134
    14  O   -0.187307
    15  O   -0.325566
    16  N   -0.010323
    17  C    0.088007
    18  C   -0.068758
    19  C   -0.050633
    20  C    0.078570
    21  C   -0.077313
    22  C    0.001273
    23  C   -0.066044
    24  N   -0.321673
    25  C    0.095064
    26  C   -0.141457
    27  C   -0.120124
    28  C    0.038019
    29  C    0.132277
    30  C    0.169969
    31  C   -0.111800
    32  N    0.025036
    33  C    0.090932
    34  C    0.013772
    35  C   -0.033636
    36  C    0.070059
    37  C   -0.191081
    38  C    0.073826
    39  O   -0.238127
    40  C   -0.024065
    41  C    0.179572
    42  O   -0.347119
    43  O   -0.206747
    44  C    0.281072
    45  C    0.340944
    46  C   -0.076531
    47  C   -0.131440
    48  C   -0.037276
    49  C    0.018650
    50  C    0.043941
    51  C   -0.063318
    52  C   -0.000128
    53  C    0.023051
    54  C    0.064732
    55  C   -0.027497
    56  C    0.035163
    57  C   -0.012138
    58  C    0.087650
    59  C    0.037995
    60  C   -0.007000
    61  C   -0.057482
    62  C   -0.025087
    63  C   -0.027833
    64  C   -0.000650
    65  H   -0.140164
    66  H   -0.044543
    67  H    0.008626
    68  H    0.012669
    69  H   -0.023553
    70  H   -0.020594
    71  H   -0.003616
    72  H    0.029084
    73  H    0.033027
    74  H    0.024241
    75  H   -0.040176
    76  H   -0.019751
    77  H    0.043806
    78  H    0.032047
    79  H    0.055100
    80  H    0.033638
    81  H    0.024561
    82  H    0.042974
    83  H    0.028485
    84  H    0.003373
    85  H    0.008867
    86  H   -0.018718
    87  H   -0.018818
    88  H    0.041974
    89  H    0.049721
    90  H    0.036956
    91  H    0.049118
    92  H    0.096610
    93  H    0.110244
    94  H    0.062157
    95  H    0.024206
    96  H    0.042746
    97  H   -0.010653
    98  H   -0.002259
    99  H   -0.055759
   100  H   -0.008018
   101  H    0.029197
   102  H    0.047793
   103  H    0.049505
   104  H    0.013644
   105  H   -0.003203
   106  H    0.025193
   107  H    0.015744
   108  H    0.013662
   109  H   -0.000686
   110  H   -0.005001
   111  H   -0.033288
   112  H    0.036261
   113  H   -0.023783
   114  H    0.003525
   115  H   -0.005696
   116  H   -0.000588
   117  H   -0.028205
   118  H   -0.026526
   119  H   -0.019835
   120  H   -0.015975
   121  H   -0.004701
   122  H   -0.056267
   123  H   -0.012929
   124  H    0.006297
   125  H   -0.013580
   126  H    0.010276
   127  H    0.018113
   128  H    0.031218
   129  H    0.006298
   130  H    0.001963
   131  H    0.039671
   132  H    0.003623
   133  H    0.008973
   134  H    0.001377
   135  H   -0.011828
   136  H    0.022115
   137  H    0.131065
   138  H    0.172382
 Sum of Mulliken charges =   0.00000

 Dipole moment (field-independent basis, Debye):
    X=              2.4508    Y=              2.2939    Z=              0.1178  Tot=              3.3589
 Quadrupole moment (field-independent basis, Debye-Ang):
   XX=           -349.6298   YY=           -383.4913   ZZ=           -398.8380
   XY=            -26.5367   XZ=              5.0094   YZ=             -6.8692

 Normal termination of Gaussian 09 at Sun Aug  4 19:32:49 2019.
