 Gaussian 09, Revision D.01,
 Gaussian 09:  ES64L-G09RevD.01 24-Apr-2013

 --------------------------
 # td=(NStates=1) B3LYP/SVP
 --------------------------

 --
 TD
 --
 Symbolic Z-matrix:
 Charge =  0 Multiplicity = 1

                         Standard orientation:
 ---------------------------------------------------------------------
 Center     Atomic      Atomic             Coordinates (Angstroms)
 Number     Number       Type             X           Y           Z
 ---------------------------------------------------------------------
      1          6           0       -5.116973   -2.008856    0.396685
      2          6           0       -4.617723    2.729117    1.319711
      3          6           0       -9.274198    3.430674   -0.181781
      4          6           0       -9.812346   -1.256782   -1.006740
      5          7           0       -5.100702    0.404583    0.797113
      6          6           0       -4.508408   -0.819065    0.785275
      7          6           0       -3.037643   -0.693702    1.238969
      8          6           0       -2.976613    0.754375    1.804972
      9          6           0       -4.319467    1.385758    1.253458
     10          6           0       -2.984623    0.764277    3.334416
     11          6           0       -1.998193   -0.915296    0.085359
     12          6           0       -0.583138   -0.973549    0.462710
     13          6           0        0.364341   -1.130184   -0.658986
     14          8           0        0.039671   -1.600484   -1.711361
     15          8           0        1.657638   -0.851392   -0.340139
     16          7           0       -7.025103    2.684663    0.617776
     17          6           0       -5.839897    3.386694    1.013219
     18          6           0       -6.120457    4.857106    1.104249
     19          6           0       -7.417131    4.984096    0.531245
     20          6           0       -7.922283    3.766444    0.313172
     21          6           0       -5.030329    5.857792    1.399719
     22          6           0       -8.031116    6.301785    0.492404
     23          6           0       -9.032524    6.702404   -0.400733
     24          7           0       -9.250112    0.940780   -0.495808
     25          6           0       -9.858418    2.168082   -0.519395
     26          6           0      -11.244794    1.981010   -0.825065
     27          6           0      -11.416184    0.644058   -1.121514
     28          6           0      -10.114900    0.047315   -0.923372
     29          6           0      -12.226620    3.045495   -1.087500
     30          6           0      -12.541123   -0.031977   -1.704313
     31          6           0      -12.572459   -0.312609   -3.136073
     32          7           0       -7.483192   -1.148679   -0.296942
     33          6           0       -8.592279   -1.897417   -0.663787
     34          6           0       -8.218390   -3.312470   -0.736719
     35          6           0       -6.939146   -3.327719   -0.179232
     36          6           0       -6.439841   -2.031063   -0.009478
     37          6           0       -9.120916   -4.507147   -1.179162
     38          6           0       -5.862618   -4.362879    0.018025
     39          8           0       -5.735958   -5.530102   -0.011626
     40          6           0       -4.743621   -3.505688    0.437385
     41          6           0       -4.040327   -3.803780    1.757295
     42          8           0       -4.264164   -3.385269    2.846796
     43          8           0       -3.115240   -4.837267    1.649528
     44          6           0       -2.648464   -5.457515    2.855378
     45          6           0        2.666183   -1.070750   -1.371048
     46          6           0        3.941256   -0.830024   -0.696902
     47          6           0        5.023941   -0.039627   -1.107363
     48          6           0        4.986884    0.663663   -2.439853
     49          6           0        6.177821    0.091098   -0.203463
     50          6           0        7.485094   -0.551041   -0.942357
     51          6           0        8.823669   -0.301326   -0.065030
     52          6           0       10.098961   -0.922941   -0.619728
     53          6           0       10.002556   -2.373820   -0.887507
     54          6           0       11.239520   -0.516361    0.147646
     55          6           0       12.652476   -0.614417   -0.550106
     56          6           0       13.763452   -0.030343    0.193479
     57          6           0       15.207689   -0.251777   -0.424413
     58          6           0       15.646120   -1.719378   -0.476460
     59          6           0       16.298921    0.575906    0.385953
     60          6           0       17.701013    0.763714   -0.294678
     61          6           0       18.512466    1.678552    0.569079
     62          6           0       19.971092    1.959997    0.072908
     63          6           0       20.109913    2.625132   -1.318477
     64          6           0       20.753934    2.599029    1.229494
     65          1           0       -3.746791    3.290651    1.822876
     66          1           0      -10.097074    4.319224    0.050241
     67          1           0      -10.581222   -1.926193   -1.467709
     68          1           0       -2.671130   -1.425416    1.959698
     69          1           0       -2.132785    1.417650    1.480466
     70          1           0       -1.979997    0.480002    3.707095
     71          1           0       -3.261925    1.650773    3.917619
     72          1           0       -3.743446   -0.156812    3.586241
     73          1           0       -2.388777   -1.747787   -0.647114
     74          1           0       -2.220406   -0.108448   -0.584836
     75          1           0       -0.611448   -0.097479    1.004168
     76          1           0       -0.334271   -1.667285    1.159660
     77          1           0       -4.037454    5.646308    0.709566
     78          1           0       -5.254362    6.850624    1.163889
     79          1           0       -4.734094    5.936197    2.540545
     80          1           0       -7.393666    7.142215    1.167350
     81          1           0       -9.404230    6.142539   -1.214019
     82          1           0       -9.183257    7.857524   -0.342612
     83          1           0      -12.288852    3.818723   -0.326256
     84          1           0      -11.823769    3.848282   -1.717864
     85          1           0      -13.374024    2.842143   -1.398390
     86          1           0      -12.804114   -0.893222   -1.052723
     87          1           0      -13.528969    0.471367   -1.475098
     88          1           0      -12.119050    0.460843   -3.797176
     89          1           0      -11.962132   -1.264448   -3.491507
     90          1           0      -13.655264   -0.602264   -3.676746
     91          1           0       -9.929777   -4.507105   -0.423157
     92          1           0       -9.596611   -4.648898   -2.175779
     93          1           0       -8.480180   -5.362961   -0.831445
     94          1           0       -3.977149   -3.501161   -0.314426
     95          1           0       -2.009526   -6.177045    2.550847
     96          1           0       -2.322131   -4.633177    3.324417
     97          1           0       -3.475640   -5.778393    3.490667
     98          1           0        2.487756   -2.233528   -1.551140
     99          1           0        2.569137   -0.404538   -2.301452
    100          1           0        4.057398   -1.184359    0.353796
    101          1           0        5.594167    1.645065   -2.467933
    102          1           0        5.433037    0.097755   -3.223154
    103          1           0        4.055077    0.681250   -2.758965
    104          1           0        6.558572    1.157651    0.029590
    105          1           0        5.910040   -0.656598    0.771994
    106          1           0        7.349270   -1.610798   -1.152404
    107          1           0        7.698856   -0.189525   -1.893454
    108          1           0        9.004314    0.659059    0.173316
    109          1           0        8.806141   -0.748646    0.955160
    110          1           0       10.226962   -0.246820   -1.676168
    111          1           0        9.025703   -2.601234   -1.393639
    112          1           0       10.854850   -2.669138   -1.687647
    113          1           0        9.970916   -2.841779   -0.010976
    114          1           0       11.113003    0.445381    0.401996
    115          1           0       11.205097   -1.062391    1.131820
    116          1           0       12.966244   -1.745935   -0.687478
    117          1           0       12.733928   -0.059057   -1.415564
    118          1           0       13.586782    0.921822    0.062776
    119          1           0       13.913528   -0.374913    1.292886
    120          1           0       15.155356    0.226876   -1.384554
    121          1           0       14.937224   -2.324334   -1.124598
    122          1           0       16.666404   -1.707250   -0.892130
    123          1           0       15.720111   -2.223387    0.436346
    124          1           0       15.680629    1.618727    0.685215
    125          1           0       16.380630   -0.033795    1.312952
    126          1           0       18.123215   -0.267572   -0.301299
    127          1           0       17.471309    0.951279   -1.357254
    128          1           0       18.102463    2.644940    0.758149
    129          1           0       18.630551    1.221212    1.496505
    130          1           0       20.228771    0.913450   -0.238600
    131          1           0       19.740636    3.688500   -1.092931
    132          1           0       21.186555    2.682141   -1.547413
    133          1           0       19.404421    2.108509   -2.058761
    134          1           0       20.739746    1.753104    1.953858
    135          1           0       21.773625    3.058220    1.044950
    136          1           0       20.426645    3.628763    1.749019
    137          1           0       -7.107613    1.811282    0.600775
    138          1           0       -7.244594   -0.104120   -0.338448
 ---------------------------------------------------------------------

 SCF Done:  E(RB3LYP) =  -2733.05730102     A.U. after   17 cycles

 Excitation energies and oscillator strengths:

 Excited State   1:      Singlet-A      2.0215 eV  613.32 nm  f=0.1477  <S**2>=0.000
     235 -> 237       -0.28901
     235 -> 238       -0.28026
     236 -> 237        0.54627
     236 -> 238       -0.18451
 This state for optimization and/or second-order correction.
 Total Energy, E(TD-HF/TD-KS) =  -2732.98301114
 Copying the excited state density for this state as the 1-particle RhoCI density.

 The electronic state is 1-A.
 Alpha  occ. eigenvalues --  -19.17204 -19.15663 -19.13098 -19.12849 -19.12156
 Alpha  occ. eigenvalues --  -14.37367 -14.36432 -14.32350 -14.28832 -10.31641
 Alpha  occ. eigenvalues --  -10.31187 -10.28163 -10.26043 -10.24787 -10.24363
 Alpha  occ. eigenvalues --  -10.24081 -10.23762 -10.23047 -10.22835 -10.22746
 Alpha  occ. eigenvalues --  -10.22391 -10.22086 -10.21972 -10.21779 -10.21591
 Alpha  occ. eigenvalues --  -10.21529 -10.21417 -10.21170 -10.20752 -10.20711
 Alpha  occ. eigenvalues --  -10.20681 -10.20658 -10.20630 -10.20484 -10.20231
 Alpha  occ. eigenvalues --  -10.20013 -10.19960 -10.19941 -10.19869 -10.19483
 Alpha  occ. eigenvalues --  -10.19326 -10.19286 -10.19254 -10.19221 -10.19201
 Alpha  occ. eigenvalues --  -10.19081 -10.18924 -10.18828 -10.18827 -10.18761
 Alpha  occ. eigenvalues --  -10.18742 -10.18689 -10.18574 -10.18515 -10.18443
 Alpha  occ. eigenvalues --  -10.18402 -10.17785 -10.17669 -10.17573 -10.17544
 Alpha  occ. eigenvalues --  -10.17503 -10.17160 -10.17088 -10.16661  -1.09027
 Alpha  occ. eigenvalues --   -1.08945  -1.05864  -1.00685  -1.00010  -0.97593
 Alpha  occ. eigenvalues --   -0.96790  -0.94476  -0.94111  -0.86197  -0.83333
 Alpha  occ. eigenvalues --   -0.83119  -0.82502  -0.81825  -0.81289  -0.80519
 Alpha  occ. eigenvalues --   -0.80090  -0.79954  -0.79502  -0.78963  -0.77636
 Alpha  occ. eigenvalues --   -0.76463  -0.76145  -0.75583  -0.75050  -0.74332
 Alpha  occ. eigenvalues --   -0.73644  -0.73228  -0.72521  -0.72315  -0.71659
 Alpha  occ. eigenvalues --   -0.70264  -0.70049  -0.69144  -0.68767  -0.68552
 Alpha  occ. eigenvalues --   -0.67902  -0.67210  -0.66147  -0.66044  -0.64969
 Alpha  occ. eigenvalues --   -0.64302  -0.62926  -0.62580  -0.61954  -0.61409
 Alpha  occ. eigenvalues --   -0.61316  -0.59694  -0.58611  -0.57393  -0.57000
 Alpha  occ. eigenvalues --   -0.56785  -0.56151  -0.56063  -0.55636  -0.55348
 Alpha  occ. eigenvalues --   -0.55339  -0.54689  -0.54465  -0.54031  -0.53708
 Alpha  occ. eigenvalues --   -0.53572  -0.52753  -0.52070  -0.51525  -0.50561
 Alpha  occ. eigenvalues --   -0.50105  -0.49914  -0.49312  -0.49196  -0.48782
 Alpha  occ. eigenvalues --   -0.47974  -0.47742  -0.47697  -0.47327  -0.47201
 Alpha  occ. eigenvalues --   -0.46978  -0.46801  -0.46272  -0.46065  -0.45727
 Alpha  occ. eigenvalues --   -0.45463  -0.45385  -0.45281  -0.45092  -0.44623
 Alpha  occ. eigenvalues --   -0.44387  -0.44278  -0.44189  -0.44091  -0.44040
 Alpha  occ. eigenvalues --   -0.43928  -0.43637  -0.43571  -0.43145  -0.43086
 Alpha  occ. eigenvalues --   -0.42794  -0.42344  -0.41703  -0.41519  -0.41344
 Alpha  occ. eigenvalues --   -0.41083  -0.41063  -0.40594  -0.40421  -0.40272
 Alpha  occ. eigenvalues --   -0.40057  -0.39920  -0.39898  -0.39820  -0.39607
 Alpha  occ. eigenvalues --   -0.39538  -0.39450  -0.39294  -0.38935  -0.38719
 Alpha  occ. eigenvalues --   -0.38433  -0.38281  -0.37912  -0.37718  -0.37698
 Alpha  occ. eigenvalues --   -0.37655  -0.37424  -0.37164  -0.37017  -0.36784
 Alpha  occ. eigenvalues --   -0.36552  -0.36448  -0.36206  -0.36022  -0.35957
 Alpha  occ. eigenvalues --   -0.35625  -0.35493  -0.35258  -0.35019  -0.34887
 Alpha  occ. eigenvalues --   -0.34826  -0.34374  -0.34356  -0.34011  -0.33941
 Alpha  occ. eigenvalues --   -0.33871  -0.33808  -0.33327  -0.33142  -0.32453
 Alpha  occ. eigenvalues --   -0.32261  -0.31948  -0.31594  -0.31580  -0.31475
 Alpha  occ. eigenvalues --   -0.31044  -0.30573  -0.30454  -0.30135  -0.29308
 Alpha  occ. eigenvalues --   -0.29131  -0.28346  -0.28283  -0.28061  -0.27862
 Alpha  occ. eigenvalues --   -0.27572  -0.27136  -0.26525  -0.26244  -0.25870
 Alpha  occ. eigenvalues --   -0.25323  -0.23996  -0.23572  -0.22212  -0.19680
 Alpha  occ. eigenvalues --   -0.19397
 Alpha virt. eigenvalues --   -0.10836  -0.07914  -0.04893  -0.02689  -0.01116
 Alpha virt. eigenvalues --   -0.00763   0.00044   0.00666   0.01909   0.03541
 Alpha virt. eigenvalues --    0.03991   0.04041   0.04499   0.04902   0.04956

 Mulliken charges:
               1
     1  C   -0.055331
     2  C   -0.045589
     3  C   -0.149707
     4  C   -0.109667
     5  N   -0.157802
     6  C   -0.063035
     7  C   -0.038214
     8  C   -0.062140
     9  C   -0.040916
    10  C    0.014335
    11  C   -0.010734
    12  C    0.199069
    13  C    0.171232
    14  O   -0.221768
    15  O   -0.334199
    16  N   -0.018038
    17  C    0.101961
    18  C   -0.111146
    19  C    0.037931
    20  C    0.123453
    21  C    0.036268
    22  C   -0.095602
    23  C   -0.039717
    24  N   -0.196250
    25  C    0.063319
    26  C   -0.090379
    27  C   -0.086599
    28  C    0.060441
    29  C    0.094206
    30  C    0.100344
    31  C   -0.053249
    32  N   -0.085938
    33  C    0.089125
    34  C   -0.125524
    35  C   -0.134901
    36  C    0.107102
    37  C    0.079621
    38  C    0.121463
    39  O   -0.109800
    40  C    0.096757
    41  C    0.171725
    42  O   -0.198321
    43  O   -0.354361
    44  C    0.292246
    45  C    0.260147
    46  C   -0.107524
    47  C   -0.165456
    48  C    0.177073
    49  C    0.034277
    50  C    0.025701
    51  C    0.077384
    52  C   -0.156343
    53  C    0.112300
    54  C    0.124726
    55  C    0.063759
    56  C    0.070913
    57  C   -0.078939
    58  C    0.055450
    59  C   -0.081256
    60  C    0.056803
    61  C    0.093679
    62  C   -0.102400
    63  C    0.007612
    64  C   -0.010518
    65  H   -0.003166
    66  H    0.045643
    67  H   -0.011232
    68  H    0.004734
    69  H    0.009185
    70  H    0.010973
    71  H    0.020809
    72  H    0.050143
    73  H    0.015971
    74  H   -0.018508
    75  H   -0.024926
    76  H   -0.007455
    77  H    0.056223
    78  H   -0.004550
    79  H    0.044962
    80  H    0.049909
    81  H    0.033243
    82  H    0.043024
    83  H   -0.019889
    84  H   -0.010707
    85  H    0.043966
    86  H   -0.005673
    87  H   -0.013688
    88  H    0.023578
    89  H    0.009071
    90  H    0.024565
    91  H    0.027533
    92  H    0.054849
    93  H    0.040522
    94  H    0.037153
    95  H    0.013592
    96  H   -0.017701
    97  H    0.014615
    98  H    0.041340
    99  H    0.043238
   100  H   -0.005312
   101  H    0.024586
   102  H    0.006145
   103  H   -0.055163
   104  H    0.026910
   105  H    0.032334
   106  H    0.002016
   107  H   -0.018030
   108  H   -0.051627
   109  H   -0.030594
   110  H   -0.024661
   111  H   -0.001819
   112  H    0.034590
   113  H   -0.034342
   114  H   -0.064722
   115  H   -0.020187
   116  H    0.004230
   117  H   -0.037498
   118  H   -0.063219
   119  H   -0.002264
   120  H   -0.029900
   121  H    0.017884
   122  H   -0.000082
   123  H   -0.010689
   124  H    0.011119
   125  H   -0.003475
   126  H   -0.000722
   127  H    0.002987
   128  H   -0.019146
   129  H   -0.031889
   130  H   -0.014149
   131  H    0.000953
   132  H    0.022147
   133  H    0.026742
   134  H    0.025148
   135  H    0.006961
   136  H    0.018739
   137  H    0.021411
   138  H    0.184186
 Sum of Mulliken charges =   0.00000

 Dipole moment (field-independent basis, Debye):
    X=              2.6543    Y=              4.1680    Z=              0.1735  Tot=              4.9444
 Quadrupole moment (field-independent basis, Debye-Ang):
   XX=           -362.5557   YY=           -379.2652   ZZ=           -395.3173
   XY=            -17.1170   XZ=             12.8762   YZ=             -1.4079

 Normal termination of Gaussian 09 at Wed Jul 24 21:24:02 2019.
