 Gaussian 09, Revision D.01,
 Gaussian 09:  ES64L-G09RevD.01 24-Apr-2013

 --------------------------
 # td=(NStates=1) B3LYP/SVP
 --------------------------

 --
 TD
 --
 Symbolic Z-matrix:
 Charge =  0 Multiplicity = 1

                         Standard orientation:
 ---------------------------------------------------------------------
 Center     Atomic      Atomic             Coordinates (Angstroms)
 Number     Number       Type             X           Y           Z
 ---------------------------------------------------------------------
      1          6           0       -5.175019   -1.850569    0.422571
      2          6           0       -4.700774    2.844518    1.500719
      3          6           0       -9.210810    3.300122   -0.221389
      4          6           0       -9.837993   -1.349557   -1.083422
      5          7           0       -5.224834    0.491025    0.793383
      6          6           0       -4.550672   -0.668145    0.829822
      7          6           0       -3.082822   -0.509727    1.273523
      8          6           0       -3.114958    0.848635    1.895163
      9          6           0       -4.429990    1.477168    1.306080
     10          6           0       -3.014955    0.894199    3.514586
     11          6           0       -2.078966   -0.845889    0.160768
     12          6           0       -0.583852   -0.883365    0.676487
     13          6           0        0.397872   -1.296105   -0.399695
     14          8           0        0.201645   -2.083149   -1.382883
     15          8           0        1.691608   -0.796576   -0.135289
     16          7           0       -6.913561    2.891130    0.394553
     17          6           0       -5.873115    3.480780    1.012984
     18          6           0       -6.166115    4.904155    0.984193
     19          6           0       -7.431112    5.016563    0.423863
     20          6           0       -7.914647    3.708495    0.110706
     21          6           0       -5.149411    5.891715    1.409894
     22          6           0       -8.015154    6.422495    0.267656
     23          6           0       -8.884045    6.674254   -0.743213
     24          7           0       -9.194079    1.006311   -0.569267
     25          6           0       -9.832893    2.147547   -0.553649
     26          6           0      -11.268232    1.912125   -0.872976
     27          6           0      -11.383009    0.622760   -1.143625
     28          6           0      -10.064236   -0.049137   -0.937935
     29          6           0      -12.274828    3.078374   -0.971925
     30          6           0      -12.664875   -0.042926   -1.587117
     31          6           0      -12.748118   -0.261008   -3.225049
     32          7           0       -7.593452   -1.224977   -0.225627
     33          6           0       -8.627927   -2.028323   -0.719465
     34          6           0       -8.224718   -3.404346   -0.654563
     35          6           0       -6.971949   -3.389225   -0.227465
     36          6           0       -6.545721   -1.995787    0.077133
     37          6           0       -9.097768   -4.606242   -1.068190
     38          6           0       -5.765852   -4.172939   -0.009574
     39          8           0       -5.745965   -5.389489   -0.279095
     40          6           0       -4.625174   -3.247706    0.495341
     41          6           0       -4.068208   -3.736237    1.768578
     42          8           0       -4.250054   -3.237849    2.864368
     43          8           0       -3.212799   -4.821657    1.562079
     44          6           0       -2.765295   -5.525858    2.650113
     45          6           0        2.687383   -1.239572   -1.034061
     46          6           0        4.008816   -0.972745   -0.423992
     47          6           0        4.991054   -0.268621   -1.077381
     48          6           0        4.860247    0.299616   -2.508849
     49          6           0        6.360036   -0.013711   -0.398961
     50          6           0        7.520562   -0.741241   -0.930878
     51          6           0        8.814588   -0.430204   -0.324017
     52          6           0       10.173586   -0.921026   -0.794874
     53          6           0       10.140984   -2.463003   -0.767885
     54          6           0       11.273993   -0.476679   -0.030911
     55          6           0       12.712478   -0.701474   -0.613576
     56          6           0       13.837580   -0.055164    0.178739
     57          6           0       15.288981   -0.313672   -0.353132
     58          6           0       15.851708   -1.725142   -0.371736
     59          6           0       16.279980    0.678522    0.339690
     60          6           0       17.609409    0.970605   -0.182564
     61          6           0       18.633051    1.904576    0.620947
     62          6           0       20.061791    1.979578    0.130571
     63          6           0       20.176652    2.492551   -1.328118
     64          6           0       20.879058    2.933032    1.003757
     65          1           0       -4.218034    3.554281    1.952846
     66          1           0       -9.928197    4.171459   -0.224218
     67          1           0      -10.552417   -2.004529   -1.487566
     68          1           0       -2.929121   -1.303531    2.233762
     69          1           0       -2.354491    1.454911    1.346448
     70          1           0       -2.060531    0.393491    3.836971
     71          1           0       -3.230314    1.953765    3.787506
     72          1           0       -3.882492    0.452031    3.995709
     73          1           0       -2.211897   -1.782302   -0.183907
     74          1           0       -2.212064   -0.106412   -0.640891
     75          1           0       -0.231797    0.045318    1.180042
     76          1           0       -0.350701   -1.773346    1.434168
     77          1           0       -4.441987    5.934942    0.569389
     78          1           0       -5.614558    7.007832    1.274039
     79          1           0       -4.804002    5.893547    2.426768
     80          1           0       -7.727801    7.162429    0.962746
     81          1           0       -9.171440    5.974958   -1.610282
     82          1           0       -9.384360    7.686416   -0.729240
     83          1           0      -12.142803    3.710417   -0.170638
     84          1           0      -12.213781    3.751449   -1.806058
     85          1           0      -13.192817    2.512062   -1.132349
     86          1           0      -12.605069   -0.979371   -0.948575
     87          1           0      -13.599883    0.392693   -1.280431
     88          1           0      -12.947334    0.780377   -3.709321
     89          1           0      -11.761873   -0.731639   -3.506205
     90          1           0      -13.565987   -0.984213   -3.477259
     91          1           0      -10.024937   -4.666667   -0.429668
     92          1           0       -9.631388   -4.421165   -1.936343
     93          1           0       -8.570628   -5.618387   -0.984155
     94          1           0       -3.926718   -3.372862   -0.470312
     95          1           0       -2.366666   -6.516314    2.387640
     96          1           0       -2.144193   -4.989202    3.198491
     97          1           0       -3.713363   -5.658661    3.419620
     98          1           0        2.555432   -2.364433   -1.322875
     99          1           0        2.519192   -0.782810   -1.967066
    100          1           0        4.068084   -1.368245    0.569445
    101          1           0        5.447184    1.229286   -2.408007
    102          1           0        5.484900   -0.366640   -3.312854
    103          1           0        3.726632    0.413288   -2.863847
    104          1           0        6.545084    1.137639   -0.242745
    105          1           0        6.251454   -0.353780    0.736485
    106          1           0        7.193236   -1.895345   -1.034890
    107          1           0        7.609677   -0.437641   -2.069807
    108          1           0        8.860068    0.566727   -0.011433
    109          1           0        8.664763   -0.773611    0.816298
    110          1           0       10.013555   -0.631891   -2.007683
    111          1           0        9.234733   -3.008120   -1.166498
    112          1           0       10.954841   -2.675560   -1.262411
    113          1           0       10.063025   -2.827443    0.350959
    114          1           0       11.448214    0.665891    0.160191
    115          1           0       11.366431   -0.819474    1.000926
    116          1           0       12.781972   -1.770146   -0.643506
    117          1           0       12.610849   -0.520477   -1.769356
    118          1           0       13.830379    1.042910    0.121790
    119          1           0       13.734528   -0.440858    1.184828
    120          1           0       15.317654    0.058655   -1.446327
    121          1           0       15.002389   -2.480815   -0.666872
    122          1           0       16.823371   -1.833938   -0.875904
    123          1           0       15.985719   -2.052918    0.835714
    124          1           0       15.667613    1.540996    0.583933
    125          1           0       16.353806    0.193800    1.427149
    126          1           0       18.200201   -0.062348   -0.243627
    127          1           0       17.463528    1.249948   -1.279842
    128          1           0       18.254506    2.976531    0.587249
    129          1           0       18.704278    1.413394    1.529274
    130          1           0       20.561048    1.027378   -0.015382
    131          1           0       19.570275    3.335274   -1.665297
    132          1           0       21.270012    2.456910   -1.628665
    133          1           0       19.590728    1.749740   -2.156523
    134          1           0       21.018403    2.540026    1.912831
    135          1           0       21.984935    3.095040    0.706909
    136          1           0       20.483127    3.983754    1.102620
    137          1           0       -7.389517    1.733190    0.881659
    138          1           0       -7.606223   -0.164570   -0.472488
 ---------------------------------------------------------------------

 SCF Done:  E(RB3LYP) =  -2733.08679333     A.U. after   17 cycles

 Excitation energies and oscillator strengths:

 Excited State   1:      Singlet-A      2.0867 eV  594.16 nm  f=0.2200  <S**2>=0.000
     235 -> 237       -0.13105
     235 -> 238        0.27435
     236 -> 237        0.63297
 This state for optimization and/or second-order correction.
 Total Energy, E(TD-HF/TD-KS) =  -2733.01010809
 Copying the excited state density for this state as the 1-particle RhoCI density.

 The electronic state is 1-A.
 Alpha  occ. eigenvalues --  -19.17565 -19.17283 -19.13556 -19.12892 -19.11617
 Alpha  occ. eigenvalues --  -14.37199 -14.36990 -14.32457 -14.30207 -10.32594
 Alpha  occ. eigenvalues --  -10.32459 -10.27739 -10.23662 -10.23517 -10.23476
 Alpha  occ. eigenvalues --  -10.23444 -10.23353 -10.23338 -10.23099 -10.22982
 Alpha  occ. eigenvalues --  -10.22708 -10.22530 -10.21562 -10.21289 -10.21156
 Alpha  occ. eigenvalues --  -10.21061 -10.21014 -10.20898 -10.20853 -10.20722
 Alpha  occ. eigenvalues --  -10.20682 -10.20552 -10.20518 -10.20398 -10.20358
 Alpha  occ. eigenvalues --  -10.20351 -10.20253 -10.20231 -10.20044 -10.19961
 Alpha  occ. eigenvalues --  -10.19926 -10.19878 -10.19815 -10.19793 -10.19738
 Alpha  occ. eigenvalues --  -10.19673 -10.19629 -10.19408 -10.19102 -10.18963
 Alpha  occ. eigenvalues --  -10.18963 -10.18774 -10.18639 -10.18636 -10.18561
 Alpha  occ. eigenvalues --  -10.18554 -10.18472 -10.18351 -10.18290 -10.18252
 Alpha  occ. eigenvalues --  -10.18210 -10.17959 -10.17603 -10.17561  -1.09090
 Alpha  occ. eigenvalues --   -1.07299  -1.01329  -1.00735  -0.99239  -0.98229
 Alpha  occ. eigenvalues --   -0.98169  -0.94465  -0.93817  -0.85040  -0.83451
 Alpha  occ. eigenvalues --   -0.81693  -0.81669  -0.81292  -0.81034  -0.80861
 Alpha  occ. eigenvalues --   -0.80511  -0.79993  -0.79904  -0.79025  -0.77902
 Alpha  occ. eigenvalues --   -0.77069  -0.76094  -0.75611  -0.75091  -0.74178
 Alpha  occ. eigenvalues --   -0.73767  -0.73016  -0.72404  -0.71673  -0.70519
 Alpha  occ. eigenvalues --   -0.69990  -0.69404  -0.68892  -0.68049  -0.67583
 Alpha  occ. eigenvalues --   -0.67275  -0.67189  -0.66685  -0.66652  -0.65602
 Alpha  occ. eigenvalues --   -0.64415  -0.63302  -0.62567  -0.62139  -0.61602
 Alpha  occ. eigenvalues --   -0.60516  -0.59153  -0.58557  -0.58473  -0.57137
 Alpha  occ. eigenvalues --   -0.56721  -0.56579  -0.55937  -0.55404  -0.55271
 Alpha  occ. eigenvalues --   -0.55177  -0.55092  -0.53907  -0.53542  -0.53052
 Alpha  occ. eigenvalues --   -0.52730  -0.52084  -0.51787  -0.51221  -0.50463
 Alpha  occ. eigenvalues --   -0.49780  -0.49191  -0.48818  -0.48490  -0.48358
 Alpha  occ. eigenvalues --   -0.47851  -0.47798  -0.47638  -0.47519  -0.47110
 Alpha  occ. eigenvalues --   -0.46926  -0.46598  -0.46399  -0.46085  -0.45838
 Alpha  occ. eigenvalues --   -0.45536  -0.45408  -0.45073  -0.44768  -0.44592
 Alpha  occ. eigenvalues --   -0.44294  -0.44239  -0.43954  -0.43764  -0.43708
 Alpha  occ. eigenvalues --   -0.43364  -0.43200  -0.43046  -0.42929  -0.42803
 Alpha  occ. eigenvalues --   -0.42461  -0.42235  -0.41893  -0.41734  -0.41581
 Alpha  occ. eigenvalues --   -0.41392  -0.41225  -0.40989  -0.40899  -0.40273
 Alpha  occ. eigenvalues --   -0.40075  -0.39955  -0.39797  -0.39781  -0.39408
 Alpha  occ. eigenvalues --   -0.39370  -0.38875  -0.38809  -0.38667  -0.38493
 Alpha  occ. eigenvalues --   -0.38411  -0.38186  -0.37938  -0.37840  -0.37806
 Alpha  occ. eigenvalues --   -0.37747  -0.37486  -0.37000  -0.36851  -0.36647
 Alpha  occ. eigenvalues --   -0.36342  -0.36211  -0.36142  -0.35914  -0.35727
 Alpha  occ. eigenvalues --   -0.35520  -0.35240  -0.35097  -0.34865  -0.34537
 Alpha  occ. eigenvalues --   -0.34445  -0.34326  -0.34138  -0.33931  -0.33472
 Alpha  occ. eigenvalues --   -0.33219  -0.33013  -0.32914  -0.32907  -0.32637
 Alpha  occ. eigenvalues --   -0.32198  -0.31885  -0.31695  -0.31594  -0.30696
 Alpha  occ. eigenvalues --   -0.30645  -0.30464  -0.30007  -0.29878  -0.29704
 Alpha  occ. eigenvalues --   -0.29046  -0.28864  -0.28845  -0.28536  -0.28184
 Alpha  occ. eigenvalues --   -0.28112  -0.27224  -0.26907  -0.26414  -0.25741
 Alpha  occ. eigenvalues --   -0.24481  -0.24435  -0.24250  -0.23441  -0.20101
 Alpha  occ. eigenvalues --   -0.18992
 Alpha virt. eigenvalues --   -0.10450  -0.07164  -0.04373  -0.02146  -0.01776
 Alpha virt. eigenvalues --   -0.01404  -0.00500  -0.00123   0.01214   0.01909
 Alpha virt. eigenvalues --    0.04067   0.04144   0.04375   0.04416   0.04775

 Mulliken charges:
               1
     1  C    0.004626
     2  C    0.055963
     3  C   -0.076404
     4  C   -0.100964
     5  N   -0.152623
     6  C   -0.084191
     7  C   -0.127283
     8  C   -0.012656
     9  C    0.028012
    10  C    0.083390
    11  C    0.175417
    12  C   -0.007265
    13  C    0.204176
    14  O   -0.286428
    15  O   -0.336126
    16  N   -0.093878
    17  C   -0.040753
    18  C   -0.127664
    19  C    0.017920
    20  C    0.047633
    21  C    0.077085
    22  C   -0.013984
    23  C   -0.059775
    24  N   -0.237287
    25  C    0.008795
    26  C   -0.120211
    27  C   -0.088041
    28  C    0.168116
    29  C    0.162038
    30  C    0.015396
    31  C   -0.032870
    32  N   -0.067016
    33  C    0.007152
    34  C   -0.150238
    35  C    0.040155
    36  C    0.049055
    37  C    0.141813
    38  C    0.016285
    39  O   -0.200307
    40  C   -0.029494
    41  C    0.255964
    42  O   -0.215202
    43  O   -0.310953
    44  C    0.213153
    45  C    0.270214
    46  C   -0.049871
    47  C   -0.119251
    48  C    0.005490
    49  C   -0.021450
    50  C    0.025837
    51  C    0.047753
    52  C   -0.033530
    53  C    0.069087
    54  C    0.003550
    55  C   -0.001646
    56  C    0.080603
    57  C   -0.110894
    58  C   -0.013307
    59  C    0.026472
    60  C   -0.005925
    61  C    0.101308
    62  C   -0.075470
    63  C   -0.048022
    64  C    0.067814
    65  H   -0.121433
    66  H   -0.023174
    67  H   -0.047547
    68  H    0.046196
    69  H   -0.009878
    70  H    0.040263
    71  H    0.008204
    72  H    0.018128
    73  H   -0.022066
    74  H    0.015250
    75  H    0.037394
    76  H    0.062588
    77  H    0.040838
    78  H    0.008590
    79  H    0.047077
    80  H   -0.000259
    81  H    0.057017
    82  H    0.027397
    83  H    0.003690
    84  H    0.007048
    85  H    0.000795
    86  H    0.009395
    87  H    0.001715
    88  H    0.040260
    89  H    0.029942
    90  H    0.027673
    91  H    0.007323
    92  H   -0.010296
    93  H    0.061951
    94  H    0.105148
    95  H    0.042012
    96  H   -0.024437
    97  H    0.020648
    98  H    0.036070
    99  H   -0.031813
   100  H   -0.019333
   101  H    0.022525
   102  H    0.054560
   103  H    0.051708
   104  H    0.020898
   105  H    0.002256
   106  H    0.021883
   107  H   -0.012019
   108  H   -0.045185
   109  H   -0.036483
   110  H    0.013739
   111  H    0.012752
   112  H   -0.031187
   113  H    0.009407
   114  H   -0.006788
   115  H   -0.009896
   116  H   -0.018937
   117  H   -0.002407
   118  H    0.006785
   119  H   -0.005055
   120  H   -0.007386
   121  H    0.026944
   122  H    0.035684
   123  H    0.002457
   124  H   -0.028137
   125  H   -0.020820
   126  H   -0.000197
   127  H    0.002041
   128  H    0.010490
   129  H   -0.017971
   130  H   -0.008688
   131  H    0.005524
   132  H    0.024748
   133  H   -0.000935
   134  H   -0.030864
   135  H    0.001521
   136  H    0.012994
   137  H    0.247667
   138  H    0.184705
 Sum of Mulliken charges =   0.00000

 Dipole moment (field-independent basis, Debye):
    X=              0.5455    Y=              5.2438    Z=              1.5065  Tot=              5.4831
 Quadrupole moment (field-independent basis, Debye-Ang):
   XX=           -341.6259   YY=           -386.4842   ZZ=           -394.7620
   XY=            -24.8310   XZ=             11.9349   YZ=             -0.3466

 Normal termination of Gaussian 09 at Mon Aug  5 08:27:51 2019.
