 Gaussian 09, Revision D.01,
 Gaussian 09:  ES64L-G09RevD.01 24-Apr-2013

 --------------------------
 # td=(NStates=1) B3LYP/SVP
 --------------------------

 --
 TD
 --
 Symbolic Z-matrix:
 Charge =  0 Multiplicity = 1

                         Standard orientation:
 ---------------------------------------------------------------------
 Center     Atomic      Atomic             Coordinates (Angstroms)
 Number     Number       Type             X           Y           Z
 ---------------------------------------------------------------------
      1          6           0       -5.191384   -1.931044    0.495443
      2          6           0       -4.658353    2.786958    1.576872
      3          6           0       -9.264236    3.315069   -0.061651
      4          6           0       -9.811216   -1.332831   -1.168872
      5          7           0       -5.162575    0.433874    0.971149
      6          6           0       -4.508626   -0.781273    0.864245
      7          6           0       -3.076007   -0.537895    1.381588
      8          6           0       -3.091021    0.836305    1.927030
      9          6           0       -4.447311    1.411655    1.477005
     10          6           0       -3.036164    0.877806    3.516220
     11          6           0       -2.056001   -0.736304    0.143903
     12          6           0       -0.613099   -0.723482    0.605923
     13          6           0        0.286365   -1.149946   -0.553266
     14          8           0       -0.065560   -1.539277   -1.570672
     15          8           0        1.593377   -0.893438   -0.219317
     16          7           0       -6.975234    2.689254    0.589084
     17          6           0       -5.879122    3.355943    1.032400
     18          6           0       -6.166053    4.709631    1.122969
     19          6           0       -7.456266    4.907417    0.656243
     20          6           0       -7.999368    3.631015    0.316567
     21          6           0       -5.297238    5.791131    1.697819
     22          6           0       -8.053021    6.200480    0.386107
     23          6           0       -8.757538    6.526221   -0.645176
     24          7           0       -9.080704    0.962431   -0.530122
     25          6           0       -9.818190    2.047728   -0.512106
     26          6           0      -11.214838    1.962327   -0.963527
     27          6           0      -11.349078    0.641862   -1.299857
     28          6           0      -10.042441   -0.016877   -1.017592
     29          6           0      -12.142823    3.096241   -1.276993
     30          6           0      -12.453718   -0.005603   -1.935139
     31          6           0      -12.503749   -0.157598   -3.570373
     32          7           0       -7.534296   -1.218643   -0.189600
     33          6           0       -8.620169   -1.980344   -0.700701
     34          6           0       -8.190962   -3.350036   -0.733445
     35          6           0       -6.846309   -3.392497   -0.203450
     36          6           0       -6.532578   -2.020232   -0.003033
     37          6           0       -9.050675   -4.549693   -1.032948
     38          6           0       -5.836918   -4.279467    0.097410
     39          8           0       -5.878024   -5.430791    0.042604
     40          6           0       -4.575677   -3.377839    0.460110
     41          6           0       -3.922087   -3.801489    1.731244
     42          8           0       -4.115102   -3.443493    2.859980
     43          8           0       -3.210779   -4.883447    1.492607
     44          6           0       -2.453850   -5.513516    2.581076
     45          6           0        2.638327   -1.047129   -1.179326
     46          6           0        3.932714   -0.769594   -0.561546
     47          6           0        4.927492   -0.012122   -1.056808
     48          6           0        4.769335    0.828747   -2.270100
     49          6           0        6.239924    0.073391   -0.276001
     50          6           0        7.483567   -0.539217   -1.021758
     51          6           0        8.759317   -0.398121   -0.159357
     52          6           0       10.016043   -0.955297   -0.707355
     53          6           0        9.981937   -2.474442   -0.995817
     54          6           0       11.241324   -0.502323    0.075801
     55          6           0       12.696747   -0.711828   -0.578935
     56          6           0       13.847009   -0.050572    0.206442
     57          6           0       15.252956   -0.197243   -0.356020
     58          6           0       15.723745   -1.650016   -0.429670
     59          6           0       16.248849    0.619125    0.415499
     60          6           0       17.593196    0.926001   -0.332135
     61          6           0       18.596755    1.755393    0.543573
     62          6           0       20.054430    1.846053    0.013849
     63          6           0       20.119095    2.441945   -1.440999
     64          6           0       20.914635    2.608656    0.999552
     65          1           0       -3.949547    3.278391    2.197506
     66          1           0       -9.838921    4.192957   -0.119633
     67          1           0      -10.445863   -2.166718   -1.642951
     68          1           0       -2.807842   -1.281071    2.205872
     69          1           0       -2.328102    1.520264    1.573610
     70          1           0       -2.075144    0.662572    3.826416
     71          1           0       -3.053564    1.816487    3.911275
     72          1           0       -3.809403    0.180197    3.874005
     73          1           0       -2.517569   -1.450048   -0.464732
     74          1           0       -2.291787    0.096922   -0.642699
     75          1           0       -0.165086    0.163548    1.070979
     76          1           0       -0.500137   -1.511548    1.480097
     77          1           0       -4.672888    6.028376    0.680656
     78          1           0       -5.849343    6.772059    2.039388
     79          1           0       -4.762391    5.407997    2.687936
     80          1           0       -7.912908    6.994744    1.056793
     81          1           0       -9.038367    5.806406   -1.397988
     82          1           0       -9.289148    7.420838   -0.647820
     83          1           0      -12.173424    3.774453   -0.366461
     84          1           0      -11.681483    3.809001   -2.184350
     85          1           0      -13.075507    2.794101   -1.512287
     86          1           0      -12.589985   -1.072436   -1.592537
     87          1           0      -13.494064    0.517339   -1.620460
     88          1           0      -12.486866    0.917501   -4.012552
     89          1           0      -11.460580   -0.656206   -3.859321
     90          1           0      -13.297028   -0.642592   -3.863752
     91          1           0      -10.020127   -4.422736   -0.444931
     92          1           0       -9.155164   -4.899747   -2.085012
     93          1           0       -8.650951   -5.709993   -0.589900
     94          1           0       -3.918186   -3.529231   -0.416874
     95          1           0       -1.763115   -6.358491    2.191742
     96          1           0       -1.862080   -4.858056    3.262996
     97          1           0       -3.353516   -6.035227    3.332742
     98          1           0        2.486759   -2.125158   -1.724053
     99          1           0        2.468371   -0.449555   -2.203731
    100          1           0        4.211140   -1.415568    0.340452
    101          1           0        5.001445    1.942909   -2.111776
    102          1           0        5.508141    0.654205   -3.199471
    103          1           0        3.794088    0.844959   -2.754303
    104          1           0        6.521289    0.965879    0.069426
    105          1           0        6.029966   -0.431776    0.812873
    106          1           0        7.511469   -1.575882   -1.423751
    107          1           0        7.598707    0.114261   -1.977920
    108          1           0        9.116931    0.677331   -0.016522
    109          1           0        8.699187   -0.698103    0.906836
    110          1           0       10.071046   -0.470665   -1.705653
    111          1           0        9.316402   -2.935189   -1.729789
    112          1           0       11.010864   -2.909363   -1.511732
    113          1           0       10.019506   -3.151283   -0.050660
    114          1           0       11.194080    0.608933    0.394951
    115          1           0       11.131170   -1.149689    1.048849
    116          1           0       12.753089   -1.783815   -0.781154
    117          1           0       12.606281   -0.162051   -1.584808
    118          1           0       13.530984    0.916779    0.583067
    119          1           0       13.906222   -0.588184    1.209291
    120          1           0       15.148291    0.268340   -1.309663
    121          1           0       14.984873   -2.080843   -1.204847
    122          1           0       16.876013   -1.590089   -0.756556
    123          1           0       15.868562   -2.227621    0.472178
    124          1           0       15.625835    1.660903    1.026763
    125          1           0       16.423717    0.092388    1.463042
    126          1           0       18.035139   -0.090436   -0.663979
    127          1           0       17.362105    1.417734   -1.314910
    128          1           0       18.250309    2.728831    0.627573
    129          1           0       18.513594    1.288389    1.610554
    130          1           0       20.260756    0.848875   -0.014072
    131          1           0       19.624283    3.362254   -1.402698
    132          1           0       21.195569    2.411767   -1.744035
    133          1           0       19.485838    1.776141   -2.098206
    134          1           0       21.285277    1.941965    2.032223
    135          1           0       21.842188    2.794727    0.552840
    136          1           0       20.260268    3.566167    1.441596
    137          1           0       -7.338605    1.634215    0.432982
    138          1           0       -7.668752   -0.294924   -0.079750
 ---------------------------------------------------------------------

 SCF Done:  E(RB3LYP) =  -2733.11276883     A.U. after   16 cycles

 Excitation energies and oscillator strengths:

 Excited State   1:      Singlet-A      2.1405 eV  579.24 nm  f=0.1715  <S**2>=0.000
     235 -> 237       -0.24113
     235 -> 238       -0.26547
     236 -> 237        0.58964
     236 -> 238       -0.15031
 This state for optimization and/or second-order correction.
 Total Energy, E(TD-HF/TD-KS) =  -2733.03410771
 Copying the excited state density for this state as the 1-particle RhoCI density.

 The electronic state is 1-A.
 Alpha  occ. eigenvalues --  -19.17009 -19.16510 -19.12886 -19.11223 -19.10925
 Alpha  occ. eigenvalues --  -14.36683 -14.36668 -14.31778 -14.30615 -10.30822
 Alpha  occ. eigenvalues --  -10.30350 -10.26472 -10.26120 -10.25779 -10.24247
 Alpha  occ. eigenvalues --  -10.23231 -10.23166 -10.23027 -10.22627 -10.22493
 Alpha  occ. eigenvalues --  -10.22424 -10.22011 -10.21663 -10.21629 -10.21240
 Alpha  occ. eigenvalues --  -10.21118 -10.20948 -10.20678 -10.20608 -10.20571
 Alpha  occ. eigenvalues --  -10.20543 -10.20401 -10.20214 -10.20175 -10.20036
 Alpha  occ. eigenvalues --  -10.20002 -10.19890 -10.19888 -10.19693 -10.19652
 Alpha  occ. eigenvalues --  -10.19635 -10.19627 -10.19582 -10.19547 -10.19451
 Alpha  occ. eigenvalues --  -10.19373 -10.19209 -10.19183 -10.19128 -10.19127
 Alpha  occ. eigenvalues --  -10.19103 -10.19098 -10.19072 -10.19052 -10.18504
 Alpha  occ. eigenvalues --  -10.18430 -10.18358 -10.18170 -10.18169 -10.18106
 Alpha  occ. eigenvalues --  -10.18021 -10.18008 -10.17646 -10.16990  -1.10368
 Alpha  occ. eigenvalues --   -1.09446  -1.05486  -1.02305  -0.99480  -0.99318
 Alpha  occ. eigenvalues --   -0.97519  -0.94005  -0.93435  -0.84456  -0.82532
 Alpha  occ. eigenvalues --   -0.82422  -0.81844  -0.81476  -0.81120  -0.80155
 Alpha  occ. eigenvalues --   -0.80076  -0.79970  -0.79792  -0.79031  -0.77195
 Alpha  occ. eigenvalues --   -0.76685  -0.75966  -0.75375  -0.74694  -0.74105
 Alpha  occ. eigenvalues --   -0.73355  -0.72609  -0.72035  -0.71236  -0.70091
 Alpha  occ. eigenvalues --   -0.69499  -0.69348  -0.68459  -0.67797  -0.67571
 Alpha  occ. eigenvalues --   -0.67036  -0.66617  -0.66229  -0.65809  -0.65254
 Alpha  occ. eigenvalues --   -0.64366  -0.63790  -0.62985  -0.62569  -0.61641
 Alpha  occ. eigenvalues --   -0.60953  -0.59154  -0.58301  -0.57909  -0.56681
 Alpha  occ. eigenvalues --   -0.56307  -0.55852  -0.55768  -0.55726  -0.55593
 Alpha  occ. eigenvalues --   -0.55451  -0.54667  -0.54538  -0.53434  -0.53101
 Alpha  occ. eigenvalues --   -0.52873  -0.52051  -0.51380  -0.50993  -0.50523
 Alpha  occ. eigenvalues --   -0.50156  -0.48970  -0.48810  -0.48641  -0.48106
 Alpha  occ. eigenvalues --   -0.47804  -0.47635  -0.46952  -0.46889  -0.46772
 Alpha  occ. eigenvalues --   -0.46496  -0.46201  -0.45972  -0.45693  -0.45499
 Alpha  occ. eigenvalues --   -0.45443  -0.45018  -0.44661  -0.44510  -0.44024
 Alpha  occ. eigenvalues --   -0.44004  -0.43806  -0.43566  -0.43350  -0.43329
 Alpha  occ. eigenvalues --   -0.43109  -0.43055  -0.42761  -0.42446  -0.42385
 Alpha  occ. eigenvalues --   -0.42106  -0.41815  -0.41644  -0.41477  -0.41325
 Alpha  occ. eigenvalues --   -0.41302  -0.41187  -0.40990  -0.40931  -0.40893
 Alpha  occ. eigenvalues --   -0.40681  -0.40161  -0.39995  -0.39726  -0.39509
 Alpha  occ. eigenvalues --   -0.39273  -0.38863  -0.38791  -0.38635  -0.38437
 Alpha  occ. eigenvalues --   -0.38409  -0.38225  -0.38016  -0.37590  -0.37492
 Alpha  occ. eigenvalues --   -0.37279  -0.37232  -0.36831  -0.36749  -0.36493
 Alpha  occ. eigenvalues --   -0.36381  -0.36112  -0.35970  -0.35603  -0.35538
 Alpha  occ. eigenvalues --   -0.35461  -0.35300  -0.34908  -0.34617  -0.34479
 Alpha  occ. eigenvalues --   -0.34326  -0.34252  -0.33936  -0.33896  -0.33446
 Alpha  occ. eigenvalues --   -0.33438  -0.33080  -0.32972  -0.32810  -0.32323
 Alpha  occ. eigenvalues --   -0.31882  -0.31861  -0.31329  -0.31224  -0.31177
 Alpha  occ. eigenvalues --   -0.30961  -0.30828  -0.30416  -0.30298  -0.29734
 Alpha  occ. eigenvalues --   -0.29223  -0.29124  -0.28897  -0.28643  -0.28555
 Alpha  occ. eigenvalues --   -0.28003  -0.27122  -0.26272  -0.25888  -0.24779
 Alpha  occ. eigenvalues --   -0.24406  -0.24327  -0.24192  -0.23452  -0.19928
 Alpha  occ. eigenvalues --   -0.18990
 Alpha virt. eigenvalues --   -0.10232  -0.07413  -0.03590  -0.00784  -0.00771
 Alpha virt. eigenvalues --    0.00475   0.01261   0.01582   0.02724   0.03725
 Alpha virt. eigenvalues --    0.03915   0.04176   0.04305   0.04676   0.04728

 Mulliken charges:
               1
     1  C    0.004453
     2  C   -0.083040
     3  C   -0.060223
     4  C   -0.103350
     5  N   -0.167706
     6  C   -0.101912
     7  C   -0.030234
     8  C   -0.052139
     9  C   -0.023693
    10  C    0.128271
    11  C    0.071474
    12  C    0.042209
    13  C    0.154324
    14  O   -0.150797
    15  O   -0.329788
    16  N   -0.140136
    17  C    0.174694
    18  C   -0.128511
    19  C    0.091408
    20  C    0.054966
    21  C    0.002138
    22  C   -0.054951
    23  C    0.010142
    24  N   -0.272892
    25  C    0.080380
    26  C   -0.148222
    27  C   -0.005908
    28  C    0.166043
    29  C    0.108436
    30  C   -0.055940
    31  C    0.018797
    32  N    0.091253
    33  C   -0.027460
    34  C   -0.073614
    35  C   -0.000225
    36  C    0.095049
    37  C   -0.044279
    38  C   -0.015601
    39  O   -0.098781
    40  C   -0.055952
    41  C    0.184886
    42  O   -0.223249
    43  O   -0.283821
    44  C    0.107185
    45  C    0.178252
    46  C   -0.056986
    47  C   -0.076248
    48  C    0.017721
    49  C    0.098820
    50  C    0.023132
    51  C    0.012193
    52  C   -0.012970
    53  C   -0.042762
    54  C   -0.058522
    55  C    0.032435
    56  C    0.029241
    57  C    0.022708
    58  C    0.010475
    59  C   -0.104778
    60  C    0.012591
    61  C    0.025640
    62  C   -0.054119
    63  C    0.033413
    64  C   -0.006800
    65  H   -0.034292
    66  H   -0.065356
    67  H    0.014193
    68  H    0.027353
    69  H   -0.021180
    70  H   -0.023756
    71  H   -0.036337
    72  H    0.041555
    73  H   -0.015362
    74  H   -0.000086
    75  H    0.034309
    76  H    0.041070
    77  H    0.067290
    78  H    0.041871
    79  H    0.059000
    80  H   -0.025221
    81  H    0.014361
    82  H    0.000372
    83  H    0.030253
    84  H    0.046265
    85  H   -0.018650
    86  H    0.009670
    87  H    0.019020
    88  H    0.024441
    89  H    0.034154
    90  H   -0.006827
    91  H    0.046777
    92  H    0.043852
    93  H    0.057436
    94  H    0.060629
    95  H    0.058738
    96  H    0.047692
    97  H    0.054552
    98  H    0.033692
    99  H    0.020918
   100  H    0.010064
   101  H    0.020458
   102  H    0.033206
   103  H    0.003687
   104  H   -0.034655
   105  H    0.003532
   106  H    0.007885
   107  H    0.006344
   108  H   -0.013791
   109  H   -0.015937
   110  H   -0.022858
   111  H    0.020746
   112  H    0.004449
   113  H    0.014341
   114  H    0.009435
   115  H    0.004469
   116  H    0.009937
   117  H   -0.003112
   118  H   -0.016172
   119  H   -0.023329
   120  H   -0.024392
   121  H    0.034204
   122  H    0.008415
   123  H    0.009306
   124  H   -0.004232
   125  H    0.002722
   126  H    0.010379
   127  H    0.008010
   128  H   -0.026070
   129  H    0.008628
   130  H   -0.033744
   131  H   -0.001051
   132  H    0.025402
   133  H    0.015911
   134  H    0.017289
   135  H   -0.002385
   136  H    0.033305
   137  H    0.217318
   138  H    0.062770
 Sum of Mulliken charges =   0.00000

 Dipole moment (field-independent basis, Debye):
    X=              1.2487    Y=              4.9848    Z=             -0.7575  Tot=              5.1943
 Quadrupole moment (field-independent basis, Debye-Ang):
   XX=           -334.2499   YY=           -383.1114   ZZ=           -394.2858
   XY=            -34.0555   XZ=              8.9536   YZ=              3.7232

 Normal termination of Gaussian 09 at Fri Jul 26 15:36:11 2019.
