 Gaussian 09, Revision D.01,
 Gaussian 09:  ES64L-G09RevD.01 24-Apr-2013

 --------------------------
 # td=(NStates=1) B3LYP/SVP
 --------------------------

 --
 TD
 --
 Symbolic Z-matrix:
 Charge =  0 Multiplicity = 1

                         Standard orientation:
 ---------------------------------------------------------------------
 Center     Atomic      Atomic             Coordinates (Angstroms)
 Number     Number       Type             X           Y           Z
 ---------------------------------------------------------------------
      1          6           0       -5.070147   -1.919567    0.459436
      2          6           0       -4.854666    2.771420    1.394870
      3          6           0       -9.465323    3.222965   -0.264370
      4          6           0       -9.778754   -1.557213   -1.039551
      5          7           0       -5.261688    0.384015    0.983306
      6          6           0       -4.482175   -0.694329    0.839404
      7          6           0       -2.986886   -0.458774    1.287085
      8          6           0       -3.124269    0.963203    1.810299
      9          6           0       -4.476255    1.456542    1.303521
     10          6           0       -3.019743    1.039308    3.361498
     11          6           0       -2.010304   -0.707563    0.192556
     12          6           0       -0.566997   -0.701071    0.605077
     13          6           0        0.341432   -0.752933   -0.672214
     14          8           0        0.092771   -1.101347   -1.832667
     15          8           0        1.562725   -0.512400   -0.317050
     16          7           0       -7.163687    2.741911    0.482277
     17          6           0       -6.095641    3.407479    0.971720
     18          6           0       -6.414898    4.781065    0.983732
     19          6           0       -7.655759    4.998086    0.480418
     20          6           0       -8.211371    3.592124    0.227738
     21          6           0       -5.520244    5.888422    1.434623
     22          6           0       -8.438248    6.279874    0.332618
     23          6           0       -9.300055    6.546760   -0.709978
     24          7           0       -9.219281    0.760838   -0.436985
     25          6           0       -9.963550    1.920478   -0.490892
     26          6           0      -11.360554    1.565678   -0.949899
     27          6           0      -11.438437    0.299869   -1.224405
     28          6           0      -10.136339   -0.144358   -0.865708
     29          6           0      -12.331786    2.708089   -1.153870
     30          6           0      -12.553980   -0.428806   -1.737992
     31          6           0      -12.460725   -0.895084   -3.222707
     32          7           0       -7.393509   -1.334002   -0.255627
     33          6           0       -8.449369   -2.084332   -0.720523
     34          6           0       -8.072840   -3.458323   -0.631618
     35          6           0       -6.682190   -3.438358   -0.317418
     36          6           0       -6.381143   -2.191675    0.038616
     37          6           0       -8.918478   -4.690973   -0.991905
     38          6           0       -5.468540   -4.328946   -0.019275
     39          8           0       -5.402484   -5.536488   -0.049890
     40          6           0       -4.418502   -3.300136    0.467150
     41          6           0       -3.914110   -3.766643    1.853177
     42          8           0       -4.229971   -3.257723    2.888573
     43          8           0       -2.804054   -4.676292    1.686738
     44          6           0       -2.401967   -5.264345    2.949375
     45          6           0        2.680293   -0.920180   -1.152387
     46          6           0        3.937490   -0.689498   -0.497472
     47          6           0        4.963813    0.132219   -0.970894
     48          6           0        4.957390    1.016586   -2.142019
     49          6           0        6.174064    0.253881   -0.112012
     50          6           0        7.451190   -0.277314   -0.767410
     51          6           0        8.801826   -0.153572    0.019038
     52          6           0       10.089107   -0.607741   -0.719439
     53          6           0       10.069068   -2.102516   -1.120929
     54          6           0       11.364942   -0.217294    0.112400
     55          6           0       12.678012   -0.421619   -0.699730
     56          6           0       13.796346   -0.158378    0.251466
     57          6           0       15.212979   -0.187390   -0.471996
     58          6           0       15.634032   -1.722167   -0.891127
     59          6           0       16.246777    0.557959    0.350478
     60          6           0       17.690611    0.667607   -0.140795
     61          6           0       18.587480    1.548204    0.613490
     62          6           0       20.077283    1.457088    0.095328
     63          6           0       20.157535    2.086205   -1.290493
     64          6           0       20.997689    2.226945    1.201349
     65          1           0       -4.038663    3.484777    1.718873
     66          1           0      -10.099548    3.987113   -0.298671
     67          1           0      -10.449892   -2.300835   -1.474361
     68          1           0       -2.828457   -1.123682    1.947473
     69          1           0       -2.445376    1.671336    1.298209
     70          1           0       -2.002520    0.666349    3.786106
     71          1           0       -3.153320    2.054607    3.477749
     72          1           0       -3.864644    0.392801    3.916541
     73          1           0       -2.249559   -1.619533   -0.451486
     74          1           0       -2.033484    0.407867   -0.432683
     75          1           0       -0.465319    0.492615    1.071900
     76          1           0       -0.344625   -1.434925    1.363407
     77          1           0       -4.656011    5.944984    0.717632
     78          1           0       -6.176251    6.827600    1.162528
     79          1           0       -5.066211    5.863562    2.524357
     80          1           0       -8.184792    6.984994    1.124557
     81          1           0       -9.448883    5.705536   -1.472230
     82          1           0       -9.701491    7.572201   -0.684744
     83          1           0      -12.489143    3.426627   -0.311987
     84          1           0      -12.071546    3.262051   -2.036737
     85          1           0      -13.309385    2.534328   -1.444830
     86          1           0      -12.650520   -1.331351   -1.089397
     87          1           0      -13.527268   -0.038987   -1.902226
     88          1           0      -12.304848   -0.180513   -4.090779
     89          1           0      -11.667116   -1.549613   -3.399574
     90          1           0      -13.281931   -1.620876   -3.458364
     91          1           0       -9.715638   -4.677190   -0.205262
     92          1           0       -9.260878   -4.590231   -1.961325
     93          1           0       -8.111135   -5.646827   -0.808560
     94          1           0       -3.631669   -3.492413   -0.346477
     95          1           0       -1.474256   -6.082390    2.791008
     96          1           0       -1.884592   -4.403362    3.654783
     97          1           0       -3.214934   -5.604366    3.550733
     98          1           0        2.550766   -1.982497   -1.342065
     99          1           0        2.623110   -0.428650   -2.184681
    100          1           0        4.152522   -1.388443    0.374829
    101          1           0        5.418686    2.109098   -1.986933
    102          1           0        5.677979    0.484515   -2.764924
    103          1           0        3.894066    1.256269   -2.601996
    104          1           0        6.137236    1.382850    0.173452
    105          1           0        5.983217   -0.344340    0.812548
    106          1           0        7.425557   -1.281343   -1.203207
    107          1           0        7.756071    0.413366   -1.788067
    108          1           0        8.949927    0.958811    0.262688
    109          1           0        8.839520   -0.927144    0.839033
    110          1           0       10.326270    0.138854   -1.625187
    111          1           0        9.056077   -2.171911   -1.588114
    112          1           0       10.881224   -2.246577   -2.143743
    113          1           0       10.116589   -2.879713   -0.322990
    114          1           0       11.259495    0.722046    0.652567
    115          1           0       11.223997   -0.864862    1.096423
    116          1           0       12.758318   -1.409925   -1.197267
    117          1           0       12.699506    0.370855   -1.429779
    118          1           0       13.820471    0.985340    0.948035
    119          1           0       13.828846   -0.774904    1.145469
    120          1           0       15.205459    0.545827   -1.395332
    121          1           0       14.993718   -2.401604   -1.659108
    122          1           0       16.590626   -1.658128   -1.435644
    123          1           0       15.698205   -2.227125    0.184719
    124          1           0       15.863920    1.680875    0.510709
    125          1           0       16.206370    0.157450    1.400303
    126          1           0       18.079672   -0.357798   -0.309891
    127          1           0       17.699263    0.985510   -1.351849
    128          1           0       18.156042    2.661550    0.671806
    129          1           0       18.591629    1.237946    1.688768
    130          1           0       20.170404    0.272506    0.059706
    131          1           0       19.749665    2.971266   -1.476021
    132          1           0       21.353664    2.264340   -1.503161
    133          1           0       19.717883    1.481118   -2.300465
    134          1           0       20.816468    1.690804    2.202456
    135          1           0       22.206406    2.209035    0.944952
    136          1           0       20.701411    3.219732    1.136782
    137          1           0       -7.284612    1.823952    0.204610
    138          1           0       -7.487173   -0.338305   -0.236609
 ---------------------------------------------------------------------

 SCF Done:  E(RB3LYP) =  -2733.06456976     A.U. after   17 cycles

 Excitation energies and oscillator strengths:

 Excited State   1:      Singlet-A      2.0366 eV  608.77 nm  f=0.1766  <S**2>=0.000
     235 -> 237       -0.21477
     235 -> 238       -0.28507
     236 -> 237        0.59365
     236 -> 238       -0.13826
 This state for optimization and/or second-order correction.
 Total Energy, E(TD-HF/TD-KS) =  -2732.98972432
 Copying the excited state density for this state as the 1-particle RhoCI density.

 The electronic state is 1-A.
 Alpha  occ. eigenvalues --  -19.17578 -19.16998 -19.14373 -19.12920 -19.11214
 Alpha  occ. eigenvalues --  -14.37127 -14.35704 -14.31705 -14.30821 -10.32658
 Alpha  occ. eigenvalues --  -10.31066 -10.28570 -10.25966 -10.24427 -10.24242
 Alpha  occ. eigenvalues --  -10.23845 -10.22922 -10.22802 -10.22295 -10.22143
 Alpha  occ. eigenvalues --  -10.22094 -10.21891 -10.21672 -10.21666 -10.21630
 Alpha  occ. eigenvalues --  -10.21252 -10.21171 -10.21012 -10.20938 -10.20936
 Alpha  occ. eigenvalues --  -10.20924 -10.20870 -10.20832 -10.20820 -10.20595
 Alpha  occ. eigenvalues --  -10.20558 -10.20305 -10.20301 -10.20293 -10.20292
 Alpha  occ. eigenvalues --  -10.20103 -10.20047 -10.19956 -10.19937 -10.19917
 Alpha  occ. eigenvalues --  -10.19881 -10.19764 -10.19703 -10.19546 -10.19308
 Alpha  occ. eigenvalues --  -10.19236 -10.19210 -10.19135 -10.19021 -10.18991
 Alpha  occ. eigenvalues --  -10.18916 -10.18656 -10.18590 -10.18589 -10.18338
 Alpha  occ. eigenvalues --  -10.18262 -10.18079 -10.18028 -10.17536  -1.09895
 Alpha  occ. eigenvalues --   -1.08094  -1.03341  -1.00778  -0.99174  -0.98421
 Alpha  occ. eigenvalues --   -0.98302  -0.94331  -0.94042  -0.85036  -0.83174
 Alpha  occ. eigenvalues --   -0.82405  -0.81657  -0.81497  -0.81347  -0.80578
 Alpha  occ. eigenvalues --   -0.80364  -0.79455  -0.78823  -0.78294  -0.77572
 Alpha  occ. eigenvalues --   -0.76718  -0.75745  -0.75370  -0.75058  -0.74682
 Alpha  occ. eigenvalues --   -0.72966  -0.72430  -0.71821  -0.71262  -0.70414
 Alpha  occ. eigenvalues --   -0.70013  -0.70012  -0.68210  -0.67740  -0.67392
 Alpha  occ. eigenvalues --   -0.66940  -0.66143  -0.65913  -0.65901  -0.64859
 Alpha  occ. eigenvalues --   -0.63941  -0.62866  -0.62522  -0.61623  -0.61364
 Alpha  occ. eigenvalues --   -0.60268  -0.58769  -0.58040  -0.57765  -0.57246
 Alpha  occ. eigenvalues --   -0.56924  -0.56496  -0.55680  -0.55482  -0.55241
 Alpha  occ. eigenvalues --   -0.54466  -0.54262  -0.54106  -0.53381  -0.53197
 Alpha  occ. eigenvalues --   -0.52590  -0.52023  -0.51823  -0.50978  -0.50231
 Alpha  occ. eigenvalues --   -0.50026  -0.49655  -0.48748  -0.48585  -0.47900
 Alpha  occ. eigenvalues --   -0.47540  -0.47172  -0.47117  -0.46943  -0.46822
 Alpha  occ. eigenvalues --   -0.46564  -0.46282  -0.45861  -0.45698  -0.45298
 Alpha  occ. eigenvalues --   -0.45074  -0.44952  -0.44828  -0.44604  -0.44539
 Alpha  occ. eigenvalues --   -0.44280  -0.44163  -0.44075  -0.43791  -0.43667
 Alpha  occ. eigenvalues --   -0.43448  -0.43301  -0.43069  -0.42653  -0.42386
 Alpha  occ. eigenvalues --   -0.42244  -0.42185  -0.41980  -0.41810  -0.41536
 Alpha  occ. eigenvalues --   -0.41188  -0.41024  -0.40411  -0.40364  -0.40117
 Alpha  occ. eigenvalues --   -0.39784  -0.39687  -0.39548  -0.39516  -0.39298
 Alpha  occ. eigenvalues --   -0.39031  -0.38875  -0.38703  -0.38367  -0.38181
 Alpha  occ. eigenvalues --   -0.38114  -0.38049  -0.37938  -0.37638  -0.37475
 Alpha  occ. eigenvalues --   -0.37231  -0.36852  -0.36816  -0.36615  -0.36440
 Alpha  occ. eigenvalues --   -0.36379  -0.36336  -0.36010  -0.35933  -0.35790
 Alpha  occ. eigenvalues --   -0.35733  -0.35596  -0.35485  -0.35210  -0.35064
 Alpha  occ. eigenvalues --   -0.34842  -0.34748  -0.34645  -0.34328  -0.33585
 Alpha  occ. eigenvalues --   -0.33100  -0.32927  -0.32291  -0.32171  -0.31864
 Alpha  occ. eigenvalues --   -0.31765  -0.31515  -0.31470  -0.31415  -0.31262
 Alpha  occ. eigenvalues --   -0.30405  -0.30343  -0.29952  -0.29678  -0.29517
 Alpha  occ. eigenvalues --   -0.29393  -0.29144  -0.28937  -0.28209  -0.28038
 Alpha  occ. eigenvalues --   -0.27994  -0.27159  -0.26640  -0.26170  -0.25742
 Alpha  occ. eigenvalues --   -0.25018  -0.24796  -0.24424  -0.23991  -0.19606
 Alpha  occ. eigenvalues --   -0.18725
 Alpha virt. eigenvalues --   -0.10289  -0.07429  -0.03808  -0.02401  -0.01572
 Alpha virt. eigenvalues --   -0.01353   0.00283   0.00548   0.02340   0.02907
 Alpha virt. eigenvalues --    0.02963   0.03587   0.04133   0.04324   0.04339

 Mulliken charges:
               1
     1  C    0.068780
     2  C   -0.077680
     3  C    0.000533
     4  C   -0.083402
     5  N   -0.169340
     6  C   -0.135704
     7  C    0.208872
     8  C   -0.064968
     9  C   -0.002973
    10  C    0.070324
    11  C   -0.049352
    12  C   -0.033262
    13  C    0.195508
    14  O   -0.266726
    15  O   -0.272929
    16  N    0.013640
    17  C    0.099160
    18  C   -0.132418
    19  C    0.002474
    20  C    0.021751
    21  C    0.039809
    22  C   -0.062983
    23  C   -0.018924
    24  N   -0.239974
    25  C    0.050456
    26  C   -0.107115
    27  C   -0.035313
    28  C    0.080226
    29  C    0.133456
    30  C    0.080004
    31  C   -0.012763
    32  N   -0.003241
    33  C    0.040180
    34  C   -0.197949
    35  C   -0.040212
    36  C    0.079413
    37  C    0.071075
    38  C    0.066455
    39  O   -0.155224
    40  C   -0.071938
    41  C    0.244201
    42  O   -0.184827
    43  O   -0.353151
    44  C    0.127761
    45  C    0.275041
    46  C   -0.107881
    47  C   -0.154558
    48  C    0.025884
    49  C    0.108593
    50  C   -0.058773
    51  C    0.025540
    52  C   -0.119892
    53  C   -0.011011
    54  C   -0.013318
    55  C    0.152052
    56  C   -0.062651
    57  C   -0.067412
    58  C   -0.048672
    59  C   -0.005060
    60  C   -0.005058
    61  C    0.007531
    62  C   -0.107556
    63  C   -0.000163
    64  C    0.008759
    65  H   -0.009869
    66  H   -0.085347
    67  H   -0.018869
    68  H   -0.097845
    69  H   -0.011122
    70  H    0.030706
    71  H   -0.015715
    72  H    0.051077
    73  H    0.043264
    74  H    0.017486
    75  H    0.052440
    76  H    0.035731
    77  H    0.030335
    78  H    0.020211
    79  H    0.054509
    80  H    0.018586
    81  H    0.059155
    82  H    0.037827
    83  H    0.023633
    84  H    0.001311
    85  H   -0.035412
    86  H    0.007635
    87  H   -0.003494
    88  H    0.025446
    89  H   -0.027502
    90  H    0.003374
    91  H    0.040154
    92  H    0.026868
    93  H    0.075772
    94  H    0.081458
    95  H    0.064193
    96  H    0.026807
    97  H    0.035025
    98  H    0.007798
    99  H    0.023993
   100  H    0.004937
   101  H    0.034820
   102  H    0.037303
   103  H    0.049719
   104  H    0.028456
   105  H   -0.000688
   106  H    0.009522
   107  H    0.004715
   108  H    0.015553
   109  H    0.001795
   110  H   -0.002028
   111  H    0.006230
   112  H    0.038578
   113  H    0.033863
   114  H   -0.017884
   115  H   -0.024130
   116  H    0.014565
   117  H   -0.007006
   118  H   -0.001490
   119  H   -0.008512
   120  H    0.003255
   121  H    0.039356
   122  H    0.024970
   123  H    0.033034
   124  H    0.008716
   125  H   -0.012045
   126  H   -0.005328
   127  H   -0.005364
   128  H    0.006473
   129  H   -0.008990
   130  H    0.020315
   131  H   -0.020269
   132  H    0.014811
   133  H    0.030702
   134  H    0.034547
   135  H    0.029620
   136  H    0.007909
   137  H    0.106432
   138  H    0.120811
 Sum of Mulliken charges =   0.00000

 Dipole moment (field-independent basis, Debye):
    X=              1.8744    Y=              4.5418    Z=              0.4343  Tot=              4.9326
 Quadrupole moment (field-independent basis, Debye-Ang):
   XX=           -345.2008   YY=           -381.6387   ZZ=           -396.8486
   XY=            -26.7800   XZ=             16.0439   YZ=             -3.0780

 Normal termination of Gaussian 09 at Mon Aug  5 01:46:20 2019.
