 Gaussian 09, Revision D.01,
 Gaussian 09:  ES64L-G09RevD.01 24-Apr-2013

 --------------------------
 # td=(NStates=1) B3LYP/SVP
 --------------------------

 --
 TD
 --
 Symbolic Z-matrix:
 Charge =  0 Multiplicity = 1

                         Standard orientation:
 ---------------------------------------------------------------------
 Center     Atomic      Atomic             Coordinates (Angstroms)
 Number     Number       Type             X           Y           Z
 ---------------------------------------------------------------------
      1          6           0       -5.096127   -1.998241    0.523554
      2          6           0       -4.815515    2.744622    1.562516
      3          6           0       -9.445378    3.296242   -0.209964
      4          6           0       -9.771329   -1.514808   -1.018197
      5          7           0       -5.202675    0.449897    0.878552
      6          6           0       -4.498585   -0.799220    0.862448
      7          6           0       -2.949805   -0.515350    1.246992
      8          6           0       -3.077320    0.885914    2.002821
      9          6           0       -4.413514    1.344513    1.344900
     10          6           0       -3.295762    0.667796    3.516464
     11          6           0       -2.078029   -0.695025    0.123936
     12          6           0       -0.597373   -0.702241    0.473396
     13          6           0        0.359447   -1.082939   -0.607056
     14          8           0        0.142300   -1.429995   -1.721826
     15          8           0        1.619299   -0.595326   -0.300555
     16          7           0       -7.108293    2.728365    0.536628
     17          6           0       -6.021652    3.346921    1.221211
     18          6           0       -6.336178    4.771758    1.182033
     19          6           0       -7.540297    4.999042    0.589510
     20          6           0       -8.114356    3.597115    0.142159
     21          6           0       -5.499111    5.842961    1.755781
     22          6           0       -8.207783    6.219554    0.362248
     23          6           0       -8.980013    6.581334   -0.681345
     24          7           0       -9.213827    0.888984   -0.601536
     25          6           0       -9.966240    1.994896   -0.564327
     26          6           0      -11.298909    1.859980   -0.922898
     27          6           0      -11.441475    0.512121   -1.216177
     28          6           0      -10.060175   -0.088114   -1.039285
     29          6           0      -12.286329    2.865461   -1.092882
     30          6           0      -12.590845   -0.302821   -1.753200
     31          6           0      -12.445936   -0.641186   -3.143558
     32          7           0       -7.439825   -1.280248   -0.139268
     33          6           0       -8.574096   -2.060866   -0.718094
     34          6           0       -8.079510   -3.438263   -0.741289
     35          6           0       -6.794113   -3.443524   -0.354947
     36          6           0       -6.383425   -2.080749    0.026220
     37          6           0       -8.883149   -4.633036   -1.113657
     38          6           0       -5.662030   -4.368332    0.010208
     39          8           0       -5.502188   -5.563893   -0.157952
     40          6           0       -4.496364   -3.327961    0.479641
     41          6           0       -3.922029   -3.880667    1.751876
     42          8           0       -4.291715   -3.555617    2.935870
     43          8           0       -3.087113   -4.823170    1.482641
     44          6           0       -2.547740   -5.576459    2.594361
     45          6           0        2.736307   -0.787251   -1.083507
     46          6           0        4.073940   -0.327942   -0.593729
     47          6           0        4.948400    0.360014   -1.301948
     48          6           0        4.963036    0.912924   -2.679968
     49          6           0        6.270557    0.697834   -0.525739
     50          6           0        7.453461   -0.122956   -1.024550
     51          6           0        8.776861   -0.017546   -0.128761
     52          6           0       10.032886   -0.605232   -0.702395
     53          6           0        9.971843   -2.180234   -0.651546
     54          6           0       11.262522   -0.009547    0.060938
     55          6           0       12.636374   -0.669365   -0.390611
     56          6           0       13.776842    0.026425    0.262805
     57          6           0       15.285559   -0.285200   -0.249703
     58          6           0       15.557536   -1.777172   -0.284446
     59          6           0       16.345423    0.560647    0.502017
     60          6           0       17.686688    0.522057   -0.180166
     61          6           0       18.582727    1.591567    0.455640
     62          6           0       20.048605    1.551903    0.085264
     63          6           0       20.274403    1.874805   -1.434324
     64          6           0       21.016771    2.268898    0.973751
     65          1           0       -4.069496    3.229113    1.818512
     66          1           0      -10.252043    4.007993   -0.479270
     67          1           0      -10.588639   -2.129120   -1.226156
     68          1           0       -2.471299   -1.308660    2.084152
     69          1           0       -2.248868    1.611707    2.033879
     70          1           0       -2.333726    0.437032    4.054387
     71          1           0       -3.470585    1.694657    4.077086
     72          1           0       -4.182743    0.098032    3.808441
     73          1           0       -2.141743   -1.721141   -0.550309
     74          1           0       -2.045518   -0.110059   -0.776751
     75          1           0       -0.518055    0.496571    0.614460
     76          1           0       -0.395748   -1.185922    1.456472
     77          1           0       -4.581930    5.867275    1.024432
     78          1           0       -6.049461    6.909747    1.687823
     79          1           0       -5.107219    5.743939    2.628993
     80          1           0       -7.702019    7.002259    0.878142
     81          1           0       -9.185748    5.898106   -1.406567
     82          1           0       -9.360192    7.532704   -0.753388
     83          1           0      -12.428233    3.535680   -0.220931
     84          1           0      -11.926521    3.486636   -1.716393
     85          1           0      -13.271786    2.566524   -1.367910
     86          1           0      -12.840438   -1.102755   -0.984853
     87          1           0      -13.549928    0.272274   -1.357541
     88          1           0      -12.314155    0.366871   -3.554807
     89          1           0      -11.622997   -1.070303   -3.490802
     90          1           0      -13.458921   -1.032122   -3.923649
     91          1           0       -9.571112   -4.617784   -0.273187
     92          1           0       -9.401879   -4.350643   -2.042155
     93          1           0       -8.351849   -5.675205   -1.283865
     94          1           0       -3.852845   -3.574380   -0.406433
     95          1           0       -1.909726   -6.235943    2.153008
     96          1           0       -1.881011   -4.850457    3.115273
     97          1           0       -3.239834   -6.150069    3.149210
     98          1           0        2.772966   -1.898264   -1.510325
     99          1           0        2.691015   -0.282092   -2.176634
    100          1           0        4.192841   -0.563019    0.483656
    101          1           0        5.191493    1.981167   -2.677512
    102          1           0        5.748319    0.464286   -3.261463
    103          1           0        3.844112    0.681742   -3.340707
    104          1           0        6.464353    1.847418   -0.373883
    105          1           0        6.223613    0.294449    0.395828
    106          1           0        7.090838   -1.321899   -1.228627
    107          1           0        7.775498    0.154984   -1.968543
    108          1           0        9.042912    1.053886    0.119876
    109          1           0        8.534891   -0.431207    0.820717
    110          1           0       10.220047   -0.347422   -1.649219
    111          1           0        9.194646   -2.540980   -1.224237
    112          1           0       10.791058   -2.885223   -0.881149
    113          1           0        9.745568   -2.419346    0.327059
    114          1           0       11.300679    1.133384   -0.039138
    115          1           0       11.270307   -0.222506    1.223226
    116          1           0       12.637948   -1.810572    0.027168
    117          1           0       12.874869   -0.564182   -1.633287
    118          1           0       13.747996    1.270542    0.233562
    119          1           0       13.884509   -0.250522    1.376545
    120          1           0       15.316417    0.381663   -1.193963
    121          1           0       14.963236   -2.278250   -1.154142
    122          1           0       16.805195   -1.775599   -0.399569
    123          1           0       15.436643   -2.368205    0.612810
    124          1           0       15.902869    1.644983    0.467257
    125          1           0       16.509981    0.411512    1.553836
    126          1           0       18.189335   -0.476702   -0.078657
    127          1           0       17.533956    0.622650   -1.278553
    128          1           0       18.197188    2.589240    0.391294
    129          1           0       18.589683    1.435147    1.554735
    130          1           0       20.153975    0.465646    0.231345
    131          1           0       19.801715    2.985241   -1.681796
    132          1           0       21.413099    1.857807   -1.974030
    133          1           0       19.624880    1.205715   -2.073773
    134          1           0       21.070930    1.744506    1.993796
    135          1           0       22.138264    2.116027    0.924145
    136          1           0       20.622624    3.420965    1.187466
    137          1           0       -7.218563    1.778299    0.224299
    138          1           0       -7.596167   -0.303157    0.028703
 ---------------------------------------------------------------------

 SCF Done:  E(RB3LYP) =  -2732.99559749     A.U. after   17 cycles

 Excitation energies and oscillator strengths:

 Excited State   1:      Singlet-A      2.0719 eV  598.41 nm  f=0.1207  <S**2>=0.000
     235 -> 237       -0.15641
     235 -> 238       -0.27234
     236 -> 237        0.57999
     236 -> 238       -0.24943
 This state for optimization and/or second-order correction.
 Total Energy, E(TD-HF/TD-KS) =  -2732.91945670
 Copying the excited state density for this state as the 1-particle RhoCI density.

 The electronic state is 1-A.
 Alpha  occ. eigenvalues --  -19.18721 -19.16962 -19.13558 -19.13247 -19.10652
 Alpha  occ. eigenvalues --  -14.37412 -14.36802 -14.32856 -14.29521 -10.32348
 Alpha  occ. eigenvalues --  -10.31198 -10.28972 -10.25188 -10.24914 -10.24366
 Alpha  occ. eigenvalues --  -10.24298 -10.24159 -10.23997 -10.23681 -10.23522
 Alpha  occ. eigenvalues --  -10.22741 -10.21804 -10.21703 -10.21617 -10.21326
 Alpha  occ. eigenvalues --  -10.21170 -10.20964 -10.20860 -10.20557 -10.20393
 Alpha  occ. eigenvalues --  -10.20376 -10.20364 -10.20270 -10.20244 -10.20237
 Alpha  occ. eigenvalues --  -10.20207 -10.20189 -10.20095 -10.19955 -10.19952
 Alpha  occ. eigenvalues --  -10.19891 -10.19868 -10.19679 -10.19651 -10.19569
 Alpha  occ. eigenvalues --  -10.19562 -10.19547 -10.19463 -10.19145 -10.19123
 Alpha  occ. eigenvalues --  -10.18876 -10.18819 -10.18781 -10.18624 -10.18503
 Alpha  occ. eigenvalues --  -10.18492 -10.18489 -10.18351 -10.18301 -10.18187
 Alpha  occ. eigenvalues --  -10.17935 -10.17353 -10.16927 -10.16455  -1.10635
 Alpha  occ. eigenvalues --   -1.10015  -1.03050  -1.01808  -0.97204  -0.96540
 Alpha  occ. eigenvalues --   -0.96210  -0.94545  -0.93554  -0.85216  -0.82677
 Alpha  occ. eigenvalues --   -0.82556  -0.82268  -0.81966  -0.81783  -0.80947
 Alpha  occ. eigenvalues --   -0.80658  -0.80156  -0.79337  -0.79316  -0.77852
 Alpha  occ. eigenvalues --   -0.77210  -0.76834  -0.76078  -0.75661  -0.74979
 Alpha  occ. eigenvalues --   -0.74209  -0.73335  -0.72689  -0.71713  -0.70715
 Alpha  occ. eigenvalues --   -0.70657  -0.69947  -0.69245  -0.68449  -0.68124
 Alpha  occ. eigenvalues --   -0.66851  -0.66708  -0.66092  -0.65607  -0.65305
 Alpha  occ. eigenvalues --   -0.64757  -0.63160  -0.62426  -0.62051  -0.61768
 Alpha  occ. eigenvalues --   -0.61132  -0.59234  -0.58652  -0.58537  -0.57493
 Alpha  occ. eigenvalues --   -0.57069  -0.56394  -0.56001  -0.55920  -0.55463
 Alpha  occ. eigenvalues --   -0.54824  -0.54742  -0.53751  -0.53605  -0.53302
 Alpha  occ. eigenvalues --   -0.53036  -0.52529  -0.51892  -0.51509  -0.50814
 Alpha  occ. eigenvalues --   -0.50012  -0.49787  -0.49572  -0.49357  -0.48413
 Alpha  occ. eigenvalues --   -0.48202  -0.47721  -0.47512  -0.47325  -0.47104
 Alpha  occ. eigenvalues --   -0.46933  -0.46758  -0.46290  -0.46027  -0.45806
 Alpha  occ. eigenvalues --   -0.45559  -0.45467  -0.45220  -0.45141  -0.44661
 Alpha  occ. eigenvalues --   -0.44487  -0.44374  -0.44370  -0.44056  -0.43914
 Alpha  occ. eigenvalues --   -0.43796  -0.43343  -0.42874  -0.42691  -0.42583
 Alpha  occ. eigenvalues --   -0.42569  -0.42382  -0.42284  -0.42035  -0.41679
 Alpha  occ. eigenvalues --   -0.41556  -0.41198  -0.41021  -0.40835  -0.40774
 Alpha  occ. eigenvalues --   -0.40674  -0.40108  -0.40055  -0.39853  -0.39476
 Alpha  occ. eigenvalues --   -0.39234  -0.39178  -0.38908  -0.38880  -0.38646
 Alpha  occ. eigenvalues --   -0.38252  -0.38022  -0.37956  -0.37752  -0.37653
 Alpha  occ. eigenvalues --   -0.37570  -0.37313  -0.36948  -0.36810  -0.36696
 Alpha  occ. eigenvalues --   -0.36652  -0.36407  -0.36351  -0.36031  -0.35633
 Alpha  occ. eigenvalues --   -0.35552  -0.35486  -0.35332  -0.34965  -0.34310
 Alpha  occ. eigenvalues --   -0.34276  -0.33962  -0.33928  -0.33592  -0.33412
 Alpha  occ. eigenvalues --   -0.32873  -0.32755  -0.32344  -0.32252  -0.32063
 Alpha  occ. eigenvalues --   -0.31898  -0.31654  -0.31430  -0.31411  -0.31161
 Alpha  occ. eigenvalues --   -0.30734  -0.30661  -0.30542  -0.30245  -0.29783
 Alpha  occ. eigenvalues --   -0.29708  -0.28848  -0.28537  -0.28235  -0.27471
 Alpha  occ. eigenvalues --   -0.27190  -0.27094  -0.26668  -0.26413  -0.26176
 Alpha  occ. eigenvalues --   -0.25128  -0.24865  -0.23513  -0.22418  -0.20590
 Alpha  occ. eigenvalues --   -0.18318
 Alpha virt. eigenvalues --   -0.09493  -0.08566  -0.04762  -0.02125  -0.01721
 Alpha virt. eigenvalues --   -0.00187   0.00578   0.00958   0.01226   0.03161
 Alpha virt. eigenvalues --    0.03522   0.04009   0.04330   0.04620   0.04748

 Mulliken charges:
               1
     1  C    0.083024
     2  C    0.040041
     3  C   -0.044624
     4  C   -0.060205
     5  N   -0.138280
     6  C   -0.044319
     7  C   -0.021247
     8  C   -0.056032
     9  C   -0.035236
    10  C    0.018803
    11  C    0.030150
    12  C   -0.051548
    13  C    0.204669
    14  O   -0.188232
    15  O   -0.309016
    16  N   -0.110037
    17  C    0.210045
    18  C   -0.119752
    19  C    0.019426
    20  C    0.094679
    21  C    0.118548
    22  C   -0.049278
    23  C    0.048792
    24  N   -0.224200
    25  C   -0.012761
    26  C   -0.134052
    27  C   -0.177389
    28  C    0.014745
    29  C    0.251797
    30  C    0.067368
    31  C    0.067036
    32  N   -0.063523
    33  C    0.132185
    34  C   -0.163107
    35  C   -0.008814
    36  C    0.082775
    37  C    0.082625
    38  C    0.087808
    39  O   -0.164914
    40  C   -0.080586
    41  C    0.203407
    42  O   -0.310286
    43  O   -0.259612
    44  C    0.250118
    45  C    0.205968
    46  C   -0.098435
    47  C   -0.103205
    48  C    0.054292
    49  C    0.103591
    50  C   -0.026499
    51  C    0.040916
    52  C    0.028394
    53  C    0.076953
    54  C   -0.042781
    55  C   -0.018841
    56  C   -0.055038
    57  C   -0.068244
    58  C    0.006240
    59  C   -0.010081
    60  C    0.021183
    61  C    0.037188
    62  C   -0.040306
    63  C   -0.063210
    64  C   -0.001331
    65  H   -0.147683
    66  H   -0.029994
    67  H   -0.036829
    68  H    0.041977
    69  H    0.000643
    70  H    0.021555
    71  H    0.005126
    72  H    0.048646
    73  H    0.029640
    74  H   -0.009041
    75  H    0.061567
    76  H    0.033733
    77  H    0.031690
    78  H    0.037718
    79  H   -0.023158
    80  H   -0.035939
    81  H    0.000063
    82  H    0.005088
    83  H   -0.000842
    84  H   -0.047612
    85  H   -0.005781
    86  H   -0.001745
    87  H   -0.002638
    88  H    0.001667
    89  H   -0.020073
    90  H    0.023529
    91  H    0.036214
    92  H    0.028261
    93  H    0.068147
    94  H    0.069214
    95  H   -0.005944
    96  H    0.029889
    97  H    0.040798
    98  H    0.021174
    99  H   -0.005723
   100  H   -0.003443
   101  H    0.024208
   102  H    0.024814
   103  H    0.041295
   104  H    0.021451
   105  H   -0.045533
   106  H    0.023389
   107  H   -0.025735
   108  H   -0.006750
   109  H   -0.017490
   110  H   -0.045154
   111  H   -0.023620
   112  H    0.007696
   113  H   -0.028009
   114  H    0.013085
   115  H    0.007320
   116  H    0.037532
   117  H    0.020168
   118  H    0.004121
   119  H   -0.000684
   120  H    0.005004
   121  H    0.039743
   122  H    0.012083
   123  H    0.013923
   124  H   -0.002251
   125  H   -0.019739
   126  H    0.011573
   127  H    0.001504
   128  H   -0.022251
   129  H   -0.015876
   130  H   -0.016396
   131  H    0.013227
   132  H    0.036701
   133  H    0.015444
   134  H   -0.007182
   135  H    0.018454
   136  H    0.030516
   137  H    0.137306
   138  H    0.128483
 Sum of Mulliken charges =   0.00000

 Dipole moment (field-independent basis, Debye):
    X=              2.1954    Y=              3.3111    Z=              0.9658  Tot=              4.0885
 Quadrupole moment (field-independent basis, Debye-Ang):
   XX=           -377.7145   YY=           -377.1550   ZZ=           -397.6797
   XY=            -29.2702   XZ=             20.5485   YZ=             -1.7171

 Normal termination of Gaussian 09 at Tue Jul 30 16:37:35 2019.
