 Gaussian 09, Revision D.01,
 Gaussian 09:  ES64L-G09RevD.01 24-Apr-2013

 --------------------------
 # td=(NStates=1) B3LYP/SVP
 --------------------------

 --
 TD
 --
 Symbolic Z-matrix:
 Charge =  0 Multiplicity = 1

                         Standard orientation:
 ---------------------------------------------------------------------
 Center     Atomic      Atomic             Coordinates (Angstroms)
 Number     Number       Type             X           Y           Z
 ---------------------------------------------------------------------
      1          6           0       -5.177301   -1.931628    0.618079
      2          6           0       -4.625516    2.710174    1.572793
      3          6           0       -9.195283    3.450093   -0.248473
      4          6           0       -9.804969   -1.407025   -0.960652
      5          7           0       -5.203814    0.486816    0.899751
      6          6           0       -4.511757   -0.738151    0.816974
      7          6           0       -3.019794   -0.671655    1.216444
      8          6           0       -3.012979    0.731812    1.942222
      9          6           0       -4.357502    1.305490    1.296577
     10          6           0       -2.962472    0.779910    3.525318
     11          6           0       -2.134796   -0.686010    0.022749
     12          6           0       -0.589381   -0.823001    0.373207
     13          6           0        0.317086   -0.970657   -0.698851
     14          8           0        0.018914   -1.164383   -1.955192
     15          8           0        1.697299   -0.913690   -0.354357
     16          7           0       -6.920418    2.736416    0.597016
     17          6           0       -5.816465    3.388560    1.163632
     18          6           0       -6.019805    4.800575    1.248525
     19          6           0       -7.359332    4.892663    0.661947
     20          6           0       -7.850422    3.567776    0.231957
     21          6           0       -5.149890    5.854177    1.686500
     22          6           0       -7.963343    6.193798    0.371311
     23          6           0       -8.824993    6.546603   -0.571211
     24          7           0       -9.076014    0.972402   -0.575543
     25          6           0       -9.733050    2.164755   -0.574434
     26          6           0      -11.119836    1.926193   -1.024834
     27          6           0      -11.333914    0.529279   -1.115593
     28          6           0      -10.068117   -0.006555   -0.846042
     29          6           0      -12.180744    3.029478   -1.134050
     30          6           0      -12.581342   -0.241957   -1.410109
     31          6           0      -12.852985   -0.276614   -2.901253
     32          7           0       -7.558215   -1.341134   -0.246746
     33          6           0       -8.629065   -1.973558   -0.645077
     34          6           0       -8.196447   -3.401719   -0.618297
     35          6           0       -6.867802   -3.453647   -0.262851
     36          6           0       -6.490107   -2.078001    0.065950
     37          6           0       -9.091621   -4.596445   -1.031584
     38          6           0       -5.710612   -4.383403    0.033576
     39          8           0       -5.687902   -5.588930   -0.020741
     40          6           0       -4.567164   -3.382667    0.464112
     41          6           0       -4.062051   -3.857085    1.813301
     42          8           0       -4.265252   -3.471019    2.880270
     43          8           0       -3.235268   -4.846120    1.591528
     44          6           0       -2.632972   -5.555835    2.792998
     45          6           0        2.605371   -0.968379   -1.433493
     46          6           0        3.847315   -0.630975   -0.821195
     47          6           0        4.884553    0.147044   -1.290220
     48          6           0        4.861413    0.845933   -2.589909
     49          6           0        6.245982    0.402069   -0.531614
     50          6           0        7.478803   -0.193157   -1.266816
     51          6           0        8.730432    0.003334   -0.347960
     52          6           0       10.068821   -0.536460   -1.053999
     53          6           0        9.969770   -2.023257   -1.376119
     54          6           0       11.105271   -0.264531   -0.057537
     55          6           0       12.623387   -0.489335   -0.707151
     56          6           0       13.740107    0.083596    0.262404
     57          6           0       15.201715   -0.266648   -0.303604
     58          6           0       15.508659   -1.784177   -0.559796
     59          6           0       16.232176    0.368770    0.629878
     60          6           0       17.679603    0.551706    0.053055
     61          6           0       18.734613    1.207431    0.952630
     62          6           0       20.106623    1.504105    0.302715
     63          6           0       20.051884    2.291000   -0.982571
     64          6           0       20.973976    2.276459    1.337187
     65          1           0       -3.772625    3.385809    1.918241
     66          1           0       -9.655559    4.327050   -0.566803
     67          1           0      -10.542851   -2.245840   -1.141301
     68          1           0       -2.858540   -1.388543    1.797888
     69          1           0       -2.219800    1.472424    1.656547
     70          1           0       -1.903440    0.549225    3.886151
     71          1           0       -3.340013    1.771847    3.828101
     72          1           0       -3.787843    0.119813    3.944253
     73          1           0       -2.250910   -1.521920   -0.539619
     74          1           0       -2.188851    0.119404   -0.581811
     75          1           0       -0.139424    0.130041    0.870224
     76          1           0       -0.660626   -1.908379    0.884027
     77          1           0       -4.447675    6.040013    0.634087
     78          1           0       -5.651800    6.783241    1.774850
     79          1           0       -4.420675    5.662069    2.538795
     80          1           0       -7.630275    7.027729    1.120195
     81          1           0       -9.175176    5.714613   -1.390963
     82          1           0       -9.299675    7.525713   -0.807408
     83          1           0      -12.207735    3.769737   -0.282728
     84          1           0      -11.815819    3.718556   -2.020028
     85          1           0      -13.181473    2.820486   -1.497210
     86          1           0      -12.642507   -1.339217   -1.123637
     87          1           0      -13.475491    0.157021   -0.821834
     88          1           0      -13.067377    0.617412   -3.400530
     89          1           0      -11.935970   -0.679479   -3.546906
     90          1           0      -13.738083   -0.937030   -3.110846
     91          1           0       -9.944584   -4.615595   -0.373825
     92          1           0       -9.646989   -4.400537   -2.007576
     93          1           0       -8.652616   -5.621321   -1.019913
     94          1           0       -3.788589   -3.399448   -0.354565
     95          1           0       -2.154932   -6.526786    2.478612
     96          1           0       -1.941347   -4.941171    3.542578
     97          1           0       -3.398278   -5.824992    3.568321
     98          1           0        2.662973   -1.912177   -2.014361
     99          1           0        2.369868   -0.256127   -2.188448
    100          1           0        4.095389   -1.125005    0.191180
    101          1           0        5.186217    1.854811   -2.676196
    102          1           0        5.636145    0.317037   -3.123415
    103          1           0        4.039888    0.786948   -3.357358
    104          1           0        6.031117    1.477044   -0.444384
    105          1           0        6.130210    0.011703    0.586830
    106          1           0        7.278757   -1.117482   -1.370764
    107          1           0        7.418773    0.477120   -2.314687
    108          1           0        8.937408    0.967509    0.092030
    109          1           0        8.527661   -0.769902    0.504765
    110          1           0       10.190153    0.245078   -2.057238
    111          1           0        8.959584   -2.223884   -2.062447
    112          1           0       11.013957   -2.480469   -1.680390
    113          1           0        9.619868   -2.755076   -0.561275
    114          1           0       11.032291    0.788999    0.222765
    115          1           0       11.150428   -0.866766    0.861813
    116          1           0       12.662314   -1.588808   -0.963044
    117          1           0       12.888282    0.204790   -1.533534
    118          1           0       13.543314    1.099010    0.459149
    119          1           0       13.545313   -0.508478    1.211570
    120          1           0       15.197324    0.326915   -1.422694
    121          1           0       14.678456   -2.303496   -1.278769
    122          1           0       16.444858   -1.749104   -1.077684
    123          1           0       15.497446   -2.439447    0.315801
    124          1           0       15.880812    1.407566    0.940509
    125          1           0       16.387718   -0.326659    1.684144
    126          1           0       18.048253   -0.521271   -0.461150
    127          1           0       17.566811    1.195241   -0.913391
    128          1           0       18.288152    2.226823    1.246284
    129          1           0       18.853160    0.716741    1.967221
    130          1           0       20.796423    0.445210    0.239961
    131          1           0       19.365830    3.229166   -0.836357
    132          1           0       21.071032    2.620309   -1.358200
    133          1           0       19.587348    1.799269   -1.895412
    134          1           0       21.293820    1.488742    2.262613
    135          1           0       21.882071    2.427517    0.779262
    136          1           0       20.350567    3.169319    1.617494
    137          1           0       -6.845597    1.836576    0.349765
    138          1           0       -7.482324   -0.407108   -0.195188
 ---------------------------------------------------------------------

 SCF Done:  E(RB3LYP) =  -2733.05275388     A.U. after   18 cycles

 Excitation energies and oscillator strengths:

 Excited State   1:      Singlet-A      2.0073 eV  617.65 nm  f=0.1481  <S**2>=0.000
     235 -> 237       -0.21192
     235 -> 238       -0.25488
     236 -> 237        0.59356
     236 -> 238       -0.17638
 This state for optimization and/or second-order correction.
 Total Energy, E(TD-HF/TD-KS) =  -2732.97898514
 Copying the excited state density for this state as the 1-particle RhoCI density.

 The electronic state is 1-A.
 Alpha  occ. eigenvalues --  -19.17824 -19.17478 -19.13449 -19.12389 -19.12288
 Alpha  occ. eigenvalues --  -14.36923 -14.36690 -14.33139 -14.29345 -10.32167
 Alpha  occ. eigenvalues --  -10.31079 -10.29182 -10.26488 -10.24246 -10.23939
 Alpha  occ. eigenvalues --  -10.23736 -10.23643 -10.23222 -10.23086 -10.22811
 Alpha  occ. eigenvalues --  -10.22708 -10.22656 -10.22057 -10.21844 -10.21400
 Alpha  occ. eigenvalues --  -10.21223 -10.21215 -10.21213 -10.21132 -10.21083
 Alpha  occ. eigenvalues --  -10.20974 -10.20931 -10.20528 -10.20515 -10.20450
 Alpha  occ. eigenvalues --  -10.20399 -10.20386 -10.20238 -10.20159 -10.20116
 Alpha  occ. eigenvalues --  -10.19975 -10.19972 -10.19852 -10.19823 -10.19786
 Alpha  occ. eigenvalues --  -10.19652 -10.19649 -10.19405 -10.19385 -10.19379
 Alpha  occ. eigenvalues --  -10.19358 -10.19235 -10.19198 -10.19181 -10.18917
 Alpha  occ. eigenvalues --  -10.18859 -10.18840 -10.18611 -10.18335 -10.18283
 Alpha  occ. eigenvalues --  -10.18265 -10.18148 -10.17929 -10.17810  -1.11540
 Alpha  occ. eigenvalues --   -1.06778  -1.03905  -1.01687  -1.01245  -0.99834
 Alpha  occ. eigenvalues --   -0.96896  -0.96760  -0.91786  -0.84965  -0.83129
 Alpha  occ. eigenvalues --   -0.82377  -0.81978  -0.80906  -0.80831  -0.80455
 Alpha  occ. eigenvalues --   -0.79995  -0.79257  -0.78932  -0.78492  -0.78197
 Alpha  occ. eigenvalues --   -0.76573  -0.75976  -0.75454  -0.74244  -0.73799
 Alpha  occ. eigenvalues --   -0.73287  -0.72993  -0.72592  -0.71605  -0.71101
 Alpha  occ. eigenvalues --   -0.70775  -0.69629  -0.69425  -0.67420  -0.66991
 Alpha  occ. eigenvalues --   -0.66755  -0.66654  -0.66065  -0.65842  -0.65452
 Alpha  occ. eigenvalues --   -0.63625  -0.63158  -0.62817  -0.62511  -0.61072
 Alpha  occ. eigenvalues --   -0.60644  -0.59718  -0.59208  -0.58752  -0.57903
 Alpha  occ. eigenvalues --   -0.56814  -0.56511  -0.56433  -0.56097  -0.55878
 Alpha  occ. eigenvalues --   -0.54397  -0.54242  -0.53335  -0.52949  -0.52855
 Alpha  occ. eigenvalues --   -0.52634  -0.51762  -0.51402  -0.50931  -0.50812
 Alpha  occ. eigenvalues --   -0.50225  -0.49575  -0.48801  -0.48309  -0.47974
 Alpha  occ. eigenvalues --   -0.47700  -0.47462  -0.47330  -0.47205  -0.46968
 Alpha  occ. eigenvalues --   -0.46840  -0.46114  -0.46052  -0.45765  -0.45490
 Alpha  occ. eigenvalues --   -0.45411  -0.45216  -0.44975  -0.44666  -0.44499
 Alpha  occ. eigenvalues --   -0.44319  -0.44095  -0.43912  -0.43658  -0.43515
 Alpha  occ. eigenvalues --   -0.43379  -0.43242  -0.43043  -0.42912  -0.42487
 Alpha  occ. eigenvalues --   -0.42381  -0.42072  -0.41988  -0.41734  -0.41374
 Alpha  occ. eigenvalues --   -0.41319  -0.41185  -0.40685  -0.40380  -0.40083
 Alpha  occ. eigenvalues --   -0.39871  -0.39844  -0.39711  -0.39541  -0.39344
 Alpha  occ. eigenvalues --   -0.39303  -0.39172  -0.39014  -0.38796  -0.38464
 Alpha  occ. eigenvalues --   -0.38394  -0.38287  -0.38223  -0.38069  -0.37947
 Alpha  occ. eigenvalues --   -0.37817  -0.37716  -0.36902  -0.36645  -0.36577
 Alpha  occ. eigenvalues --   -0.36329  -0.36063  -0.35938  -0.35826  -0.35495
 Alpha  occ. eigenvalues --   -0.35394  -0.35299  -0.35046  -0.34843  -0.34619
 Alpha  occ. eigenvalues --   -0.34410  -0.34280  -0.34169  -0.33769  -0.33582
 Alpha  occ. eigenvalues --   -0.33212  -0.33165  -0.33046  -0.32853  -0.32312
 Alpha  occ. eigenvalues --   -0.32230  -0.32027  -0.31947  -0.31619  -0.31158
 Alpha  occ. eigenvalues --   -0.31115  -0.30919  -0.30271  -0.29992  -0.29766
 Alpha  occ. eigenvalues --   -0.29662  -0.29569  -0.28786  -0.28380  -0.28180
 Alpha  occ. eigenvalues --   -0.27071  -0.26975  -0.26825  -0.26521  -0.25944
 Alpha  occ. eigenvalues --   -0.25738  -0.23565  -0.23152  -0.21695  -0.19985
 Alpha  occ. eigenvalues --   -0.18529
 Alpha virt. eigenvalues --   -0.10114  -0.08243  -0.04980  -0.02833  -0.01537
 Alpha virt. eigenvalues --    0.00368   0.01291   0.01415   0.02276   0.03079
 Alpha virt. eigenvalues --    0.03552   0.03969   0.03999   0.04292   0.04679

 Mulliken charges:
               1
     1  C    0.020432
     2  C   -0.093102
     3  C   -0.043194
     4  C   -0.089344
     5  N   -0.115900
     6  C   -0.062873
     7  C    0.180418
     8  C   -0.115290
     9  C   -0.030579
    10  C    0.053424
    11  C    0.169505
    12  C   -0.010167
    13  C    0.206873
    14  O   -0.314198
    15  O   -0.346986
    16  N    0.074142
    17  C    0.062826
    18  C   -0.090526
    19  C   -0.030753
    20  C    0.071685
    21  C    0.062302
    22  C   -0.043244
    23  C   -0.100891
    24  N   -0.279779
    25  C    0.087296
    26  C   -0.140755
    27  C   -0.062131
    28  C    0.103104
    29  C    0.061008
    30  C    0.066067
    31  C   -0.012681
    32  N    0.137403
    33  C    0.009172
    34  C   -0.160123
    35  C   -0.037532
    36  C    0.011735
    37  C    0.091872
    38  C    0.117491
    39  O   -0.143910
    40  C   -0.123529
    41  C    0.175584
    42  O   -0.167973
    43  O   -0.295566
    44  C    0.131546
    45  C    0.363797
    46  C   -0.131968
    47  C   -0.166838
    48  C    0.074987
    49  C    0.003154
    50  C    0.109814
    51  C    0.000887
    52  C   -0.073993
    53  C   -0.054769
    54  C    0.045767
    55  C   -0.036713
    56  C    0.049377
    57  C   -0.128980
    58  C    0.026274
    59  C    0.007433
    60  C   -0.040259
    61  C    0.046944
    62  C   -0.145520
    63  C   -0.009069
    64  C    0.010053
    65  H   -0.000312
    66  H   -0.054882
    67  H   -0.009936
    68  H   -0.122070
    69  H   -0.006199
    70  H    0.042225
    71  H    0.007872
    72  H    0.033916
    73  H   -0.026237
    74  H   -0.026357
    75  H    0.062734
    76  H    0.073501
    77  H    0.051078
    78  H    0.004084
    79  H    0.049651
    80  H    0.022178
    81  H    0.050389
    82  H    0.035333
    83  H    0.032205
    84  H    0.009192
    85  H    0.008678
    86  H    0.002182
    87  H    0.014175
    88  H   -0.002937
    89  H    0.020239
    90  H    0.005846
    91  H    0.008938
    92  H    0.025601
    93  H    0.046391
    94  H    0.084143
    95  H    0.058855
    96  H    0.048307
    97  H    0.039930
    98  H    0.022588
    99  H   -0.014190
   100  H   -0.006873
   101  H   -0.001383
   102  H    0.002216
   103  H    0.010730
   104  H    0.016173
   105  H    0.003661
   106  H   -0.047442
   107  H    0.031449
   108  H   -0.001297
   109  H    0.002520
   110  H    0.024266
   111  H    0.028846
   112  H    0.040113
   113  H    0.014290
   114  H   -0.018061
   115  H    0.000580
   116  H    0.021986
   117  H   -0.002124
   118  H   -0.010424
   119  H   -0.011496
   120  H    0.009314
   121  H    0.020982
   122  H    0.012184
   123  H    0.016666
   124  H    0.004009
   125  H    0.015526
   126  H    0.011938
   127  H    0.003154
   128  H   -0.010512
   129  H    0.002060
   130  H    0.010214
   131  H    0.014571
   132  H    0.017446
   133  H    0.026512
   134  H    0.028883
   135  H    0.007229
   136  H    0.020469
   137  H    0.084056
   138  H    0.077220
 Sum of Mulliken charges =   0.00000

 Dipole moment (field-independent basis, Debye):
    X=              2.4325    Y=              3.5249    Z=              1.4021  Tot=              4.5065
 Quadrupole moment (field-independent basis, Debye-Ang):
   XX=           -372.2054   YY=           -375.3587   ZZ=           -399.0242
   XY=            -12.7224   XZ=              5.4154   YZ=             -4.9334

 Normal termination of Gaussian 09 at Sat Aug  3 02:20:42 2019.
