 Gaussian 09, Revision D.01,
 Gaussian 09:  ES64L-G09RevD.01 24-Apr-2013

 --------------------------
 # td=(NStates=1) B3LYP/SVP
 --------------------------

 --
 TD
 --
 Symbolic Z-matrix:
 Charge =  0 Multiplicity = 1

                         Standard orientation:
 ---------------------------------------------------------------------
 Center     Atomic      Atomic             Coordinates (Angstroms)
 Number     Number       Type             X           Y           Z
 ---------------------------------------------------------------------
      1          6           0       -5.050480   -1.990895    0.467513
      2          6           0       -4.808357    2.628356    1.556020
      3          6           0       -9.324489    3.345652   -0.110789
      4          6           0       -9.828053   -1.430343   -0.860346
      5          7           0       -5.204036    0.305841    0.890071
      6          6           0       -4.455171   -0.773956    0.805833
      7          6           0       -3.032561   -0.590857    1.264379
      8          6           0       -3.057527    0.901905    1.816699
      9          6           0       -4.493810    1.272849    1.505813
     10          6           0       -3.082958    0.727401    3.348573
     11          6           0       -2.160960   -0.692240    0.009891
     12          6           0       -0.622735   -0.579606    0.451900
     13          6           0        0.341827   -0.798267   -0.697294
     14          8           0       -0.092530   -1.015288   -1.888125
     15          8           0        1.597766   -0.861590   -0.233154
     16          7           0       -7.017527    2.651891    0.590119
     17          6           0       -5.910403    3.273853    1.084944
     18          6           0       -6.154329    4.719984    1.014164
     19          6           0       -7.429408    4.922507    0.495343
     20          6           0       -8.031071    3.656994    0.302263
     21          6           0       -5.202608    5.799112    1.531330
     22          6           0       -8.123829    6.229800    0.406192
     23          6           0       -8.932642    6.548114   -0.735248
     24          7           0       -9.247086    0.853516   -0.436684
     25          6           0       -9.794954    2.099753   -0.513866
     26          6           0      -11.277360    1.914181   -0.895554
     27          6           0      -11.413412    0.689623   -1.143235
     28          6           0      -10.164123   -0.015564   -0.895785
     29          6           0      -12.310314    3.056779   -1.274205
     30          6           0      -12.652626   -0.107879   -1.649182
     31          6           0      -12.672397   -0.515967   -3.086995
     32          7           0       -7.506468   -1.271060   -0.158148
     33          6           0       -8.613580   -2.002094   -0.592039
     34          6           0       -8.250055   -3.437593   -0.549592
     35          6           0       -6.829442   -3.376553   -0.257140
     36          6           0       -6.404548   -2.072712    0.039242
     37          6           0       -9.012075   -4.704778   -0.845125
     38          6           0       -5.640646   -4.345302   -0.002377
     39          8           0       -5.567457   -5.557765   -0.176512
     40          6           0       -4.446897   -3.353591    0.343860
     41          6           0       -3.910114   -3.804262    1.719697
     42          8           0       -4.301338   -3.513932    2.808653
     43          8           0       -2.971462   -4.817806    1.555336
     44          6           0       -2.317036   -5.409121    2.650321
     45          6           0        2.628716   -0.914832   -1.370329
     46          6           0        3.886292   -0.595812   -0.619745
     47          6           0        4.945339    0.113394   -1.072328
     48          6           0        4.937322    1.007188   -2.360698
     49          6           0        6.281472    0.315819   -0.307459
     50          6           0        7.475600   -0.339915   -1.067516
     51          6           0        8.715210   -0.335221   -0.152663
     52          6           0       10.072899   -0.642439   -0.802873
     53          6           0       10.086233   -2.153378   -1.330020
     54          6           0       11.308201   -0.423235    0.122118
     55          6           0       12.672992   -0.551156   -0.652658
     56          6           0       13.794826   -0.146716    0.369892
     57          6           0       15.282816   -0.239466   -0.400717
     58          6           0       15.670566   -1.732371   -0.509275
     59          6           0       16.199748    0.682424    0.482483
     60          6           0       17.651864    0.725741   -0.141867
     61          6           0       18.523764    1.656218    0.661459
     62          6           0       20.007410    1.630811    0.257822
     63          6           0       20.235736    2.109243   -1.202066
     64          6           0       20.868590    2.466271    1.240118
     65          1           0       -4.033735    3.110203    2.239907
     66          1           0       -9.856932    3.968601   -0.068378
     67          1           0      -10.731964   -2.027340   -1.225777
     68          1           0       -2.576987   -1.186536    2.183290
     69          1           0       -2.332342    1.629092    1.564445
     70          1           0       -2.230881    0.317830    3.723892
     71          1           0       -3.141151    1.762557    3.890534
     72          1           0       -3.878701   -0.039372    3.612276
     73          1           0       -2.292821   -1.831013   -0.393219
     74          1           0       -2.056351   -0.083310   -0.960434
     75          1           0       -0.439954    0.398234    1.036685
     76          1           0       -0.405026   -1.312399    1.202882
     77          1           0       -4.055466    5.608430    1.155954
     78          1           0       -5.758862    6.723477    1.243341
     79          1           0       -5.070674    5.556680    2.677106
     80          1           0       -7.829316    7.125319    1.114013
     81          1           0       -9.132787    5.651366   -1.286903
     82          1           0       -9.494448    7.423916   -0.811761
     83          1           0      -12.443460    3.774391   -0.623197
     84          1           0      -11.927301    3.534449   -2.137497
     85          1           0      -13.158764    2.540666   -1.487609
     86          1           0      -12.646657   -1.040892   -0.961569
     87          1           0      -13.483892    0.624275   -1.296308
     88          1           0      -12.802040    0.271643   -4.033877
     89          1           0      -11.525391   -0.966742   -3.192411
     90          1           0      -13.322862   -1.483384   -3.275607
     91          1           0      -10.053027   -4.694987   -0.313160
     92          1           0       -9.465141   -4.582679   -1.959617
     93          1           0       -8.533089   -5.581474   -0.832074
     94          1           0       -3.831276   -3.424987   -0.366575
     95          1           0       -1.605094   -6.188386    2.218752
     96          1           0       -1.799662   -4.493643    3.119196
     97          1           0       -3.176764   -5.963828    3.289864
     98          1           0        2.507380   -2.016880   -1.918961
     99          1           0        2.531563   -0.187944   -2.186475
    100          1           0        4.295812   -1.189757    0.257469
    101          1           0        5.428183    2.043575   -2.176349
    102          1           0        5.552570    0.314725   -3.001226
    103          1           0        3.882204    1.177847   -2.695651
    104          1           0        6.367836    1.321969   -0.044012
    105          1           0        6.080230   -0.203466    0.774237
    106          1           0        7.263618   -1.340552   -1.264198
    107          1           0        7.780823    0.011354   -2.087579
    108          1           0        8.888200    0.636471    0.209992
    109          1           0        8.331252   -0.936673    0.707295
    110          1           0       10.228127   -0.035846   -1.696151
    111          1           0        9.242688   -2.401596   -1.803964
    112          1           0       10.897144   -2.375990   -2.052176
    113          1           0       10.211472   -2.970647   -0.551129
    114          1           0       11.287306    0.586809    0.614295
    115          1           0       11.374127   -1.167143    1.039346
    116          1           0       12.784847   -1.579458   -1.247355
    117          1           0       12.645613    0.234436   -1.562913
    118          1           0       13.579490    0.910252    0.959965
    119          1           0       14.004156   -0.820640    1.264602
    120          1           0       15.075964    0.139663   -1.478009
    121          1           0       14.845841   -2.433881   -1.060478
    122          1           0       16.749086   -1.788074   -1.160840
    123          1           0       15.984016   -1.928235    0.596486
    124          1           0       15.619465    1.581415    0.615405
    125          1           0       16.251374    0.074761    1.326327
    126          1           0       18.264677   -0.379962    0.091545
    127          1           0       17.581690    0.678207   -1.309547
    128          1           0       18.320476    2.827978    0.361388
    129          1           0       18.107192    1.538019    1.735142
    130          1           0       20.434925    0.651754    0.154373
    131          1           0       19.940472    3.126081   -1.322143
    132          1           0       21.207879    2.204769   -1.527624
    133          1           0       19.683704    1.471303   -2.008266
    134          1           0       20.580827    2.078439    2.282154
    135          1           0       21.937371    1.996435    1.137840
    136          1           0       20.526703    3.543338    0.953646
    137          1           0       -7.099590    1.587195    0.566081
    138          1           0       -7.636637   -0.257597   -0.359105
 ---------------------------------------------------------------------

 SCF Done:  E(RB3LYP) =  -2732.95352747     A.U. after   17 cycles

 Excitation energies and oscillator strengths:

 Excited State   1:      Singlet-A      2.0531 eV  603.88 nm  f=0.1715  <S**2>=0.000
     235 -> 237       -0.13803
     235 -> 238       -0.29783
     236 -> 237        0.61555
     236 -> 238       -0.10872
 This state for optimization and/or second-order correction.
 Total Energy, E(TD-HF/TD-KS) =  -2732.87807657
 Copying the excited state density for this state as the 1-particle RhoCI density.

 The electronic state is 1-A.
 Alpha  occ. eigenvalues --  -19.19391 -19.15897 -19.13098 -19.12790 -19.12466
 Alpha  occ. eigenvalues --  -14.36782 -14.36320 -14.31956 -14.30137 -10.32159
 Alpha  occ. eigenvalues --  -10.31689 -10.28850 -10.27465 -10.25635 -10.23646
 Alpha  occ. eigenvalues --  -10.23643 -10.23361 -10.23306 -10.22799 -10.22602
 Alpha  occ. eigenvalues --  -10.22353 -10.22286 -10.21828 -10.21645 -10.21393
 Alpha  occ. eigenvalues --  -10.21363 -10.21249 -10.21194 -10.21056 -10.20939
 Alpha  occ. eigenvalues --  -10.20811 -10.20772 -10.20769 -10.20692 -10.20657
 Alpha  occ. eigenvalues --  -10.20514 -10.20509 -10.20475 -10.20457 -10.20456
 Alpha  occ. eigenvalues --  -10.20386 -10.20354 -10.20167 -10.20114 -10.19897
 Alpha  occ. eigenvalues --  -10.19861 -10.19853 -10.19838 -10.19545 -10.19528
 Alpha  occ. eigenvalues --  -10.19498 -10.19310 -10.19262 -10.18978 -10.18945
 Alpha  occ. eigenvalues --  -10.18734 -10.18192 -10.18173 -10.17852 -10.17651
 Alpha  occ. eigenvalues --  -10.17418 -10.17253 -10.17226 -10.17086  -1.08520
 Alpha  occ. eigenvalues --   -1.08042  -1.02251  -1.00580  -0.97776  -0.97226
 Alpha  occ. eigenvalues --   -0.96467  -0.95441  -0.93835  -0.85074  -0.82495
 Alpha  occ. eigenvalues --   -0.82189  -0.81069  -0.80978  -0.80552  -0.80397
 Alpha  occ. eigenvalues --   -0.79805  -0.79301  -0.78980  -0.78716  -0.77404
 Alpha  occ. eigenvalues --   -0.76842  -0.75826  -0.75132  -0.74377  -0.74114
 Alpha  occ. eigenvalues --   -0.73155  -0.72880  -0.72137  -0.71020  -0.70213
 Alpha  occ. eigenvalues --   -0.69926  -0.69522  -0.68804  -0.67878  -0.67660
 Alpha  occ. eigenvalues --   -0.67299  -0.66272  -0.66006  -0.65710  -0.64690
 Alpha  occ. eigenvalues --   -0.63966  -0.62453  -0.61625  -0.61478  -0.60794
 Alpha  occ. eigenvalues --   -0.59948  -0.58722  -0.58617  -0.58067  -0.57667
 Alpha  occ. eigenvalues --   -0.56553  -0.56058  -0.55941  -0.55181  -0.54857
 Alpha  occ. eigenvalues --   -0.54442  -0.54056  -0.53700  -0.53643  -0.53014
 Alpha  occ. eigenvalues --   -0.52393  -0.52205  -0.52046  -0.50868  -0.50305
 Alpha  occ. eigenvalues --   -0.49159  -0.48750  -0.48703  -0.48485  -0.47930
 Alpha  occ. eigenvalues --   -0.47845  -0.47702  -0.47535  -0.47273  -0.47027
 Alpha  occ. eigenvalues --   -0.46708  -0.46479  -0.45987  -0.45578  -0.45414
 Alpha  occ. eigenvalues --   -0.45342  -0.45150  -0.44783  -0.44622  -0.44319
 Alpha  occ. eigenvalues --   -0.44015  -0.43810  -0.43646  -0.43583  -0.43305
 Alpha  occ. eigenvalues --   -0.43232  -0.42986  -0.42471  -0.42319  -0.42217
 Alpha  occ. eigenvalues --   -0.42106  -0.41877  -0.41736  -0.41557  -0.41465
 Alpha  occ. eigenvalues --   -0.41255  -0.41022  -0.40808  -0.40770  -0.40435
 Alpha  occ. eigenvalues --   -0.40025  -0.39895  -0.39392  -0.39240  -0.39119
 Alpha  occ. eigenvalues --   -0.38979  -0.38923  -0.38820  -0.38666  -0.38429
 Alpha  occ. eigenvalues --   -0.38268  -0.38086  -0.37886  -0.37830  -0.37733
 Alpha  occ. eigenvalues --   -0.37568  -0.37356  -0.37342  -0.37123  -0.36988
 Alpha  occ. eigenvalues --   -0.36857  -0.36785  -0.36601  -0.36318  -0.36081
 Alpha  occ. eigenvalues --   -0.35851  -0.35389  -0.35344  -0.35128  -0.35065
 Alpha  occ. eigenvalues --   -0.34714  -0.34346  -0.34046  -0.33524  -0.33442
 Alpha  occ. eigenvalues --   -0.33334  -0.32980  -0.32796  -0.32730  -0.32069
 Alpha  occ. eigenvalues --   -0.32063  -0.31709  -0.31594  -0.31258  -0.31046
 Alpha  occ. eigenvalues --   -0.31040  -0.30599  -0.30488  -0.30190  -0.30031
 Alpha  occ. eigenvalues --   -0.29162  -0.29133  -0.28218  -0.27878  -0.27804
 Alpha  occ. eigenvalues --   -0.27363  -0.26783  -0.26528  -0.26159  -0.25566
 Alpha  occ. eigenvalues --   -0.25309  -0.24888  -0.24482  -0.23717  -0.19760
 Alpha  occ. eigenvalues --   -0.18585
 Alpha virt. eigenvalues --   -0.09995  -0.07417  -0.04573  -0.03161  -0.01826
 Alpha virt. eigenvalues --   -0.00451  -0.00251   0.00616   0.02251   0.03426
 Alpha virt. eigenvalues --    0.03497   0.03887   0.03977   0.04272   0.04408

 Mulliken charges:
               1
     1  C   -0.021578
     2  C   -0.098198
     3  C    0.163317
     4  C   -0.067392
     5  N   -0.131796
     6  C   -0.045949
     7  C   -0.047849
     8  C   -0.071485
     9  C   -0.028042
    10  C    0.055913
    11  C   -0.024173
    12  C   -0.004036
    13  C    0.232688
    14  O   -0.309678
    15  O   -0.306536
    16  N   -0.146380
    17  C    0.178091
    18  C   -0.151098
    19  C    0.047880
    20  C    0.135741
    21  C    0.042239
    22  C   -0.116525
    23  C   -0.002871
    24  N   -0.234895
    25  C    0.074923
    26  C   -0.214388
    27  C   -0.045860
    28  C   -0.018326
    29  C    0.241327
    30  C    0.035376
    31  C   -0.068401
    32  N   -0.064142
    33  C    0.092787
    34  C   -0.118681
    35  C   -0.084229
    36  C    0.140305
    37  C    0.115642
    38  C    0.104360
    39  O   -0.171179
    40  C    0.098713
    41  C    0.192213
    42  O   -0.194457
    43  O   -0.333315
    44  C    0.126604
    45  C    0.223041
    46  C   -0.039926
    47  C   -0.208455
    48  C    0.021779
    49  C    0.052029
    50  C    0.032504
    51  C    0.066158
    52  C   -0.036317
    53  C    0.045727
    54  C    0.008704
    55  C   -0.035813
    56  C   -0.044425
    57  C   -0.150664
    58  C   -0.058827
    59  C    0.118933
    60  C   -0.079022
    61  C    0.025978
    62  C   -0.097447
    63  C    0.040850
    64  C    0.009410
    65  H   -0.013961
    66  H   -0.303419
    67  H   -0.004671
    68  H    0.046713
    69  H   -0.006018
    70  H   -0.022879
    71  H    0.017407
    72  H    0.045298
    73  H    0.033399
    74  H    0.060700
    75  H    0.034542
    76  H    0.011288
    77  H    0.046487
    78  H    0.037878
    79  H    0.044652
    80  H    0.041790
    81  H    0.032408
    82  H    0.019864
    83  H   -0.026561
    84  H    0.004020
    85  H   -0.030683
    86  H    0.024465
    87  H    0.016410
    88  H    0.051501
    89  H    0.023791
    90  H    0.033289
    91  H    0.032779
    92  H    0.030491
    93  H    0.008955
    94  H   -0.032713
    95  H    0.050559
    96  H    0.038047
    97  H    0.055126
    98  H    0.073012
    99  H    0.031895
   100  H    0.001315
   101  H    0.039706
   102  H    0.047059
   103  H    0.027572
   104  H    0.002002
   105  H    0.008707
   106  H   -0.013044
   107  H    0.004221
   108  H   -0.028086
   109  H   -0.002230
   110  H   -0.011686
   111  H   -0.040624
   112  H    0.000397
   113  H    0.006723
   114  H   -0.002993
   115  H    0.011325
   116  H    0.031410
   117  H    0.012590
   118  H    0.018262
   119  H    0.002232
   120  H    0.002873
   121  H    0.054297
   122  H    0.033112
   123  H    0.023067
   124  H    0.010423
   125  H   -0.022678
   126  H    0.007974
   127  H    0.033562
   128  H   -0.003175
   129  H    0.019866
   130  H   -0.018034
   131  H   -0.022367
   132  H   -0.019807
   133  H    0.020934
   134  H    0.014907
   135  H    0.025129
   136  H    0.037827
   137  H    0.175649
   138  H    0.154843
 Sum of Mulliken charges =   0.00000

 Dipole moment (field-independent basis, Debye):
    X=              3.9613    Y=              4.3948    Z=              0.2336  Tot=              5.9212
 Quadrupole moment (field-independent basis, Debye-Ang):
   XX=           -357.7730   YY=           -388.1173   ZZ=           -398.1080
   XY=            -27.3519   XZ=              7.6135   YZ=              2.1794

 Normal termination of Gaussian 09 at Tue Jul 30 21:47:54 2019.
