 Gaussian 09, Revision D.01,
 Gaussian 09:  ES64L-G09RevD.01 24-Apr-2013

 --------------------------
 # td=(NStates=1) B3LYP/SVP
 --------------------------

 --
 TD
 --
 Symbolic Z-matrix:
 Charge =  0 Multiplicity = 1

                         Standard orientation:
 ---------------------------------------------------------------------
 Center     Atomic      Atomic             Coordinates (Angstroms)
 Number     Number       Type             X           Y           Z
 ---------------------------------------------------------------------
      1          6           0       -5.170702   -1.913846    0.626491
      2          6           0       -4.713499    2.819755    1.502341
      3          6           0       -9.321184    3.259176   -0.215963
      4          6           0       -9.807484   -1.472213   -0.986569
      5          7           0       -5.135586    0.495828    0.775330
      6          6           0       -4.509537   -0.729437    0.939476
      7          6           0       -3.026329   -0.498403    1.299939
      8          6           0       -3.005099    0.886142    1.785713
      9          6           0       -4.384938    1.427165    1.276848
     10          6           0       -2.866292    0.919617    3.319066
     11          6           0       -2.025654   -0.811854    0.155022
     12          6           0       -0.601074   -0.843531    0.596180
     13          6           0        0.326080   -1.206646   -0.435227
     14          8           0        0.015521   -1.817548   -1.497142
     15          8           0        1.634076   -0.662133   -0.246774
     16          7           0       -6.991756    2.786785    0.442335
     17          6           0       -5.935162    3.423742    1.006680
     18          6           0       -6.252774    4.819588    1.045423
     19          6           0       -7.564637    4.976862    0.467722
     20          6           0       -8.023416    3.647277    0.229960
     21          6           0       -5.355702    5.911706    1.553135
     22          6           0       -8.249839    6.317214    0.469184
     23          6           0       -8.970480    6.746198   -0.531192
     24          7           0       -9.290047    0.848949   -0.464209
     25          6           0       -9.899143    2.108913   -0.545240
     26          6           0      -11.385720    1.916195   -0.921939
     27          6           0      -11.416838    0.512449   -1.173168
     28          6           0      -10.086250   -0.085957   -0.838917
     29          6           0      -12.404078    2.809272   -1.265361
     30          6           0      -12.713862   -0.311530   -1.669459
     31          6           0      -12.837806   -0.353743   -3.274506
     32          7           0       -7.444982   -1.229949   -0.139279
     33          6           0       -8.565300   -2.000900   -0.677860
     34          6           0       -8.094629   -3.364182   -0.681573
     35          6           0       -6.801887   -3.371972   -0.118240
     36          6           0       -6.475170   -2.012321    0.063312
     37          6           0       -8.934390   -4.628133   -0.987173
     38          6           0       -5.744216   -4.290117    0.169700
     39          8           0       -5.703598   -5.533575    0.148955
     40          6           0       -4.501366   -3.350641    0.541438
     41          6           0       -3.898098   -3.726124    1.732202
     42          8           0       -4.194485   -3.247030    2.832434
     43          8           0       -3.092496   -4.753806    1.608125
     44          6           0       -2.447198   -5.286512    2.938686
     45          6           0        2.616923   -1.165688   -1.223686
     46          6           0        3.960165   -0.612588   -0.798556
     47          6           0        4.973777   -0.016185   -1.471147
     48          6           0        4.981249    0.279401   -2.958557
     49          6           0        6.214790    0.316576   -0.738628
     50          6           0        7.462826   -0.481647   -1.087356
     51          6           0        8.809579   -0.224234   -0.225730
     52          6           0       10.135620   -0.767006   -0.762090
     53          6           0       10.042256   -2.337055   -0.771330
     54          6           0       11.320787   -0.358524    0.021500
     55          6           0       12.661990   -0.754527   -0.617465
     56          6           0       13.882044   -0.222048    0.210755
     57          6           0       15.230356   -0.310534   -0.438961
     58          6           0       15.775047   -1.744271   -0.477564
     59          6           0       16.213964    0.688764    0.340491
     60          6           0       17.679523    0.718535   -0.077799
     61          6           0       18.547230    1.888784    0.637034
     62          6           0       20.069259    1.895849    0.277164
     63          6           0       20.258771    2.257472   -1.177341
     64          6           0       20.898996    2.802291    1.244458
     65          1           0       -4.038341    3.414956    1.961937
     66          1           0       -9.857554    4.229961   -0.668558
     67          1           0      -10.507701   -2.042523   -1.463554
     68          1           0       -2.868817   -1.341117    1.897266
     69          1           0       -2.280364    1.569207    1.313423
     70          1           0       -1.930736    0.268428    3.646350
     71          1           0       -2.747697    1.931800    3.877936
     72          1           0       -3.749789    0.345477    3.764797
     73          1           0       -2.254622   -1.834493   -0.241591
     74          1           0       -2.057874   -0.192803   -0.745760
     75          1           0       -0.180108   -0.045631    1.160136
     76          1           0       -0.567068   -1.529168    1.609095
     77          1           0       -4.634942    6.035778    0.869092
     78          1           0       -5.876696    7.085348    1.770270
     79          1           0       -4.788527    5.412441    2.559210
     80          1           0       -7.981910    6.982157    1.109414
     81          1           0       -9.407190    5.999019   -1.388089
     82          1           0       -9.424755    7.786121   -0.641254
     83          1           0      -12.591147    3.550238   -0.355720
     84          1           0      -12.245275    3.818329   -1.969097
     85          1           0      -13.322892    2.305426   -1.909567
     86          1           0      -12.622353   -1.227036   -1.258515
     87          1           0      -13.594596    0.056565   -1.182614
     88          1           0      -12.760452    0.710870   -3.735137
     89          1           0      -12.170970   -0.994501   -3.782806
     90          1           0      -13.683172   -0.553398   -3.572464
     91          1           0       -9.900927   -4.631950   -0.328620
     92          1           0       -9.226031   -4.673881   -2.020334
     93          1           0       -8.255646   -5.563262   -0.866174
     94          1           0       -3.878130   -3.463812   -0.310811
     95          1           0       -1.665186   -6.026800    2.660501
     96          1           0       -2.288585   -4.271695    3.641011
     97          1           0       -3.202938   -5.963167    3.418863
     98          1           0        2.483297   -2.444122   -1.053198
     99          1           0        2.327805   -0.779904   -2.309448
    100          1           0        4.331969   -0.626398    0.342357
    101          1           0        5.432808    1.220187   -3.075549
    102          1           0        5.753355   -0.345223   -3.551469
    103          1           0        4.077766    0.155157   -3.524627
    104          1           0        6.450235    1.474048   -0.764546
    105          1           0        5.882888    0.024386    0.344642
    106          1           0        7.333109   -1.612788   -0.954282
    107          1           0        7.631139   -0.419930   -2.105746
    108          1           0        8.930152    0.707747   -0.216884
    109          1           0        8.556732   -0.562470    0.887118
    110          1           0       10.140647   -0.293246   -1.786723
    111          1           0        9.132950   -2.722593   -1.309383
    112          1           0       10.897238   -2.709526   -1.228645
    113          1           0        9.846722   -2.681739    0.211386
    114          1           0       11.391091    0.817263    0.181814
    115          1           0       11.143235   -0.665287    1.169479
    116          1           0       12.855007   -1.959578   -0.627406
    117          1           0       12.779693   -0.322005   -1.518132
    118          1           0       13.676166    0.881059    0.308108
    119          1           0       13.949001   -0.680034    1.029096
    120          1           0       15.311006    0.108183   -1.311346
    121          1           0       15.181664   -2.536384   -0.854354
    122          1           0       16.800790   -2.017537   -0.846878
    123          1           0       15.664829   -2.208469    0.525486
    124          1           0       15.975873    1.666329    0.316641
    125          1           0       16.011785    0.591986    1.418790
    126          1           0       18.179106   -0.350233    0.017885
    127          1           0       17.858726    1.024171   -1.353244
    128          1           0       18.206519    2.983506    0.507660
    129          1           0       18.530758    1.586258    1.592623
    130          1           0       20.618731    0.781249    0.315220
    131          1           0       20.125671    3.395731   -1.309521
    132          1           0       21.496365    2.122703   -1.600114
    133          1           0       19.651882    1.552825   -1.835638
    134          1           0       20.660289    2.327434    2.203783
    135          1           0       21.853194    2.894886    0.816997
    136          1           0       20.652250    3.915416    1.194257
    137          1           0       -7.309970    1.875106    0.357599
    138          1           0       -7.573885   -0.093040   -0.294393
 ---------------------------------------------------------------------

 SCF Done:  E(RB3LYP) =  -2732.93204814     A.U. after   17 cycles

 Excitation energies and oscillator strengths:

 Excited State   1:      Singlet-A      1.9981 eV  620.51 nm  f=0.2423  <S**2>=0.000
     235 -> 237       -0.13787
     235 -> 238       -0.20902
     236 -> 237        0.65274
     236 -> 238       -0.10890
 This state for optimization and/or second-order correction.
 Total Energy, E(TD-HF/TD-KS) =  -2732.85861907
 Copying the excited state density for this state as the 1-particle RhoCI density.

 The electronic state is 1-A.
 Alpha  occ. eigenvalues --  -19.17626 -19.17301 -19.12785 -19.12635 -19.10595
 Alpha  occ. eigenvalues --  -14.37555 -14.36837 -14.31935 -14.30758 -10.31921
 Alpha  occ. eigenvalues --  -10.30070 -10.28427 -10.27349 -10.26851 -10.24297
 Alpha  occ. eigenvalues --  -10.23816 -10.23537 -10.23491 -10.23077 -10.22850
 Alpha  occ. eigenvalues --  -10.22205 -10.22122 -10.22046 -10.21832 -10.21680
 Alpha  occ. eigenvalues --  -10.21150 -10.21054 -10.20683 -10.20675 -10.20638
 Alpha  occ. eigenvalues --  -10.20631 -10.20567 -10.20523 -10.20428 -10.20391
 Alpha  occ. eigenvalues --  -10.20301 -10.20215 -10.20156 -10.20079 -10.20078
 Alpha  occ. eigenvalues --  -10.19862 -10.19818 -10.19806 -10.19618 -10.19523
 Alpha  occ. eigenvalues --  -10.19522 -10.19479 -10.19479 -10.19363 -10.19298
 Alpha  occ. eigenvalues --  -10.19190 -10.19092 -10.18939 -10.18757 -10.18742
 Alpha  occ. eigenvalues --  -10.18640 -10.18014 -10.17929 -10.17686 -10.17569
 Alpha  occ. eigenvalues --  -10.17352 -10.17348 -10.16994 -10.16760  -1.08322
 Alpha  occ. eigenvalues --   -1.05945  -1.01315  -0.99383  -0.99239  -0.98182
 Alpha  occ. eigenvalues --   -0.97969  -0.95012  -0.94180  -0.84622  -0.82753
 Alpha  occ. eigenvalues --   -0.82469  -0.82105  -0.81880  -0.81300  -0.80847
 Alpha  occ. eigenvalues --   -0.80128  -0.79540  -0.79350  -0.78486  -0.78158
 Alpha  occ. eigenvalues --   -0.76634  -0.76535  -0.76023  -0.74866  -0.74304
 Alpha  occ. eigenvalues --   -0.73497  -0.73235  -0.72406  -0.71538  -0.70891
 Alpha  occ. eigenvalues --   -0.69981  -0.69183  -0.68827  -0.68398  -0.67929
 Alpha  occ. eigenvalues --   -0.67690  -0.67221  -0.66511  -0.66394  -0.65492
 Alpha  occ. eigenvalues --   -0.64076  -0.63332  -0.63208  -0.62897  -0.61493
 Alpha  occ. eigenvalues --   -0.61150  -0.59177  -0.58662  -0.58452  -0.57987
 Alpha  occ. eigenvalues --   -0.57414  -0.56836  -0.56521  -0.55289  -0.55028
 Alpha  occ. eigenvalues --   -0.54777  -0.54581  -0.54047  -0.52935  -0.52672
 Alpha  occ. eigenvalues --   -0.52536  -0.52383  -0.51790  -0.51318  -0.50869
 Alpha  occ. eigenvalues --   -0.49777  -0.48847  -0.48696  -0.48493  -0.48332
 Alpha  occ. eigenvalues --   -0.48078  -0.47754  -0.47260  -0.47035  -0.46838
 Alpha  occ. eigenvalues --   -0.46362  -0.46049  -0.45888  -0.45478  -0.45351
 Alpha  occ. eigenvalues --   -0.45111  -0.44962  -0.44889  -0.44811  -0.44776
 Alpha  occ. eigenvalues --   -0.44598  -0.44420  -0.44132  -0.43990  -0.43690
 Alpha  occ. eigenvalues --   -0.43644  -0.43382  -0.43315  -0.42760  -0.42699
 Alpha  occ. eigenvalues --   -0.42329  -0.42086  -0.41903  -0.41486  -0.41329
 Alpha  occ. eigenvalues --   -0.41244  -0.40953  -0.40842  -0.40684  -0.40388
 Alpha  occ. eigenvalues --   -0.40340  -0.40081  -0.39492  -0.39443  -0.39382
 Alpha  occ. eigenvalues --   -0.39169  -0.38845  -0.38680  -0.38485  -0.38267
 Alpha  occ. eigenvalues --   -0.38066  -0.37904  -0.37792  -0.37729  -0.37537
 Alpha  occ. eigenvalues --   -0.37330  -0.37096  -0.36879  -0.36779  -0.36700
 Alpha  occ. eigenvalues --   -0.36331  -0.36110  -0.36082  -0.35687  -0.35547
 Alpha  occ. eigenvalues --   -0.35465  -0.35419  -0.34962  -0.34807  -0.34773
 Alpha  occ. eigenvalues --   -0.34705  -0.34507  -0.34467  -0.34008  -0.33903
 Alpha  occ. eigenvalues --   -0.33518  -0.33062  -0.32827  -0.32748  -0.32461
 Alpha  occ. eigenvalues --   -0.32191  -0.32171  -0.31815  -0.31780  -0.31615
 Alpha  occ. eigenvalues --   -0.30915  -0.30859  -0.30664  -0.30044  -0.29925
 Alpha  occ. eigenvalues --   -0.29922  -0.29753  -0.28173  -0.27959  -0.27647
 Alpha  occ. eigenvalues --   -0.27156  -0.26831  -0.26678  -0.26612  -0.25933
 Alpha  occ. eigenvalues --   -0.25200  -0.24698  -0.24201  -0.22166  -0.20645
 Alpha  occ. eigenvalues --   -0.18485
 Alpha virt. eigenvalues --   -0.10869  -0.07297  -0.04782  -0.02770  -0.01267
 Alpha virt. eigenvalues --   -0.00725  -0.00253   0.00580   0.02256   0.03250
 Alpha virt. eigenvalues --    0.03536   0.03599   0.03839   0.04389   0.04519

 Mulliken charges:
               1
     1  C   -0.006812
     2  C   -0.005966
     3  C   -0.060171
     4  C   -0.055126
     5  N   -0.144982
     6  C   -0.094254
     7  C    0.059251
     8  C    0.021178
     9  C   -0.035561
    10  C   -0.010261
    11  C    0.054151
    12  C    0.025700
    13  C    0.230834
    14  O   -0.272822
    15  O   -0.361567
    16  N    0.027412
    17  C    0.119872
    18  C   -0.143826
    19  C    0.030269
    20  C   -0.036023
    21  C    0.032197
    22  C    0.090042
    23  C   -0.096541
    24  N   -0.229192
    25  C    0.057550
    26  C   -0.002557
    27  C   -0.147351
    28  C    0.047810
    29  C   -0.078395
    30  C    0.108844
    31  C    0.106002
    32  N   -0.058406
    33  C    0.106184
    34  C   -0.133646
    35  C   -0.021564
    36  C    0.070435
    37  C    0.062063
    38  C    0.064739
    39  O   -0.190836
    40  C    0.001107
    41  C    0.192818
    42  O   -0.279057
    43  O   -0.307991
    44  C    0.121689
    45  C    0.205899
    46  C   -0.081130
    47  C   -0.169191
    48  C    0.103989
    49  C    0.040602
    50  C    0.020657
    51  C    0.100875
    52  C   -0.067785
    53  C    0.083254
    54  C   -0.035972
    55  C    0.079953
    56  C    0.066768
    57  C    0.073485
    58  C    0.033914
    59  C    0.080390
    60  C   -0.099215
    61  C    0.090023
    62  C   -0.170686
    63  C   -0.055899
    64  C    0.072413
    65  H   -0.082123
    66  H    0.012579
    67  H   -0.052133
    68  H   -0.031822
    69  H    0.000238
    70  H    0.018176
    71  H    0.031624
    72  H    0.041034
    73  H    0.020974
    74  H    0.004667
    75  H    0.004692
    76  H    0.041876
    77  H    0.010319
    78  H    0.057240
    79  H    0.050858
    80  H   -0.082462
    81  H    0.049643
    82  H    0.037504
    83  H    0.033186
    84  H    0.027289
    85  H    0.058272
    86  H   -0.035875
    87  H   -0.002993
    88  H    0.007106
    89  H    0.004656
    90  H   -0.065671
    91  H    0.051315
    92  H    0.014801
    93  H    0.056644
    94  H    0.048604
    95  H    0.053441
    96  H    0.098075
    97  H    0.053266
    98  H    0.061204
    99  H    0.055854
   100  H    0.010386
   101  H   -0.009061
   102  H    0.023697
   103  H    0.006092
   104  H    0.023791
   105  H   -0.000162
   106  H    0.003790
   107  H   -0.032377
   108  H   -0.085121
   109  H    0.001559
   110  H   -0.008936
   111  H    0.001091
   112  H   -0.003921
   113  H   -0.010703
   114  H   -0.003959
   115  H    0.005802
   116  H    0.025754
   117  H   -0.036997
   118  H   -0.007045
   119  H   -0.068359
   120  H   -0.066140
   121  H   -0.021482
   122  H    0.021496
   123  H   -0.024205
   124  H   -0.049935
   125  H   -0.025082
   126  H    0.028102
   127  H    0.012388
   128  H    0.019164
   129  H   -0.033124
   130  H    0.011846
   131  H    0.016553
   132  H    0.009812
   133  H    0.037998
   134  H    0.025656
   135  H   -0.008240
   136  H   -0.000797
   137  H    0.101555
   138  H    0.227474
 Sum of Mulliken charges =   0.00000

 Dipole moment (field-independent basis, Debye):
    X=              1.3635    Y=              4.0570    Z=             -0.1146  Tot=              4.2816
 Quadrupole moment (field-independent basis, Debye-Ang):
   XX=           -362.4658   YY=           -380.4410   ZZ=           -392.2417
   XY=            -21.2004   XZ=             21.3897   YZ=             -2.8386

 Normal termination of Gaussian 09 at Wed Jul 31 14:50:15 2019.
