 Gaussian 09, Revision D.01,
 Gaussian 09:  ES64L-G09RevD.01 24-Apr-2013

 --------------------------
 # td=(NStates=1) B3LYP/SVP
 --------------------------

 --
 TD
 --
 Symbolic Z-matrix:
 Charge =  0 Multiplicity = 1

                         Standard orientation:
 ---------------------------------------------------------------------
 Center     Atomic      Atomic             Coordinates (Angstroms)
 Number     Number       Type             X           Y           Z
 ---------------------------------------------------------------------
      1          6           0       -5.158543   -1.917215    0.405185
      2          6           0       -4.708107    2.894740    1.280528
      3          6           0       -9.314202    3.407023   -0.157850
      4          6           0       -9.840410   -1.465987   -0.924985
      5          7           0       -5.120947    0.488239    0.672382
      6          6           0       -4.563817   -0.659574    0.763566
      7          6           0       -3.032085   -0.555564    1.061952
      8          6           0       -3.140044    0.944946    1.779230
      9          6           0       -4.400022    1.449786    1.223247
     10          6           0       -3.045703    1.001644    3.228019
     11          6           0       -2.061088   -0.744672    0.012763
     12          6           0       -0.603786   -0.925342    0.590667
     13          6           0        0.454012   -1.214795   -0.491353
     14          8           0        0.188448   -1.705507   -1.564879
     15          8           0        1.750292   -0.973149   -0.026191
     16          7           0       -7.012939    2.853215    0.443410
     17          6           0       -5.887874    3.444432    0.991359
     18          6           0       -6.243117    4.882462    1.065377
     19          6           0       -7.514630    5.032836    0.550815
     20          6           0       -8.059630    3.779535    0.238229
     21          6           0       -5.253435    5.915011    1.491874
     22          6           0       -8.231833    6.300329    0.451557
     23          6           0       -9.145211    6.607090   -0.510386
     24          7           0       -9.172024    0.982154   -0.565984
     25          6           0       -9.757382    2.091481   -0.554741
     26          6           0      -11.206842    1.901404   -0.896074
     27          6           0      -11.480589    0.634726   -1.075578
     28          6           0      -10.136461    0.036629   -0.965790
     29          6           0      -12.149706    3.029736   -1.149880
     30          6           0      -12.669786   -0.279755   -1.569622
     31          6           0      -12.678003   -0.380814   -3.022420
     32          7           0       -7.456628   -1.319528   -0.284487
     33          6           0       -8.599673   -2.076947   -0.699894
     34          6           0       -8.229315   -3.450858   -0.681924
     35          6           0       -6.861045   -3.429280   -0.425752
     36          6           0       -6.473596   -2.033027   -0.054815
     37          6           0       -9.106833   -4.632240   -0.861198
     38          6           0       -5.739207   -4.292085   -0.082670
     39          8           0       -5.627317   -5.458317   -0.118838
     40          6           0       -4.544185   -3.308309    0.384003
     41          6           0       -3.962550   -3.867833    1.668868
     42          8           0       -4.449648   -3.541249    2.752860
     43          8           0       -2.962764   -4.707715    1.525266
     44          6           0       -2.569358   -5.366657    2.783337
     45          6           0        2.653475   -1.356581   -1.092366
     46          6           0        4.005972   -0.880366   -0.552586
     47          6           0        4.927276   -0.143631   -1.142950
     48          6           0        4.932751    0.335698   -2.490717
     49          6           0        6.257907    0.145032   -0.365231
     50          6           0        7.533849   -0.421653   -0.900161
     51          6           0        8.776295   -0.227853   -0.083653
     52          6           0       10.074738   -0.724782   -0.662654
     53          6           0       10.070365   -2.204298   -0.696577
     54          6           0       11.385581   -0.266848    0.146922
     55          6           0       12.673310   -0.525032   -0.507634
     56          6           0       13.869360    0.145692    0.362475
     57          6           0       15.275775   -0.204722   -0.199972
     58          6           0       15.680969   -1.788661    0.048759
     59          6           0       16.248824    0.727689    0.497959
     60          6           0       17.634460    0.648360   -0.166873
     61          6           0       18.603358    1.792907    0.456695
     62          6           0       20.076352    1.820711   -0.113114
     63          6           0       20.115929    2.136141   -1.617347
     64          6           0       20.983961    2.729256    0.836986
     65          1           0       -3.980011    3.450409    1.814706
     66          1           0       -9.982201    4.219898   -0.228257
     67          1           0      -10.440810   -2.071572   -1.344341
     68          1           0       -2.785226   -1.257834    1.945942
     69          1           0       -2.304507    1.349942    1.216539
     70          1           0       -2.035799    0.264952    3.623736
     71          1           0       -3.024811    1.938679    3.701781
     72          1           0       -3.948386    0.438481    3.851515
     73          1           0       -2.436893   -1.603528   -0.453683
     74          1           0       -1.992213    0.071236   -0.891204
     75          1           0       -0.215332   -0.047788    1.283191
     76          1           0       -0.536050   -1.797557    1.309689
     77          1           0       -4.499794    5.677829    0.941237
     78          1           0       -5.706073    6.875813    1.344013
     79          1           0       -4.884043    5.546058    2.429102
     80          1           0       -7.885544    7.183117    1.157790
     81          1           0      -10.013854    5.968006   -1.032220
     82          1           0       -9.512166    7.655698   -0.583940
     83          1           0      -12.162790    3.985418   -0.422236
     84          1           0      -12.096906    3.582009   -2.296580
     85          1           0      -13.293584    2.569170   -0.961764
     86          1           0      -12.533800   -1.374810   -1.160175
     87          1           0      -13.373670    0.269393   -0.849705
     88          1           0      -12.731974    0.437956   -3.826948
     89          1           0      -11.774982   -0.956743   -3.366152
     90          1           0      -13.522102   -1.005400   -3.350677
     91          1           0       -9.734136   -4.943970    0.184485
     92          1           0       -9.736007   -4.716294   -1.743052
     93          1           0       -8.413802   -5.519880   -1.182298
     94          1           0       -3.805791   -3.403698   -0.461518
     95          1           0       -1.767612   -5.976875    2.501604
     96          1           0       -2.185730   -4.729156    3.559329
     97          1           0       -3.478017   -5.950229    3.221765
     98          1           0        2.853459   -2.326044   -1.356280
     99          1           0        2.411336   -0.948104   -2.139137
    100          1           0        4.183449   -1.173167    0.498349
    101          1           0        5.047505    1.511630   -2.566945
    102          1           0        5.573508   -0.160026   -3.271369
    103          1           0        3.814271    0.132111   -2.785597
    104          1           0        6.529853    1.356772   -0.299372
    105          1           0        6.327731   -0.151877    0.782013
    106          1           0        7.334063   -1.522379   -1.228809
    107          1           0        7.717742    0.058090   -2.046759
    108          1           0        8.822596    0.881088   -0.017385
    109          1           0        8.473359   -0.708519    0.830482
    110          1           0       10.074835   -0.345520   -1.637866
    111          1           0        9.215160   -2.639224   -1.280623
    112          1           0       11.089531   -2.557646   -1.148104
    113          1           0        9.870628   -2.882785    0.061422
    114          1           0       11.128435    0.970764    0.223666
    115          1           0       11.296489   -0.803736    1.081637
    116          1           0       12.980094   -1.482020   -0.709753
    117          1           0       12.672432   -0.306601   -1.608614
    118          1           0       13.734338    1.328439    0.643111
    119          1           0       13.924605   -0.406917    1.385844
    120          1           0       15.341732    0.031145   -1.274487
    121          1           0       15.066315   -2.359775   -0.484376
    122          1           0       16.673156   -1.823608   -0.250187
    123          1           0       15.482545   -1.947322    1.137613
    124          1           0       15.830327    1.902563    0.745791
    125          1           0       16.287610    0.446132    1.593079
    126          1           0       17.912162   -0.504033   -0.169624
    127          1           0       17.607451    0.923582   -1.238688
    128          1           0       18.003769    2.716254    0.237753
    129          1           0       18.674734    1.553585    1.569450
    130          1           0       20.362446    0.757341   -0.134090
    131          1           0       19.958934    3.395606   -1.899613
    132          1           0       21.141443    1.914833   -2.164069
    133          1           0       19.228350    1.570547   -2.254401
    134          1           0       20.989997    2.394992    1.934256
    135          1           0       21.916011    2.744812    0.489084
    136          1           0       20.722052    3.697742    0.781025
    137          1           0       -7.131142    1.873962    0.497363
    138          1           0       -7.401731   -0.121975   -0.482083
 ---------------------------------------------------------------------

 SCF Done:  E(RB3LYP) =  -2732.96971334     A.U. after   16 cycles

 Excitation energies and oscillator strengths:

 Excited State   1:      Singlet-A      2.0667 eV  599.92 nm  f=0.1346  <S**2>=0.000
     235 -> 238        0.32315
     236 -> 237        0.62599
 This state for optimization and/or second-order correction.
 Total Energy, E(TD-HF/TD-KS) =  -2732.89376453
 Copying the excited state density for this state as the 1-particle RhoCI density.

 The electronic state is 1-A.
 Alpha  occ. eigenvalues --  -19.19093 -19.18739 -19.13845 -19.12014 -19.10974
 Alpha  occ. eigenvalues --  -14.37276 -14.36084 -14.32269 -14.30469 -10.32482
 Alpha  occ. eigenvalues --  -10.30937 -10.27252 -10.24813 -10.24686 -10.23762
 Alpha  occ. eigenvalues --  -10.23706 -10.23205 -10.23181 -10.23164 -10.22700
 Alpha  occ. eigenvalues --  -10.22510 -10.22194 -10.22119 -10.21939 -10.21778
 Alpha  occ. eigenvalues --  -10.21405 -10.21318 -10.21301 -10.21273 -10.21199
 Alpha  occ. eigenvalues --  -10.20961 -10.20883 -10.20821 -10.20751 -10.20547
 Alpha  occ. eigenvalues --  -10.20357 -10.20210 -10.20170 -10.20065 -10.19911
 Alpha  occ. eigenvalues --  -10.19853 -10.19827 -10.19724 -10.19590 -10.19584
 Alpha  occ. eigenvalues --  -10.19510 -10.19261 -10.19241 -10.19165 -10.19122
 Alpha  occ. eigenvalues --  -10.19088 -10.19043 -10.18976 -10.18721 -10.18633
 Alpha  occ. eigenvalues --  -10.18567 -10.18199 -10.18130 -10.18020 -10.17910
 Alpha  occ. eigenvalues --  -10.17719 -10.17498 -10.17193 -10.16817  -1.09713
 Alpha  occ. eigenvalues --   -1.09370  -1.04824  -1.01522  -0.99715  -0.98900
 Alpha  occ. eigenvalues --   -0.97659  -0.96858  -0.95250  -0.83530  -0.82721
 Alpha  occ. eigenvalues --   -0.82543  -0.81826  -0.81671  -0.81415  -0.81187
 Alpha  occ. eigenvalues --   -0.80392  -0.80259  -0.78892  -0.78471  -0.77270
 Alpha  occ. eigenvalues --   -0.76886  -0.76023  -0.75446  -0.75167  -0.74559
 Alpha  occ. eigenvalues --   -0.73751  -0.73397  -0.72519  -0.71980  -0.71589
 Alpha  occ. eigenvalues --   -0.70228  -0.69396  -0.68827  -0.67901  -0.67325
 Alpha  occ. eigenvalues --   -0.67005  -0.66747  -0.65508  -0.65244  -0.64443
 Alpha  occ. eigenvalues --   -0.63991  -0.63163  -0.62128  -0.61958  -0.61239
 Alpha  occ. eigenvalues --   -0.61122  -0.59272  -0.58255  -0.57854  -0.57583
 Alpha  occ. eigenvalues --   -0.56975  -0.56824  -0.56007  -0.55581  -0.55320
 Alpha  occ. eigenvalues --   -0.55001  -0.54736  -0.53940  -0.53704  -0.53275
 Alpha  occ. eigenvalues --   -0.52024  -0.51880  -0.51241  -0.50871  -0.50001
 Alpha  occ. eigenvalues --   -0.49681  -0.49489  -0.49162  -0.48855  -0.48367
 Alpha  occ. eigenvalues --   -0.48065  -0.47855  -0.47721  -0.47312  -0.47085
 Alpha  occ. eigenvalues --   -0.46744  -0.46228  -0.45982  -0.45903  -0.45786
 Alpha  occ. eigenvalues --   -0.45513  -0.45093  -0.44737  -0.44682  -0.44462
 Alpha  occ. eigenvalues --   -0.44205  -0.44093  -0.44084  -0.43934  -0.43612
 Alpha  occ. eigenvalues --   -0.43379  -0.43261  -0.43025  -0.42666  -0.42553
 Alpha  occ. eigenvalues --   -0.42418  -0.42197  -0.42120  -0.42015  -0.41676
 Alpha  occ. eigenvalues --   -0.41535  -0.41229  -0.41171  -0.40866  -0.40698
 Alpha  occ. eigenvalues --   -0.40435  -0.40349  -0.40213  -0.39895  -0.39748
 Alpha  occ. eigenvalues --   -0.39581  -0.39267  -0.38833  -0.38704  -0.38660
 Alpha  occ. eigenvalues --   -0.38357  -0.38230  -0.37924  -0.37673  -0.37413
 Alpha  occ. eigenvalues --   -0.37395  -0.37305  -0.37108  -0.36980  -0.36855
 Alpha  occ. eigenvalues --   -0.36591  -0.36513  -0.36150  -0.36027  -0.35822
 Alpha  occ. eigenvalues --   -0.35516  -0.35489  -0.35210  -0.34989  -0.34860
 Alpha  occ. eigenvalues --   -0.34697  -0.34324  -0.34257  -0.33576  -0.33564
 Alpha  occ. eigenvalues --   -0.33393  -0.32858  -0.32669  -0.32506  -0.32471
 Alpha  occ. eigenvalues --   -0.31672  -0.31543  -0.31331  -0.30738  -0.30597
 Alpha  occ. eigenvalues --   -0.30556  -0.30509  -0.30405  -0.29836  -0.29490
 Alpha  occ. eigenvalues --   -0.29283  -0.28923  -0.28714  -0.28643  -0.27032
 Alpha  occ. eigenvalues --   -0.26965  -0.26865  -0.26439  -0.26407  -0.25825
 Alpha  occ. eigenvalues --   -0.25228  -0.24430  -0.23868  -0.23675  -0.20243
 Alpha  occ. eigenvalues --   -0.18539
 Alpha virt. eigenvalues --   -0.09651  -0.08403  -0.04486  -0.02290  -0.01083
 Alpha virt. eigenvalues --    0.00125   0.00757   0.00872   0.02470   0.03561
 Alpha virt. eigenvalues --    0.03641   0.04050   0.04455   0.04606   0.04878

 Mulliken charges:
               1
     1  C    0.037533
     2  C   -0.084337
     3  C   -0.072344
     4  C    0.064178
     5  N   -0.069544
     6  C   -0.095144
     7  C   -0.160501
     8  C    0.018402
     9  C   -0.066310
    10  C    0.009752
    11  C    0.146175
    12  C   -0.029338
    13  C    0.198977
    14  O   -0.223567
    15  O   -0.323216
    16  N   -0.090835
    17  C    0.167057
    18  C   -0.225316
    19  C    0.060934
    20  C    0.111060
    21  C    0.297464
    22  C   -0.076573
    23  C   -0.093658
    24  N   -0.159813
    25  C    0.066027
    26  C   -0.139047
    27  C   -0.071581
    28  C    0.002050
    29  C   -0.076616
    30  C    0.052837
    31  C    0.015738
    32  N   -0.037774
    33  C    0.047710
    34  C   -0.082874
    35  C   -0.029068
    36  C   -0.029191
    37  C    0.008910
    38  C    0.046737
    39  O   -0.126988
    40  C   -0.043748
    41  C    0.189264
    42  O   -0.267759
    43  O   -0.278680
    44  C    0.196448
    45  C    0.284839
    46  C   -0.104512
    47  C   -0.076489
    48  C    0.023404
    49  C    0.009013
    50  C   -0.104624
    51  C    0.093313
    52  C    0.014993
    53  C    0.004422
    54  C    0.035749
    55  C    0.094489
    56  C   -0.030872
    57  C   -0.095649
    58  C    0.114317
    59  C   -0.043050
    60  C   -0.013261
    61  C   -0.000805
    62  C   -0.043824
    63  C   -0.120385
    64  C    0.130749
    65  H   -0.042576
    66  H   -0.072816
    67  H   -0.102924
    68  H    0.021422
    69  H   -0.008707
    70  H    0.026690
    71  H    0.010818
    72  H    0.042636
    73  H   -0.012148
    74  H    0.034484
    75  H    0.049605
    76  H    0.045509
    77  H   -0.036844
    78  H    0.016602
    79  H    0.001650
    80  H    0.039647
    81  H    0.064149
    82  H    0.022581
    83  H    0.038160
    84  H    0.050883
    85  H    0.028517
    86  H    0.024258
    87  H    0.032889
    88  H    0.027056
    89  H    0.012966
    90  H    0.005509
    91  H    0.072999
    92  H    0.023996
    93  H    0.042649
    94  H    0.056996
    95  H    0.016305
    96  H    0.027880
    97  H    0.059520
    98  H    0.007628
    99  H    0.031990
   100  H   -0.004072
   101  H    0.034243
   102  H    0.052218
   103  H   -0.000240
   104  H    0.006412
   105  H    0.003288
   106  H    0.005092
   107  H   -0.007029
   108  H   -0.011701
   109  H   -0.016857
   110  H   -0.035328
   111  H   -0.010780
   112  H    0.006042
   113  H   -0.020437
   114  H    0.014416
   115  H   -0.003580
   116  H   -0.049642
   117  H   -0.020432
   118  H    0.025477
   119  H   -0.000940
   120  H   -0.008763
   121  H   -0.017964
   122  H   -0.010444
   123  H    0.015262
   124  H    0.007636
   125  H   -0.012450
   126  H    0.016218
   127  H   -0.001995
   128  H    0.012657
   129  H    0.008928
   130  H   -0.001618
   131  H    0.014346
   132  H    0.033871
   133  H    0.042802
   134  H    0.019244
   135  H   -0.034606
   136  H   -0.024024
   137  H    0.119827
   138  H    0.239696
 Sum of Mulliken charges =   0.00000

 Dipole moment (field-independent basis, Debye):
    X=              1.5796    Y=              2.8909    Z=              0.5775  Tot=              3.3446
 Quadrupole moment (field-independent basis, Debye-Ang):
   XX=           -360.9662   YY=           -381.5815   ZZ=           -393.3967
   XY=            -28.1038   XZ=             10.2756   YZ=              2.7760

 Normal termination of Gaussian 09 at Sat Aug  3 03:17:35 2019.
