 Gaussian 09, Revision D.01,
 Gaussian 09:  ES64L-G09RevD.01 24-Apr-2013

 --------------------------
 # td=(NStates=1) B3LYP/SVP
 --------------------------

 --
 TD
 --
 Symbolic Z-matrix:
 Charge =  0 Multiplicity = 1

                         Standard orientation:
 ---------------------------------------------------------------------
 Center     Atomic      Atomic             Coordinates (Angstroms)
 Number     Number       Type             X           Y           Z
 ---------------------------------------------------------------------
      1          6           0       -5.137800   -1.950135    0.443961
      2          6           0       -4.803350    2.828344    1.440995
      3          6           0       -9.372131    3.227538   -0.272472
      4          6           0       -9.758068   -1.631337   -0.996761
      5          7           0       -5.278701    0.538739    0.779316
      6          6           0       -4.628804   -0.694896    0.718765
      7          6           0       -3.033457   -0.404198    1.059921
      8          6           0       -3.132224    1.001239    1.824748
      9          6           0       -4.448308    1.441801    1.268049
     10          6           0       -3.117074    1.014499    3.327685
     11          6           0       -2.032077   -0.516276   -0.041023
     12          6           0       -0.613933   -0.620961    0.411098
     13          6           0        0.462746   -0.914485   -0.805660
     14          8           0        0.058722   -1.191313   -1.938546
     15          8           0        1.627422   -0.525692   -0.416286
     16          7           0       -7.076047    2.733328    0.497920
     17          6           0       -6.015770    3.466702    1.011302
     18          6           0       -6.274732    4.832688    1.025989
     19          6           0       -7.632875    4.872275    0.528554
     20          6           0       -8.061111    3.522792    0.116353
     21          6           0       -5.408311    5.951326    1.520330
     22          6           0       -8.409081    6.203112    0.361332
     23          6           0       -9.317314    6.626022   -0.444600
     24          7           0       -9.147635    0.735844   -0.442043
     25          6           0       -9.808323    1.933690   -0.588357
     26          6           0      -11.265112    1.744843   -0.964342
     27          6           0      -11.245521    0.379589   -1.163921
     28          6           0      -10.024767   -0.277471   -0.810150
     29          6           0      -12.331475    2.745496   -1.155380
     30          6           0      -12.579579   -0.492436   -1.567347
     31          6           0      -12.683256   -0.612835   -3.057474
     32          7           0       -7.491576   -1.365619   -0.190552
     33          6           0       -8.560129   -2.206059   -0.677993
     34          6           0       -8.071778   -3.539675   -0.718541
     35          6           0       -6.750125   -3.481525   -0.344117
     36          6           0       -6.455058   -2.079510    0.029100
     37          6           0       -8.897657   -4.728513   -1.017019
     38          6           0       -5.625690   -4.312433    0.056669
     39          8           0       -5.374677   -5.531321    0.221444
     40          6           0       -4.411489   -3.227343    0.499942
     41          6           0       -3.903263   -3.665880    1.840309
     42          8           0       -4.276124   -3.254324    2.954495
     43          8           0       -2.912879   -4.584089    1.664293
     44          6           0       -2.376240   -5.183454    2.861843
     45          6           0        2.683902   -0.948004   -1.340493
     46          6           0        3.968488   -0.612757   -0.576441
     47          6           0        5.010506    0.105288   -1.229287
     48          6           0        4.985542    0.597982   -2.659583
     49          6           0        6.216168    0.361005   -0.379846
     50          6           0        7.551288   -0.397805   -0.990698
     51          6           0        8.779900   -0.319479   -0.131743
     52          6           0       10.107522   -0.688958   -0.652890
     53          6           0       10.158021   -2.204178   -1.019432
     54          6           0       11.363689   -0.299057    0.277351
     55          6           0       12.627054   -0.473047   -0.360455
     56          6           0       13.773689   -0.002236    0.501675
     57          6           0       15.193568   -0.278709   -0.250037
     58          6           0       15.637407   -1.816361   -0.035272
     59          6           0       16.221070    0.557375    0.468105
     60          6           0       17.534883    0.614242   -0.186945
     61          6           0       18.582283    1.549283    0.509614
     62          6           0       19.989093    1.683154   -0.109458
     63          6           0       20.102239    2.240120   -1.462690
     64          6           0       20.938431    2.387847    0.981729
     65          1           0       -4.133588    3.585410    1.851688
     66          1           0      -10.053616    4.083922   -0.364745
     67          1           0      -10.674405   -2.247978   -1.361780
     68          1           0       -2.705848   -1.165114    1.595657
     69          1           0       -2.236849    1.550414    1.368968
     70          1           0       -2.105619    0.773891    3.680734
     71          1           0       -3.287098    2.043822    3.927602
     72          1           0       -3.596477    0.121934    3.797051
     73          1           0       -2.340725   -1.434609   -0.537569
     74          1           0       -2.178507    0.327571   -0.705493
     75          1           0       -0.415104    0.332704    0.952056
     76          1           0       -0.472642   -1.333413    1.252793
     77          1           0       -4.648108    6.306122    0.743667
     78          1           0       -6.119026    6.706805    1.736723
     79          1           0       -4.762819    5.607109    2.474795
     80          1           0       -8.219664    6.951715    1.240380
     81          1           0       -9.551449    6.024856   -1.431447
     82          1           0       -9.615484    7.617132   -0.602444
     83          1           0      -12.525172    3.650245   -0.322439
     84          1           0      -11.902763    3.242487   -1.916678
     85          1           0      -13.262476    2.164861   -1.388328
     86          1           0      -12.492536   -1.679025   -0.861954
     87          1           0      -13.465935   -0.175425   -1.287074
     88          1           0      -12.712502    0.524640   -3.403296
     89          1           0      -11.870882   -1.069835   -3.444832
     90          1           0      -13.457569   -0.960679   -3.255840
     91          1           0       -9.822910   -4.716722   -0.361020
     92          1           0       -9.061895   -4.902752   -2.137406
     93          1           0       -8.448094   -5.782766   -0.754920
     94          1           0       -3.571190   -3.517696   -0.169817
     95          1           0       -1.913223   -6.232167    2.458508
     96          1           0       -1.674479   -4.453565    3.119531
     97          1           0       -3.161408   -5.456193    3.730354
     98          1           0        2.556570   -2.046852   -1.616249
     99          1           0        2.666282   -0.386096   -2.428347
    100          1           0        4.033263   -0.909571    0.545004
    101          1           0        5.467305    1.487706   -2.626637
    102          1           0        5.560966   -0.179631   -3.356271
    103          1           0        3.988030    0.640807   -2.953905
    104          1           0        6.766036    1.434737    0.055451
    105          1           0        6.210555   -0.250909    0.625568
    106          1           0        7.269031   -1.426019   -1.020563
    107          1           0        7.691860   -0.135883   -1.878004
    108          1           0        8.773403    0.672560    0.221907
    109          1           0        8.805281   -0.822177    0.855988
    110          1           0       10.601631   -0.243425   -1.445611
    111          1           0        9.539927   -2.570982   -1.670257
    112          1           0       11.041896   -2.599216   -1.515716
    113          1           0       10.070288   -2.860541   -0.075855
    114          1           0       11.040352    0.642214    0.654611
    115          1           0       11.359339   -0.830333    1.134989
    116          1           0       12.861259   -1.484159   -0.687397
    117          1           0       12.549243    0.247495   -1.358179
    118          1           0       13.694363    1.125971    0.667529
    119          1           0       13.735277   -0.332903    1.642111
    120          1           0       15.078787    0.171780   -1.119422
    121          1           0       14.795325   -2.656099   -0.446892
    122          1           0       16.520433   -1.765258   -0.648903
    123          1           0       15.972731   -2.079959    1.061304
    124          1           0       15.621586    1.565421    0.732669
    125          1           0       16.606605    0.029521    1.424958
    126          1           0       17.989011   -0.323582   -0.263058
    127          1           0       17.414701    1.181040   -1.268095
    128          1           0       18.308122    2.516675    0.594263
    129          1           0       18.788397    1.266429    1.591518
    130          1           0       20.187642    0.567490   -0.145288
    131          1           0       19.510382    3.171241   -1.388768
    132          1           0       21.089779    2.303269   -1.663812
    133          1           0       19.547872    1.402890   -2.202143
    134          1           0       20.880068    2.004896    1.943352
    135          1           0       22.080697    2.505593    0.401000
    136          1           0       20.534059    3.419674    0.849092
    137          1           0       -7.149472    1.792119    0.481225
    138          1           0       -7.830477   -0.385193   -0.172222
 ---------------------------------------------------------------------

 SCF Done:  E(RB3LYP) =  -2732.89634407     A.U. after   16 cycles

 Excitation energies and oscillator strengths:

 Excited State   1:      Singlet-A      2.0416 eV  607.28 nm  f=0.1937  <S**2>=0.000
     235 -> 237       -0.11731
     235 -> 238       -0.25316
     236 -> 237        0.63897
 This state for optimization and/or second-order correction.
 Total Energy, E(TD-HF/TD-KS) =  -2732.82131561
 Copying the excited state density for this state as the 1-particle RhoCI density.

 The electronic state is 1-A.
 Alpha  occ. eigenvalues --  -19.19995 -19.17152 -19.12614 -19.12192 -19.11248
 Alpha  occ. eigenvalues --  -14.36751 -14.36256 -14.32503 -14.30665 -10.32268
 Alpha  occ. eigenvalues --  -10.30782 -10.28446 -10.27260 -10.25237 -10.23845
 Alpha  occ. eigenvalues --  -10.23555 -10.23546 -10.23368 -10.23086 -10.22984
 Alpha  occ. eigenvalues --  -10.22118 -10.22040 -10.21691 -10.21669 -10.21638
 Alpha  occ. eigenvalues --  -10.21491 -10.21413 -10.21374 -10.21039 -10.20861
 Alpha  occ. eigenvalues --  -10.20828 -10.20826 -10.20768 -10.20600 -10.20410
 Alpha  occ. eigenvalues --  -10.20186 -10.20168 -10.20163 -10.20058 -10.19996
 Alpha  occ. eigenvalues --  -10.19793 -10.19653 -10.19505 -10.19489 -10.19398
 Alpha  occ. eigenvalues --  -10.19250 -10.19063 -10.19015 -10.18979 -10.18773
 Alpha  occ. eigenvalues --  -10.18743 -10.18705 -10.18652 -10.18608 -10.18516
 Alpha  occ. eigenvalues --  -10.18171 -10.18079 -10.17949 -10.17677 -10.17201
 Alpha  occ. eigenvalues --  -10.17176 -10.16465 -10.16300 -10.16031  -1.11768
 Alpha  occ. eigenvalues --   -1.07614  -1.00380  -1.00236  -0.99534  -0.99259
 Alpha  occ. eigenvalues --   -0.98137  -0.93754  -0.92878  -0.84683  -0.83039
 Alpha  occ. eigenvalues --   -0.82199  -0.81978  -0.81619  -0.81609  -0.81195
 Alpha  occ. eigenvalues --   -0.80441  -0.80026  -0.79485  -0.79095  -0.78083
 Alpha  occ. eigenvalues --   -0.77202  -0.76542  -0.76141  -0.75615  -0.74580
 Alpha  occ. eigenvalues --   -0.73894  -0.73289  -0.72701  -0.72232  -0.71360
 Alpha  occ. eigenvalues --   -0.69947  -0.69601  -0.68959  -0.68161  -0.67907
 Alpha  occ. eigenvalues --   -0.67603  -0.67267  -0.66134  -0.65962  -0.65305
 Alpha  occ. eigenvalues --   -0.64159  -0.63085  -0.62719  -0.61886  -0.61268
 Alpha  occ. eigenvalues --   -0.61094  -0.59950  -0.58409  -0.57960  -0.57726
 Alpha  occ. eigenvalues --   -0.57409  -0.56996  -0.56734  -0.56526  -0.55686
 Alpha  occ. eigenvalues --   -0.54943  -0.54275  -0.54092  -0.53844  -0.52953
 Alpha  occ. eigenvalues --   -0.52881  -0.51967  -0.51616  -0.50722  -0.50071
 Alpha  occ. eigenvalues --   -0.49663  -0.49177  -0.48899  -0.48543  -0.48284
 Alpha  occ. eigenvalues --   -0.47801  -0.47777  -0.47633  -0.47469  -0.47211
 Alpha  occ. eigenvalues --   -0.46867  -0.46574  -0.46414  -0.46137  -0.45990
 Alpha  occ. eigenvalues --   -0.45840  -0.45413  -0.45356  -0.45094  -0.44761
 Alpha  occ. eigenvalues --   -0.44621  -0.44539  -0.44477  -0.43949  -0.43673
 Alpha  occ. eigenvalues --   -0.43409  -0.43131  -0.42987  -0.42889  -0.42649
 Alpha  occ. eigenvalues --   -0.42363  -0.42308  -0.42199  -0.41882  -0.41456
 Alpha  occ. eigenvalues --   -0.41405  -0.41348  -0.40887  -0.40797  -0.40533
 Alpha  occ. eigenvalues --   -0.40419  -0.40115  -0.40059  -0.39840  -0.39587
 Alpha  occ. eigenvalues --   -0.39446  -0.39319  -0.39178  -0.38882  -0.38791
 Alpha  occ. eigenvalues --   -0.38469  -0.38344  -0.38147  -0.37950  -0.37692
 Alpha  occ. eigenvalues --   -0.37568  -0.37102  -0.37051  -0.36871  -0.36713
 Alpha  occ. eigenvalues --   -0.36632  -0.36382  -0.36318  -0.36155  -0.35678
 Alpha  occ. eigenvalues --   -0.35558  -0.35416  -0.35066  -0.34832  -0.34578
 Alpha  occ. eigenvalues --   -0.34410  -0.34241  -0.33878  -0.33842  -0.33682
 Alpha  occ. eigenvalues --   -0.33505  -0.33269  -0.32831  -0.32567  -0.32186
 Alpha  occ. eigenvalues --   -0.32111  -0.31344  -0.31215  -0.31100  -0.30979
 Alpha  occ. eigenvalues --   -0.30581  -0.30387  -0.29865  -0.29797  -0.29445
 Alpha  occ. eigenvalues --   -0.29367  -0.28816  -0.28576  -0.28050  -0.27761
 Alpha  occ. eigenvalues --   -0.27182  -0.27055  -0.26938  -0.26470  -0.25937
 Alpha  occ. eigenvalues --   -0.24619  -0.24357  -0.24226  -0.22641  -0.20231
 Alpha  occ. eigenvalues --   -0.18834
 Alpha virt. eigenvalues --   -0.10508  -0.07653  -0.04411  -0.02585  -0.01225
 Alpha virt. eigenvalues --   -0.00426  -0.00025   0.00935   0.02301   0.03792
 Alpha virt. eigenvalues --    0.03799   0.04012   0.04229   0.04400   0.04463

 Mulliken charges:
               1
     1  C    0.029155
     2  C   -0.039678
     3  C   -0.102420
     4  C   -0.107393
     5  N   -0.151888
     6  C   -0.047651
     7  C    0.017895
     8  C   -0.052225
     9  C    0.021494
    10  C    0.058071
    11  C    0.125219
    12  C   -0.025510
    13  C    0.194678
    14  O   -0.251257
    15  O   -0.239384
    16  N    0.053409
    17  C    0.054166
    18  C   -0.112453
    19  C   -0.046022
    20  C    0.079993
    21  C    0.084922
    22  C   -0.032435
    23  C   -0.062533
    24  N   -0.291276
    25  C    0.086716
    26  C   -0.137989
    27  C   -0.081031
    28  C    0.070481
    29  C    0.097031
    30  C   -0.042557
    31  C    0.221812
    32  N    0.008763
    33  C    0.077772
    34  C   -0.086101
    35  C   -0.016416
    36  C    0.081860
    37  C    0.019016
    38  C    0.095358
    39  O   -0.204250
    40  C   -0.073043
    41  C    0.210519
    42  O   -0.262380
    43  O   -0.316208
    44  C    0.141377
    45  C    0.164947
    46  C   -0.079946
    47  C   -0.155335
    48  C    0.162406
    49  C   -0.064187
    50  C    0.132493
    51  C    0.102440
    52  C   -0.042658
    53  C    0.067945
    54  C    0.099942
    55  C    0.035766
    56  C   -0.048872
    57  C    0.044541
    58  C   -0.028136
    59  C   -0.030357
    60  C    0.047422
    61  C    0.044337
    62  C   -0.152381
    63  C    0.076252
    64  C    0.002978
    65  H   -0.040537
    66  H   -0.016383
    67  H    0.025483
    68  H   -0.091500
    69  H    0.008183
    70  H   -0.010672
    71  H    0.036060
    72  H    0.036398
    73  H    0.003523
    74  H   -0.009605
    75  H    0.014341
    76  H    0.014212
    77  H    0.049341
    78  H    0.007470
    79  H    0.047611
    80  H    0.030789
    81  H    0.028447
    82  H    0.011534
    83  H    0.049092
    84  H    0.007435
    85  H    0.033252
    86  H    0.003576
    87  H   -0.040329
    88  H    0.006630
    89  H   -0.012169
    90  H   -0.098339
    91  H    0.044337
    92  H    0.046591
    93  H    0.043162
    94  H    0.059284
    95  H    0.057849
    96  H    0.019901
    97  H    0.070588
    98  H    0.050317
    99  H    0.059155
   100  H    0.035218
   101  H    0.002583
   102  H    0.054227
   103  H   -0.009758
   104  H    0.038062
   105  H    0.015268
   106  H   -0.010009
   107  H   -0.071276
   108  H   -0.049693
   109  H   -0.016516
   110  H   -0.049476
   111  H   -0.050386
   112  H   -0.017743
   113  H   -0.004544
   114  H   -0.034585
   115  H   -0.060167
   116  H    0.000693
   117  H    0.004311
   118  H   -0.013725
   119  H    0.005191
   120  H   -0.058131
   121  H    0.041618
   122  H    0.015151
   123  H    0.041041
   124  H    0.013540
   125  H   -0.006979
   126  H   -0.010566
   127  H    0.000755
   128  H   -0.056892
   129  H   -0.017155
   130  H   -0.018956
   131  H    0.008738
   132  H   -0.008055
   133  H    0.031877
   134  H    0.016448
   135  H    0.023845
   136  H    0.007196
   137  H    0.086217
   138  H    0.150401
 Sum of Mulliken charges =   0.00000

 Dipole moment (field-independent basis, Debye):
    X=              2.6524    Y=              4.4279    Z=             -0.4628  Tot=              5.1822
 Quadrupole moment (field-independent basis, Debye-Ang):
   XX=           -346.5409   YY=           -381.4201   ZZ=           -396.0599
   XY=            -28.2801   XZ=             16.0629   YZ=              2.8139

 Normal termination of Gaussian 09 at Sat Aug  3 17:30:17 2019.
