 Gaussian 09, Revision D.01,
 Gaussian 09:  ES64L-G09RevD.01 24-Apr-2013

 --------------------------
 # td=(NStates=1) B3LYP/SVP
 --------------------------

 --
 TD
 --
 Symbolic Z-matrix:
 Charge =  0 Multiplicity = 1

                         Standard orientation:
 ---------------------------------------------------------------------
 Center     Atomic      Atomic             Coordinates (Angstroms)
 Number     Number       Type             X           Y           Z
 ---------------------------------------------------------------------
      1          6           0       -5.135963   -1.845717    0.424097
      2          6           0       -4.778942    2.794424    1.357964
      3          6           0       -9.382612    3.355087   -0.309268
      4          6           0       -9.798951   -1.462351   -0.906210
      5          7           0       -5.104920    0.418771    0.709826
      6          6           0       -4.400977   -0.695229    0.758729
      7          6           0       -3.116060   -0.527827    1.132650
      8          6           0       -3.067585    0.943680    1.754456
      9          6           0       -4.359917    1.404150    1.202595
     10          6           0       -2.950687    1.025972    3.283993
     11          6           0       -2.075815   -0.834603    0.043297
     12          6           0       -0.553942   -0.732023    0.506294
     13          6           0        0.351409   -1.207880   -0.561223
     14          8           0        0.160106   -2.008310   -1.548195
     15          8           0        1.659463   -0.678265   -0.357907
     16          7           0       -7.035460    2.812774    0.332657
     17          6           0       -5.982197    3.544013    0.872726
     18          6           0       -6.289422    4.794549    1.032748
     19          6           0       -7.589204    5.032422    0.519500
     20          6           0       -8.090016    3.693409    0.188380
     21          6           0       -5.491990    5.885611    1.707567
     22          6           0       -8.285541    6.296550    0.479575
     23          6           0       -9.034614    6.782742   -0.513601
     24          7           0       -9.176846    0.930754   -0.540546
     25          6           0       -9.927460    2.051580   -0.549137
     26          6           0      -11.289788    1.878887   -0.970614
     27          6           0      -11.448591    0.545943   -1.175615
     28          6           0      -10.085056   -0.078442   -0.820882
     29          6           0      -12.269861    2.880989   -1.044173
     30          6           0      -12.677910   -0.209359   -1.578844
     31          6           0      -12.735449   -0.536849   -3.194043
     32          7           0       -7.557441   -1.254580   -0.126152
     33          6           0       -8.612165   -2.067214   -0.708718
     34          6           0       -8.127522   -3.351938   -0.532115
     35          6           0       -6.843555   -3.364880   -0.066451
     36          6           0       -6.478356   -2.073632    0.100026
     37          6           0       -9.040933   -4.568774   -0.852010
     38          6           0       -5.688987   -4.362287    0.154117
     39          8           0       -5.662900   -5.499600   -0.024397
     40          6           0       -4.459380   -3.218794    0.418136
     41          6           0       -3.808167   -3.840892    1.654458
     42          8           0       -4.118216   -3.414305    2.780593
     43          8           0       -2.957959   -4.850072    1.415553
     44          6           0       -2.532181   -5.430385    2.604962
     45          6           0        2.715964   -1.129365   -1.225917
     46          6           0        4.011716   -0.669381   -0.569801
     47          6           0        5.016052   -0.141538   -1.298006
     48          6           0        5.130566    0.251549   -2.841290
     49          6           0        6.289638    0.262376   -0.634234
     50          6           0        7.481643   -0.495880   -1.019674
     51          6           0        8.770360   -0.247520   -0.175273
     52          6           0       10.172176   -0.855548   -0.755570
     53          6           0       10.091253   -2.434844   -0.537322
     54          6           0       11.335791   -0.274182    0.089476
     55          6           0       12.695313   -0.724888   -0.398657
     56          6           0       13.845056    0.045419    0.361346
     57          6           0       15.287185   -0.239390   -0.116240
     58          6           0       15.643201   -1.729787    0.199562
     59          6           0       16.340042    0.746994    0.604059
     60          6           0       17.667083    0.792696   -0.113103
     61          6           0       18.569589    1.802243    0.579100
     62          6           0       19.980600    1.915023   -0.128972
     63          6           0       19.985936    2.355123   -1.581171
     64          6           0       20.892907    2.782699    0.706434
     65          1           0       -4.138180    3.483812    1.833631
     66          1           0       -9.943654    4.193517   -0.275760
     67          1           0      -10.700155   -2.038558   -1.171589
     68          1           0       -2.735644   -1.103598    2.040168
     69          1           0       -2.088854    1.578948    1.537945
     70          1           0       -1.959567    1.012763    3.873933
     71          1           0       -3.496998    2.129251    3.460304
     72          1           0       -3.430942    0.199532    3.881084
     73          1           0       -2.306901   -1.887598   -0.305591
     74          1           0       -2.426545   -0.197851   -0.759898
     75          1           0       -0.120810    0.245317    0.953436
     76          1           0       -0.604424   -1.438202    1.210356
     77          1           0       -4.450349    6.156099    1.207762
     78          1           0       -5.982309    6.822576    1.813510
     79          1           0       -4.991695    5.828881    2.745190
     80          1           0       -8.067232    6.802482    1.330551
     81          1           0       -9.220615    6.014818   -1.319913
     82          1           0       -9.501262    7.800458   -0.418292
     83          1           0      -12.255545    3.482878   -0.140866
     84          1           0      -12.333687    3.746758   -1.808072
     85          1           0      -13.259344    2.580611   -1.447833
     86          1           0      -12.769480   -1.005733   -0.903974
     87          1           0      -13.606337    0.161602   -1.354565
     88          1           0      -12.732444    0.478832   -3.805104
     89          1           0      -11.851338   -1.085026   -3.456388
     90          1           0      -13.676337   -1.077932   -3.491372
     91          1           0       -9.844881   -4.688786   -0.004916
     92          1           0       -9.517589   -4.496856   -1.887932
     93          1           0       -8.299068   -5.339944   -0.895949
     94          1           0       -3.862655   -3.342079   -0.548558
     95          1           0       -1.757789   -6.143469    2.293884
     96          1           0       -1.931831   -4.832734    3.142748
     97          1           0       -3.178421   -6.027858    3.283623
     98          1           0        2.587191   -2.220982   -1.403239
     99          1           0        2.669388   -0.451935   -2.155561
    100          1           0        3.772411   -0.707335    0.512163
    101          1           0        5.647668    1.180193   -2.952070
    102          1           0        5.714404   -0.563587   -3.312072
    103          1           0        4.287352    0.030310   -3.536890
    104          1           0        6.464286    1.379657   -0.634123
    105          1           0        6.195324    0.289425    0.543231
    106          1           0        7.203554   -1.710349   -0.871794
    107          1           0        7.694911   -0.386488   -2.096315
    108          1           0        8.844706    0.827572   -0.311628
    109          1           0        8.721998   -0.222209    0.991844
    110          1           0       10.311503   -0.718902   -1.816966
    111          1           0        8.986019   -2.674095   -1.023418
    112          1           0       10.985942   -3.077489   -0.754951
    113          1           0        9.987815   -2.595905    0.743931
    114          1           0       11.242190    0.842670    0.169839
    115          1           0       11.258448   -0.728814    1.064534
    116          1           0       12.843713   -1.872929   -0.148565
    117          1           0       12.677523   -0.298260   -1.407491
    118          1           0       13.554431    1.046287    0.209300
    119          1           0       13.573841   -0.293541    1.490250
    120          1           0       15.425073   -0.148125   -1.114660
    121          1           0       15.151491   -2.482528   -0.345457
    122          1           0       16.782159   -2.045698   -0.061996
    123          1           0       15.443209   -2.188181    1.399904
    124          1           0       15.939180    1.634367    0.631641
    125          1           0       16.351443    0.227243    1.690893
    126          1           0       18.124981   -0.260938   -0.170704
    127          1           0       17.632962    1.108948   -1.230078
    128          1           0       18.049988    2.865949    0.709917
    129          1           0       18.701150    1.562004    1.649400
    130          1           0       20.445582    1.087662   -0.010934
    131          1           0       19.364008    3.240395   -1.807384
    132          1           0       21.101681    2.197945   -1.894125
    133          1           0       19.388723    1.758525   -2.299350
    134          1           0       20.841491    2.261627    1.648079
    135          1           0       21.809224    2.840483    0.190676
    136          1           0       20.491328    3.824211    0.709157
    137          1           0       -7.176384    1.821493    0.225367
    138          1           0       -7.752438   -0.217623    0.063727
 ---------------------------------------------------------------------

 SCF Done:  E(RB3LYP) =  -2733.02386005     A.U. after   17 cycles

 Excitation energies and oscillator strengths:

 Excited State   1:      Singlet-A      2.0440 eV  606.57 nm  f=0.1018  <S**2>=0.000
     235 -> 237        0.58493
     236 -> 237        0.14722
     236 -> 238       -0.35752
 This state for optimization and/or second-order correction.
 Total Energy, E(TD-HF/TD-KS) =  -2732.94874328
 Copying the excited state density for this state as the 1-particle RhoCI density.

 The electronic state is 1-A.
 Alpha  occ. eigenvalues --  -19.19340 -19.17070 -19.15076 -19.12905 -19.11921
 Alpha  occ. eigenvalues --  -14.36150 -14.35365 -14.31929 -14.30878 -10.32659
 Alpha  occ. eigenvalues --  -10.31945 -10.29693 -10.24218 -10.23520 -10.23329
 Alpha  occ. eigenvalues --  -10.23206 -10.23026 -10.22868 -10.22280 -10.22260
 Alpha  occ. eigenvalues --  -10.22089 -10.22081 -10.21758 -10.21599 -10.21278
 Alpha  occ. eigenvalues --  -10.20917 -10.20904 -10.20761 -10.20660 -10.20651
 Alpha  occ. eigenvalues --  -10.20593 -10.20563 -10.20417 -10.20413 -10.20099
 Alpha  occ. eigenvalues --  -10.20073 -10.20069 -10.20023 -10.19964 -10.19934
 Alpha  occ. eigenvalues --  -10.19870 -10.19825 -10.19814 -10.19736 -10.19728
 Alpha  occ. eigenvalues --  -10.19503 -10.19414 -10.19293 -10.19097 -10.19060
 Alpha  occ. eigenvalues --  -10.18876 -10.18854 -10.18778 -10.18775 -10.18649
 Alpha  occ. eigenvalues --  -10.18614 -10.18591 -10.18534 -10.18382 -10.18034
 Alpha  occ. eigenvalues --  -10.17777 -10.17760 -10.16879 -10.16556  -1.10841
 Alpha  occ. eigenvalues --   -1.08182  -1.06047  -0.99687  -0.97990  -0.97478
 Alpha  occ. eigenvalues --   -0.97428  -0.96694  -0.93568  -0.84274  -0.82509
 Alpha  occ. eigenvalues --   -0.82328  -0.81877  -0.81537  -0.80654  -0.80424
 Alpha  occ. eigenvalues --   -0.80319  -0.79661  -0.79127  -0.79057  -0.78083
 Alpha  occ. eigenvalues --   -0.77221  -0.76361  -0.76017  -0.74880  -0.74583
 Alpha  occ. eigenvalues --   -0.74108  -0.72708  -0.72274  -0.71060  -0.70461
 Alpha  occ. eigenvalues --   -0.70359  -0.69128  -0.68576  -0.67932  -0.67710
 Alpha  occ. eigenvalues --   -0.67445  -0.66003  -0.65941  -0.65285  -0.64988
 Alpha  occ. eigenvalues --   -0.64492  -0.63034  -0.62944  -0.62591  -0.61275
 Alpha  occ. eigenvalues --   -0.60266  -0.58468  -0.58376  -0.58249  -0.57711
 Alpha  occ. eigenvalues --   -0.57002  -0.56678  -0.56339  -0.56261  -0.55504
 Alpha  occ. eigenvalues --   -0.55225  -0.55120  -0.54296  -0.53927  -0.53723
 Alpha  occ. eigenvalues --   -0.53148  -0.52460  -0.51734  -0.51474  -0.50745
 Alpha  occ. eigenvalues --   -0.50049  -0.49749  -0.49493  -0.49208  -0.48645
 Alpha  occ. eigenvalues --   -0.48492  -0.48359  -0.48104  -0.47179  -0.47105
 Alpha  occ. eigenvalues --   -0.46989  -0.46393  -0.46301  -0.46203  -0.46108
 Alpha  occ. eigenvalues --   -0.45915  -0.45753  -0.45423  -0.45316  -0.45019
 Alpha  occ. eigenvalues --   -0.44866  -0.44279  -0.44148  -0.44013  -0.43731
 Alpha  occ. eigenvalues --   -0.43432  -0.43278  -0.43034  -0.42685  -0.42664
 Alpha  occ. eigenvalues --   -0.42246  -0.42083  -0.41940  -0.41851  -0.41593
 Alpha  occ. eigenvalues --   -0.41224  -0.41174  -0.40736  -0.40278  -0.40152
 Alpha  occ. eigenvalues --   -0.39989  -0.39818  -0.39562  -0.39512  -0.39249
 Alpha  occ. eigenvalues --   -0.38921  -0.38860  -0.38553  -0.38464  -0.38110
 Alpha  occ. eigenvalues --   -0.37988  -0.37978  -0.37851  -0.37526  -0.37355
 Alpha  occ. eigenvalues --   -0.37272  -0.36928  -0.36731  -0.36672  -0.36567
 Alpha  occ. eigenvalues --   -0.36522  -0.36450  -0.36145  -0.35960  -0.35884
 Alpha  occ. eigenvalues --   -0.35366  -0.35234  -0.35191  -0.35109  -0.34996
 Alpha  occ. eigenvalues --   -0.34282  -0.34133  -0.33874  -0.33837  -0.33327
 Alpha  occ. eigenvalues --   -0.33129  -0.32851  -0.32761  -0.32416  -0.32258
 Alpha  occ. eigenvalues --   -0.32146  -0.31722  -0.31532  -0.31498  -0.31246
 Alpha  occ. eigenvalues --   -0.31085  -0.30849  -0.30685  -0.30366  -0.30328
 Alpha  occ. eigenvalues --   -0.29493  -0.28936  -0.28297  -0.28064  -0.27825
 Alpha  occ. eigenvalues --   -0.27688  -0.27627  -0.27548  -0.26005  -0.25661
 Alpha  occ. eigenvalues --   -0.25175  -0.24690  -0.24293  -0.23012  -0.19454
 Alpha  occ. eigenvalues --   -0.19300
 Alpha virt. eigenvalues --   -0.10527  -0.07858  -0.04254  -0.02302  -0.01612
 Alpha virt. eigenvalues --   -0.00272   0.00047   0.00563   0.01642   0.03854
 Alpha virt. eigenvalues --    0.03876   0.04269   0.04660   0.04831   0.05022

 Mulliken charges:
               1
     1  C    0.063386
     2  C   -0.036345
     3  C   -0.013053
     4  C   -0.107678
     5  N   -0.114284
     6  C   -0.053253
     7  C   -0.029081
     8  C   -0.084703
     9  C    0.037878
    10  C   -0.039185
    11  C    0.005313
    12  C    0.140304
    13  C    0.210595
    14  O   -0.285411
    15  O   -0.375758
    16  N   -0.063559
    17  C    0.074088
    18  C   -0.038446
    19  C    0.011336
    20  C    0.019122
    21  C    0.031457
    22  C   -0.043017
    23  C   -0.010851
    24  N   -0.251038
    25  C    0.095454
    26  C   -0.046265
    27  C   -0.087903
    28  C    0.035099
    29  C    0.048746
    30  C    0.102744
    31  C   -0.029557
    32  N   -0.160090
    33  C    0.184044
    34  C   -0.194825
    35  C   -0.025737
    36  C    0.139145
    37  C    0.070291
    38  C    0.091405
    39  O   -0.074818
    40  C   -0.168555
    41  C    0.221897
    42  O   -0.267787
    43  O   -0.261568
    44  C    0.238417
    45  C    0.242768
    46  C   -0.120993
    47  C   -0.069262
    48  C    0.065535
    49  C    0.024304
    50  C   -0.006328
    51  C    0.011891
    52  C   -0.044660
    53  C   -0.085608
    54  C    0.023359
    55  C    0.001790
    56  C    0.016977
    57  C    0.030709
    58  C   -0.069585
    59  C    0.098934
    60  C    0.009801
    61  C   -0.022573
    62  C   -0.005737
    63  C    0.009539
    64  C    0.081979
    65  H   -0.048003
    66  H   -0.079588
    67  H   -0.015605
    68  H    0.012462
    69  H    0.024796
    70  H    0.026195
    71  H    0.031044
    72  H    0.034165
    73  H    0.037295
    74  H    0.006269
    75  H    0.061734
    76  H   -0.004486
    77  H    0.023455
    78  H   -0.003604
    79  H    0.024031
    80  H   -0.029303
    81  H    0.042130
    82  H    0.039618
    83  H    0.019900
    84  H    0.006185
    85  H    0.004591
    86  H   -0.015081
    87  H   -0.037307
    88  H    0.029763
    89  H    0.019061
    90  H    0.025991
    91  H    0.053912
    92  H    0.034016
    93  H    0.024548
    94  H    0.081099
    95  H   -0.001621
    96  H   -0.021917
    97  H    0.040716
    98  H    0.046499
    99  H    0.025220
   100  H    0.010651
   101  H    0.031528
   102  H    0.023575
   103  H    0.014411
   104  H    0.000129
   105  H   -0.006904
   106  H    0.021455
   107  H    0.005265
   108  H   -0.025010
   109  H    0.013299
   110  H   -0.007054
   111  H    0.041106
   112  H    0.041225
   113  H    0.009949
   114  H   -0.002305
   115  H   -0.021251
   116  H    0.033075
   117  H   -0.013314
   118  H   -0.025381
   119  H    0.008115
   120  H   -0.044316
   121  H    0.002110
   122  H    0.015112
   123  H    0.017193
   124  H   -0.059331
   125  H    0.018211
   126  H    0.003337
   127  H    0.001252
   128  H   -0.001867
   129  H   -0.015795
   130  H   -0.070200
   131  H    0.004071
   132  H    0.026820
   133  H   -0.004674
   134  H    0.003766
   135  H   -0.017881
   136  H   -0.004162
   137  H    0.132770
   138  H    0.172046
 Sum of Mulliken charges =   0.00000

 Dipole moment (field-independent basis, Debye):
    X=              0.7149    Y=              4.2529    Z=              0.4296  Tot=              4.3339
 Quadrupole moment (field-independent basis, Debye-Ang):
   XX=           -345.5885   YY=           -383.5463   ZZ=           -393.7940
   XY=            -23.4781   XZ=             -3.3683   YZ=             -0.4134

 Normal termination of Gaussian 09 at Tue Jul 30 18:21:28 2019.
