 Gaussian 09, Revision D.01,
 Gaussian 09:  ES64L-G09RevD.01 24-Apr-2013

 --------------------------
 # td=(NStates=1) B3LYP/SVP
 --------------------------

 --
 TD
 --
 Symbolic Z-matrix:
 Charge =  0 Multiplicity = 1

                         Standard orientation:
 ---------------------------------------------------------------------
 Center     Atomic      Atomic             Coordinates (Angstroms)
 Number     Number       Type             X           Y           Z
 ---------------------------------------------------------------------
      1          6           0       -5.198554   -1.967313    0.620689
      2          6           0       -4.753903    2.738588    1.589204
      3          6           0       -9.262345    3.286543   -0.350989
      4          6           0       -9.807562   -1.513885   -0.996344
      5          7           0       -5.216746    0.522368    0.916994
      6          6           0       -4.596594   -0.701859    0.926557
      7          6           0       -3.125802   -0.573307    1.339794
      8          6           0       -3.095310    0.857303    1.893331
      9          6           0       -4.381689    1.410413    1.430740
     10          6           0       -3.052555    0.897251    3.516824
     11          6           0       -2.146347   -0.714542    0.188085
     12          6           0       -0.662095   -0.654142    0.669958
     13          6           0        0.351967   -0.985067   -0.476445
     14          8           0        0.123065   -1.503110   -1.570539
     15          8           0        1.578919   -0.747134   -0.086299
     16          7           0       -7.067763    2.786671    0.595380
     17          6           0       -5.971478    3.392483    1.104315
     18          6           0       -6.259817    4.743790    1.203167
     19          6           0       -7.503308    4.976595    0.559994
     20          6           0       -8.052302    3.722398    0.214559
     21          6           0       -5.379138    5.826393    1.844362
     22          6           0       -8.234049    6.223528    0.429990
     23          6           0       -8.880779    6.658061   -0.695377
     24          7           0       -9.188790    0.816184   -0.634350
     25          6           0       -9.811740    1.989784   -0.678184
     26          6           0      -11.157804    1.823854   -1.175297
     27          6           0      -11.297435    0.460821   -1.435260
     28          6           0      -10.101177   -0.114212   -1.020518
     29          6           0      -12.235096    2.968430   -1.476540
     30          6           0      -12.483970   -0.234754   -1.962403
     31          6           0      -12.594971   -0.484260   -3.499823
     32          7           0       -7.489925   -1.235876   -0.241886
     33          6           0       -8.586997   -2.062380   -0.680565
     34          6           0       -8.112529   -3.442364   -0.648229
     35          6           0       -6.810171   -3.466731   -0.194922
     36          6           0       -6.446917   -2.037647    0.192621
     37          6           0       -8.862509   -4.594906   -1.342539
     38          6           0       -5.803256   -4.335512    0.117620
     39          8           0       -5.666818   -5.498904    0.026795
     40          6           0       -4.520671   -3.278627    0.657552
     41          6           0       -3.875489   -3.702004    1.846757
     42          8           0       -4.076339   -3.363223    2.950057
     43          8           0       -3.085376   -4.771081    1.568874
     44          6           0       -2.535451   -5.542748    2.700655
     45          6           0        2.494574   -0.950898   -1.138379
     46          6           0        3.866500   -0.758819   -0.403675
     47          6           0        4.899991   -0.024219   -0.872101
     48          6           0        4.867579    0.897129   -2.110259
     49          6           0        6.265750    0.143003   -0.214346
     50          6           0        7.488484   -0.352793   -0.926270
     51          6           0        8.830928   -0.118994   -0.047035
     52          6           0        9.970944   -0.693096   -0.644997
     53          6           0       10.015442   -2.151721   -1.084441
     54          6           0       11.269847   -0.347219    0.185563
     55          6           0       12.694181   -0.464890   -0.575055
     56          6           0       13.840435    0.056385    0.176424
     57          6           0       15.234770   -0.113060   -0.626124
     58          6           0       15.520750   -1.610687   -0.882429
     59          6           0       16.277432    0.619150    0.262854
     60          6           0       17.784753    0.522794   -0.270304
     61          6           0       18.602321    1.519930    0.609045
     62          6           0       20.101734    1.582876    0.020988
     63          6           0       20.145711    2.128982   -1.354389
     64          6           0       21.014037    2.421854    1.036434
     65          1           0       -3.918300    3.291345    1.992183
     66          1           0       -9.919598    4.130050   -0.500111
     67          1           0      -10.597321   -2.113112   -1.592137
     68          1           0       -2.823395   -1.425760    2.023795
     69          1           0       -2.271820    1.516329    1.401199
     70          1           0       -1.967482    0.997957    3.787817
     71          1           0       -3.591626    1.851266    3.951771
     72          1           0       -3.641986    0.082637    3.993146
     73          1           0       -2.169989   -1.625448   -0.273439
     74          1           0       -2.312779    0.186354   -0.725188
     75          1           0       -0.465822    0.559317    0.869086
     76          1           0       -0.449592   -1.530667    1.418218
     77          1           0       -4.635499    6.032349    1.154492
     78          1           0       -5.936493    6.752652    2.072763
     79          1           0       -4.927086    5.317383    2.699095
     80          1           0       -8.214775    6.622645    1.413674
     81          1           0       -9.034553    5.951693   -1.489838
     82          1           0       -9.137285    7.746834   -1.031501
     83          1           0      -12.303765    3.339412   -0.346318
     84          1           0      -11.973388    3.836777   -2.146894
     85          1           0      -13.114827    2.503651   -1.893311
     86          1           0      -12.574312   -1.183116   -1.323460
     87          1           0      -13.582088    0.328062   -1.711592
     88          1           0      -12.188921    0.489074   -4.103863
     89          1           0      -11.709223   -1.141725   -3.671220
     90          1           0      -13.618534   -0.899497   -3.814767
     91          1           0       -9.908009   -4.755848   -1.000613
     92          1           0       -8.602241   -4.547230   -2.590803
     93          1           0       -8.184728   -5.423839   -0.940343
     94          1           0       -3.709643   -3.403210   -0.138820
     95          1           0       -1.696440   -6.112189    2.216977
     96          1           0       -2.213883   -4.878891    3.684411
     97          1           0       -3.282229   -6.298509    3.079920
     98          1           0        2.421405   -2.085898   -1.309732
     99          1           0        2.279418   -0.423579   -1.830609
    100          1           0        4.106431   -1.395710    0.614412
    101          1           0        5.317322    1.971450   -2.041595
    102          1           0        5.241314    0.270571   -3.038495
    103          1           0        3.770276    0.858496   -2.693632
    104          1           0        6.132143    1.374594   -0.126188
    105          1           0        6.241177   -0.557078    0.617890
    106          1           0        7.366156   -1.459914   -1.089205
    107          1           0        7.671023    0.154249   -1.776022
    108          1           0        8.921951    0.843766    0.280246
    109          1           0        8.558817   -0.462849    0.913104
    110          1           0       10.213943   -0.137059   -1.567173
    111          1           0        9.087341   -2.259529   -1.681854
    112          1           0       10.847089   -2.337136   -1.597860
    113          1           0        9.894309   -2.632483   -0.191963
    114          1           0       11.251117    0.754220    0.497444
    115          1           0       11.374427   -0.809660    1.203284
    116          1           0       12.401129   -1.636192   -0.923384
    117          1           0       12.626566    0.050462   -1.629715
    118          1           0       13.891354    1.004088    0.737261
    119          1           0       14.031194   -0.595822    1.101660
    120          1           0       14.999906    0.427522   -1.432458
    121          1           0       14.902602   -2.388060   -1.314645
    122          1           0       16.567901   -1.562133   -1.571315
    123          1           0       15.716890   -1.989081    0.045194
    124          1           0       16.074741    1.664058    0.551922
    125          1           0       16.324025   -0.053641    1.215738
    126          1           0       18.216611   -0.577825   -0.338221
    127          1           0       17.955970    1.114607   -1.415154
    128          1           0       18.242564    2.508339    0.457391
    129          1           0       18.341036    1.262956    1.577387
    130          1           0       20.374652    0.456450    0.019724
    131          1           0       19.759371    3.106085   -1.598062
    132          1           0       21.205561    2.292140   -1.854934
    133          1           0       19.427235    1.495726   -1.954732
    134          1           0       20.973197    1.887115    1.923127
    135          1           0       21.920295    2.279255    0.611827
    136          1           0       20.546810    3.568013    1.029552
    137          1           0       -6.752582    1.711067    0.281904
    138          1           0       -7.640020   -0.300235   -0.059579
 ---------------------------------------------------------------------

 SCF Done:  E(RB3LYP) =  -2732.94462863     A.U. after   17 cycles

 Excitation energies and oscillator strengths:

 Excited State   1:      Singlet-A      2.0591 eV  602.12 nm  f=0.1451  <S**2>=0.000
     235 -> 238       -0.32945
     236 -> 237        0.61903
 This state for optimization and/or second-order correction.
 Total Energy, E(TD-HF/TD-KS) =  -2732.86895703
 Copying the excited state density for this state as the 1-particle RhoCI density.

 The electronic state is 1-A.
 Alpha  occ. eigenvalues --  -19.18147 -19.16349 -19.13549 -19.12149 -19.11357
 Alpha  occ. eigenvalues --  -14.36723 -14.36202 -14.33114 -14.28936 -10.31484
 Alpha  occ. eigenvalues --  -10.29811 -10.28352 -10.25600 -10.24220 -10.24152
 Alpha  occ. eigenvalues --  -10.24106 -10.23971 -10.23485 -10.23423 -10.23057
 Alpha  occ. eigenvalues --  -10.22926 -10.22517 -10.22014 -10.21757 -10.21422
 Alpha  occ. eigenvalues --  -10.21071 -10.20974 -10.20929 -10.20902 -10.20871
 Alpha  occ. eigenvalues --  -10.20822 -10.20735 -10.20576 -10.20562 -10.20550
 Alpha  occ. eigenvalues --  -10.20422 -10.20397 -10.20283 -10.20258 -10.20193
 Alpha  occ. eigenvalues --  -10.20186 -10.20105 -10.20099 -10.20087 -10.19898
 Alpha  occ. eigenvalues --  -10.19880 -10.19680 -10.19657 -10.19533 -10.19388
 Alpha  occ. eigenvalues --  -10.19380 -10.18652 -10.18540 -10.18480 -10.18426
 Alpha  occ. eigenvalues --  -10.18366 -10.18266 -10.18238 -10.18118 -10.17615
 Alpha  occ. eigenvalues --  -10.17352 -10.17217 -10.16832 -10.16468  -1.11918
 Alpha  occ. eigenvalues --   -1.09080  -1.05758  -1.00127  -0.99876  -0.97463
 Alpha  occ. eigenvalues --   -0.96943  -0.95696  -0.94120  -0.85580  -0.83069
 Alpha  occ. eigenvalues --   -0.81875  -0.81506  -0.81282  -0.81150  -0.80751
 Alpha  occ. eigenvalues --   -0.80030  -0.79415  -0.78995  -0.78222  -0.77803
 Alpha  occ. eigenvalues --   -0.76911  -0.75500  -0.75348  -0.74527  -0.73871
 Alpha  occ. eigenvalues --   -0.73167  -0.72907  -0.72160  -0.71752  -0.70567
 Alpha  occ. eigenvalues --   -0.69596  -0.69088  -0.68663  -0.68019  -0.67796
 Alpha  occ. eigenvalues --   -0.67073  -0.66889  -0.66578  -0.66219  -0.65407
 Alpha  occ. eigenvalues --   -0.64524  -0.63529  -0.62980  -0.62052  -0.60806
 Alpha  occ. eigenvalues --   -0.60663  -0.59081  -0.58956  -0.58516  -0.57658
 Alpha  occ. eigenvalues --   -0.56883  -0.56824  -0.56337  -0.55439  -0.55392
 Alpha  occ. eigenvalues --   -0.55004  -0.54757  -0.53737  -0.53062  -0.52610
 Alpha  occ. eigenvalues --   -0.52333  -0.52012  -0.51325  -0.51088  -0.50691
 Alpha  occ. eigenvalues --   -0.50294  -0.49499  -0.49047  -0.48587  -0.48152
 Alpha  occ. eigenvalues --   -0.47672  -0.47508  -0.47342  -0.46983  -0.46878
 Alpha  occ. eigenvalues --   -0.46721  -0.46377  -0.46167  -0.45752  -0.45687
 Alpha  occ. eigenvalues --   -0.45398  -0.45033  -0.44982  -0.44743  -0.44716
 Alpha  occ. eigenvalues --   -0.44418  -0.43860  -0.43614  -0.43556  -0.43490
 Alpha  occ. eigenvalues --   -0.43330  -0.43127  -0.43005  -0.42822  -0.42456
 Alpha  occ. eigenvalues --   -0.42321  -0.42052  -0.41813  -0.41485  -0.41214
 Alpha  occ. eigenvalues --   -0.41104  -0.40958  -0.40538  -0.40470  -0.40321
 Alpha  occ. eigenvalues --   -0.40136  -0.39962  -0.39758  -0.39653  -0.39540
 Alpha  occ. eigenvalues --   -0.39320  -0.39258  -0.39135  -0.39044  -0.38940
 Alpha  occ. eigenvalues --   -0.38785  -0.38088  -0.37992  -0.37791  -0.37753
 Alpha  occ. eigenvalues --   -0.37521  -0.37350  -0.37160  -0.36986  -0.36607
 Alpha  occ. eigenvalues --   -0.36520  -0.36391  -0.36311  -0.36056  -0.35848
 Alpha  occ. eigenvalues --   -0.35677  -0.35662  -0.35451  -0.35197  -0.34991
 Alpha  occ. eigenvalues --   -0.34835  -0.34784  -0.34680  -0.34594  -0.34371
 Alpha  occ. eigenvalues --   -0.33787  -0.33551  -0.33380  -0.32570  -0.32478
 Alpha  occ. eigenvalues --   -0.31878  -0.31778  -0.31408  -0.30918  -0.30635
 Alpha  occ. eigenvalues --   -0.30340  -0.30068  -0.29678  -0.29436  -0.29329
 Alpha  occ. eigenvalues --   -0.28793  -0.28351  -0.27931  -0.27642  -0.27598
 Alpha  occ. eigenvalues --   -0.27509  -0.27219  -0.26314  -0.26205  -0.26066
 Alpha  occ. eigenvalues --   -0.25237  -0.24487  -0.23790  -0.21992  -0.20205
 Alpha  occ. eigenvalues --   -0.19340
 Alpha virt. eigenvalues --   -0.10497  -0.08504  -0.05257  -0.02737  -0.00103
 Alpha virt. eigenvalues --    0.00173   0.00365   0.00638   0.01854   0.02407
 Alpha virt. eigenvalues --    0.03580   0.03846   0.04123   0.04431   0.04458

 Mulliken charges:
               1
     1  C    0.006699
     2  C   -0.040095
     3  C   -0.056036
     4  C   -0.096919
     5  N   -0.179712
     6  C   -0.016371
     7  C   -0.022494
     8  C   -0.018985
     9  C   -0.054378
    10  C    0.020391
    11  C    0.014991
    12  C   -0.030374
    13  C    0.150736
    14  O   -0.270244
    15  O   -0.270583
    16  N   -0.149190
    17  C    0.091651
    18  C   -0.182572
    19  C    0.015234
    20  C    0.079417
    21  C    0.167074
    22  C   -0.041596
    23  C   -0.048690
    24  N   -0.189772
    25  C    0.053413
    26  C   -0.148461
    27  C   -0.036416
    28  C    0.013345
    29  C    0.056723
    30  C   -0.070486
    31  C   -0.005999
    32  N   -0.050853
    33  C    0.122824
    34  C   -0.128324
    35  C    0.016234
    36  C    0.122447
    37  C    0.009403
    38  C    0.039102
    39  O   -0.110119
    40  C   -0.106433
    41  C    0.154416
    42  O   -0.191880
    43  O   -0.333166
    44  C    0.121512
    45  C    0.423166
    46  C   -0.126822
    47  C   -0.135437
    48  C   -0.038220
    49  C    0.050551
    50  C    0.047971
    51  C    0.117185
    52  C   -0.048748
    53  C    0.161785
    54  C   -0.050794
    55  C   -0.031412
    56  C    0.026260
    57  C    0.008199
    58  C    0.030737
    59  C   -0.006132
    60  C   -0.104154
    61  C    0.066335
    62  C   -0.131679
    63  C    0.000233
    64  C    0.107837
    65  H   -0.042443
    66  H   -0.036531
    67  H    0.021421
    68  H    0.025909
    69  H    0.019955
    70  H    0.032122
    71  H    0.021563
    72  H    0.049547
    73  H   -0.013428
    74  H    0.030587
    75  H    0.063300
    76  H    0.064626
    77  H    0.007626
    78  H    0.016307
    79  H    0.023695
    80  H    0.010554
    81  H    0.028932
    82  H    0.058997
    83  H    0.046332
    84  H    0.036244
    85  H    0.013747
    86  H    0.020729
    87  H    0.014608
    88  H    0.029542
    89  H    0.004138
    90  H    0.046873
    91  H    0.048829
    92  H    0.078618
    93  H    0.049186
    94  H    0.068017
    95  H    0.044696
    96  H    0.062764
    97  H    0.044736
    98  H    0.034936
    99  H   -0.110003
   100  H    0.024771
   101  H    0.060273
   102  H    0.038707
   103  H    0.010352
   104  H    0.034625
   105  H   -0.016864
   106  H    0.017779
   107  H   -0.034975
   108  H   -0.053152
   109  H   -0.053018
   110  H   -0.024413
   111  H    0.000821
   112  H   -0.016030
   113  H   -0.021996
   114  H   -0.017535
   115  H   -0.004920
   116  H    0.025764
   117  H    0.003806
   118  H   -0.005106
   119  H   -0.023663
   120  H   -0.042610
   121  H    0.021342
   122  H    0.026585
   123  H   -0.022660
   124  H    0.011788
   125  H    0.006284
   126  H    0.037545
   127  H    0.016418
   128  H   -0.018985
   129  H   -0.027846
   130  H    0.004909
   131  H   -0.009194
   132  H    0.019011
   133  H    0.015872
   134  H   -0.009411
   135  H   -0.017185
   136  H    0.033645
   137  H    0.222507
   138  H    0.097697
 Sum of Mulliken charges =   0.00000

 Dipole moment (field-independent basis, Debye):
    X=              2.3944    Y=              3.8295    Z=              0.1900  Tot=              4.5204
 Quadrupole moment (field-independent basis, Debye-Ang):
   XX=           -378.8386   YY=           -380.1882   ZZ=           -396.1007
   XY=            -16.0772   XZ=             14.1483   YZ=             -2.1110

 Normal termination of Gaussian 09 at Fri Aug  2 03:45:30 2019.
