 Gaussian 09, Revision D.01,
 Gaussian 09:  ES64L-G09RevD.01 24-Apr-2013

 --------------------------
 # td=(NStates=1) B3LYP/SVP
 --------------------------

 --
 TD
 --
 Symbolic Z-matrix:
 Charge =  0 Multiplicity = 1

                         Standard orientation:
 ---------------------------------------------------------------------
 Center     Atomic      Atomic             Coordinates (Angstroms)
 Number     Number       Type             X           Y           Z
 ---------------------------------------------------------------------
      1          6           0       -5.110583   -1.883539    0.422173
      2          6           0       -4.764161    2.712637    1.411073
      3          6           0       -9.352006    3.351945   -0.227189
      4          6           0       -9.718342   -1.350448   -1.272122
      5          7           0       -5.206440    0.392760    0.875240
      6          6           0       -4.601700   -0.672329    0.815622
      7          6           0       -3.157005   -0.557050    1.301482
      8          6           0       -3.164806    0.850662    2.050319
      9          6           0       -4.510419    1.371364    1.452698
     10          6           0       -3.197574    0.720056    3.569274
     11          6           0       -2.042117   -0.726775    0.236214
     12          6           0       -0.679122   -0.755254    0.857192
     13          6           0        0.388423   -1.066943   -0.366230
     14          8           0        0.129651   -1.387936   -1.407951
     15          8           0        1.673522   -0.821884    0.024063
     16          7           0       -7.079989    2.761329    0.558984
     17          6           0       -6.029306    3.349977    1.142128
     18          6           0       -6.309902    4.736040    1.201253
     19          6           0       -7.540312    4.888903    0.547677
     20          6           0       -8.006518    3.664294    0.270695
     21          6           0       -5.250068    5.812346    1.516017
     22          6           0       -8.268876    6.218141    0.444451
     23          6           0       -8.996657    6.706485   -0.513776
     24          7           0       -9.088862    0.921096   -0.653397
     25          6           0       -9.812969    2.092274   -0.601340
     26          6           0      -11.224305    1.888489   -1.078413
     27          6           0      -11.378967    0.520569   -1.401470
     28          6           0       -9.973874   -0.019239   -1.119778
     29          6           0      -12.193033    3.014892   -1.223180
     30          6           0      -12.457901   -0.179700   -1.971294
     31          6           0      -12.511969   -0.380927   -3.597129
     32          7           0       -7.424558   -1.260043   -0.324879
     33          6           0       -8.511136   -2.017580   -0.830424
     34          6           0       -8.033679   -3.391593   -0.858161
     35          6           0       -6.798748   -3.375244   -0.365390
     36          6           0       -6.393250   -2.030493    0.036120
     37          6           0       -9.050586   -4.451332   -1.348693
     38          6           0       -5.759108   -4.263641   -0.082901
     39          8           0       -5.669587   -5.452005   -0.143554
     40          6           0       -4.558598   -3.324641    0.498774
     41          6           0       -4.057254   -3.757603    1.831619
     42          8           0       -4.198556   -3.156360    2.924919
     43          8           0       -3.385468   -4.864243    1.787965
     44          6           0       -2.762073   -5.422981    2.895480
     45          6           0        2.716731   -1.339524   -0.905798
     46          6           0        3.975879   -0.918729   -0.380541
     47          6           0        4.956881   -0.156809   -0.925265
     48          6           0        4.887908    0.376350   -2.314325
     49          6           0        6.207458    0.087717   -0.179855
     50          6           0        7.506248   -0.354579   -0.831754
     51          6           0        8.741522   -0.292728   -0.079354
     52          6           0       10.105953   -0.632882   -0.669462
     53          6           0       10.076445   -2.282677   -0.894465
     54          6           0       11.421144   -0.224527    0.084173
     55          6           0       12.731511   -0.555481   -0.591869
     56          6           0       13.877129    0.132718    0.190879
     57          6           0       15.245410   -0.108169   -0.425324
     58          6           0       15.521313   -1.650990   -0.669847
     59          6           0       16.356546    0.496286    0.443376
     60          6           0       17.722806    0.898534   -0.216395
     61          6           0       18.694344    1.713289    0.434421
     62          6           0       20.138741    1.659303   -0.040757
     63          6           0       20.169162    2.246473   -1.558559
     64          6           0       20.895343    2.564523    0.820366
     65          1           0       -3.987693    3.319983    2.003521
     66          1           0       -9.894715    4.336391   -0.209990
     67          1           0      -10.340479   -1.948324   -1.964305
     68          1           0       -3.040116   -1.485890    2.066242
     69          1           0       -2.224933    1.208158    1.806124
     70          1           0       -2.011450    0.225579    3.709585
     71          1           0       -3.284599    1.718955    3.945835
     72          1           0       -3.872646    0.036199    4.036863
     73          1           0       -2.264537   -1.611648   -0.321884
     74          1           0       -2.080350    0.123339   -0.501045
     75          1           0       -0.120407   -0.024922    1.628995
     76          1           0       -0.686579   -1.701976    1.377739
     77          1           0       -4.421804    5.585855    0.843044
     78          1           0       -5.726126    6.799807    1.677482
     79          1           0       -4.757449    5.765673    2.480940
     80          1           0       -7.995878    6.842976    1.225574
     81          1           0       -9.262916    6.064031   -1.227628
     82          1           0       -9.367722    7.618496   -0.462397
     83          1           0      -11.892607    3.709358   -0.371616
     84          1           0      -12.116718    3.554389   -2.294067
     85          1           0      -13.354719    2.687132   -1.220068
     86          1           0      -12.545648   -1.010798   -1.603785
     87          1           0      -13.456855    0.171210   -1.549819
     88          1           0      -12.757002    0.626484   -4.219240
     89          1           0      -11.388410   -0.619029   -3.839878
     90          1           0      -13.227613   -1.078368   -3.771186
     91          1           0       -9.979222   -4.176749   -0.836466
     92          1           0       -9.518075   -4.346924   -2.516340
     93          1           0       -8.712504   -5.557510   -1.147355
     94          1           0       -3.734379   -3.506769   -0.289203
     95          1           0       -2.543059   -6.564061    2.638421
     96          1           0       -1.818147   -4.814834    3.299070
     97          1           0       -3.517783   -5.584872    3.852586
     98          1           0        2.671076   -2.435018   -0.898500
     99          1           0        2.264572   -1.038093   -2.062738
    100          1           0        4.092808   -1.298737    0.481219
    101          1           0        5.360781    1.474657   -2.282863
    102          1           0        5.632746   -0.331554   -2.986041
    103          1           0        3.884672    0.424709   -2.654848
    104          1           0        6.378633    1.167062   -0.073893
    105          1           0        6.293770   -0.310280    0.856669
    106          1           0        7.482419   -1.428080   -1.214053
    107          1           0        7.712769    0.376453   -1.743385
    108          1           0        9.154192    0.918381    0.243716
    109          1           0        8.629213   -0.764072    0.843304
    110          1           0       10.149281   -0.206071   -1.715265
    111          1           0        9.211617   -2.627395   -1.436028
    112          1           0       10.940748   -2.601075   -1.309455
    113          1           0       10.030460   -2.832669    0.237658
    114          1           0       11.245191    0.857767    0.116005
    115          1           0       11.290335   -0.731516    1.023211
    116          1           0       12.600259   -1.789374   -0.696764
    117          1           0       12.561948   -0.303974   -1.562502
    118          1           0       13.502491    1.164031    0.445454
    119          1           0       14.055292   -0.399188    1.090698
    120          1           0       15.341421    0.327480   -1.347375
    121          1           0       14.970050   -2.310221   -1.304223
    122          1           0       16.565230   -1.655265   -1.088400
    123          1           0       15.521244   -2.143084    0.376965
    124          1           0       15.984684    1.649815    0.758490
    125          1           0       16.348500   -0.161022    1.433491
    126          1           0       18.175185   -0.220918   -0.614017
    127          1           0       17.371469    1.280615   -1.434937
    128          1           0       18.064319    2.813585    0.539130
    129          1           0       18.793178    1.134358    1.548653
    130          1           0       20.545833    0.559669   -0.018980
    131          1           0       20.048910    3.384848   -1.579128
    132          1           0       21.328183    1.947953   -1.956849
    133          1           0       19.498442    1.593249   -2.172054
    134          1           0       20.736615    2.297415    1.817084
    135          1           0       21.991548    2.806224    0.646464
    136          1           0       20.482624    3.567836    0.471668
    137          1           0       -7.279692    1.807818    0.623369
    138          1           0       -7.487279   -0.153398    0.083646
 ---------------------------------------------------------------------

 SCF Done:  E(RB3LYP) =  -2732.92032156     A.U. after   17 cycles

 Excitation energies and oscillator strengths:

 Excited State   1:      Singlet-A      2.0603 eV  601.78 nm  f=0.2387  <S**2>=0.000
     235 -> 237       -0.12326
     235 -> 238        0.25432
     236 -> 237        0.64333
 This state for optimization and/or second-order correction.
 Total Energy, E(TD-HF/TD-KS) =  -2732.84460787
 Copying the excited state density for this state as the 1-particle RhoCI density.

 The electronic state is 1-A.
 Alpha  occ. eigenvalues --  -19.18811 -19.15856 -19.12871 -19.12706 -19.11350
 Alpha  occ. eigenvalues --  -14.37049 -14.36421 -14.31414 -14.30814 -10.31798
 Alpha  occ. eigenvalues --  -10.30448 -10.27801 -10.27307 -10.25073 -10.24272
 Alpha  occ. eigenvalues --  -10.22809 -10.22765 -10.22334 -10.22287 -10.22276
 Alpha  occ. eigenvalues --  -10.22226 -10.22035 -10.22024 -10.21955 -10.21775
 Alpha  occ. eigenvalues --  -10.21522 -10.21175 -10.20968 -10.20923 -10.20832
 Alpha  occ. eigenvalues --  -10.20758 -10.20440 -10.20431 -10.20281 -10.20280
 Alpha  occ. eigenvalues --  -10.20183 -10.20172 -10.19944 -10.19830 -10.19658
 Alpha  occ. eigenvalues --  -10.19626 -10.19603 -10.19562 -10.19386 -10.19363
 Alpha  occ. eigenvalues --  -10.19304 -10.19172 -10.19120 -10.19103 -10.19052
 Alpha  occ. eigenvalues --  -10.18975 -10.18873 -10.18867 -10.18810 -10.18671
 Alpha  occ. eigenvalues --  -10.18606 -10.18484 -10.18441 -10.18225 -10.17960
 Alpha  occ. eigenvalues --  -10.17928 -10.17543 -10.17003 -10.16969  -1.11749
 Alpha  occ. eigenvalues --   -1.11393  -1.04263  -1.01272  -1.00815  -0.98614
 Alpha  occ. eigenvalues --   -0.98203  -0.97233  -0.92616  -0.85015  -0.83357
 Alpha  occ. eigenvalues --   -0.82320  -0.82198  -0.81496  -0.81303  -0.80480
 Alpha  occ. eigenvalues --   -0.80425  -0.80218  -0.79966  -0.79054  -0.77775
 Alpha  occ. eigenvalues --   -0.77554  -0.76638  -0.75964  -0.75227  -0.74547
 Alpha  occ. eigenvalues --   -0.74092  -0.73732  -0.72954  -0.71589  -0.71263
 Alpha  occ. eigenvalues --   -0.69424  -0.69124  -0.68268  -0.67797  -0.67044
 Alpha  occ. eigenvalues --   -0.66815  -0.66625  -0.66296  -0.65926  -0.64813
 Alpha  occ. eigenvalues --   -0.63797  -0.63272  -0.62967  -0.62242  -0.62019
 Alpha  occ. eigenvalues --   -0.60806  -0.58960  -0.58387  -0.57986  -0.57233
 Alpha  occ. eigenvalues --   -0.56961  -0.56742  -0.55807  -0.55596  -0.55185
 Alpha  occ. eigenvalues --   -0.54703  -0.54493  -0.54356  -0.53570  -0.53009
 Alpha  occ. eigenvalues --   -0.52952  -0.51824  -0.51791  -0.51100  -0.50546
 Alpha  occ. eigenvalues --   -0.50292  -0.49749  -0.49249  -0.49104  -0.48627
 Alpha  occ. eigenvalues --   -0.48544  -0.47895  -0.47720  -0.47455  -0.47199
 Alpha  occ. eigenvalues --   -0.47023  -0.46923  -0.46478  -0.46164  -0.45860
 Alpha  occ. eigenvalues --   -0.45688  -0.45560  -0.45424  -0.45324  -0.45072
 Alpha  occ. eigenvalues --   -0.44473  -0.44296  -0.44092  -0.43639  -0.43409
 Alpha  occ. eigenvalues --   -0.43251  -0.43129  -0.43013  -0.42972  -0.42655
 Alpha  occ. eigenvalues --   -0.42245  -0.42142  -0.41892  -0.41755  -0.41455
 Alpha  occ. eigenvalues --   -0.41226  -0.40986  -0.40721  -0.40338  -0.40136
 Alpha  occ. eigenvalues --   -0.40006  -0.39915  -0.39703  -0.39522  -0.39250
 Alpha  occ. eigenvalues --   -0.39101  -0.39017  -0.38651  -0.38609  -0.38458
 Alpha  occ. eigenvalues --   -0.38223  -0.38145  -0.37905  -0.37760  -0.37687
 Alpha  occ. eigenvalues --   -0.37588  -0.37079  -0.37014  -0.36870  -0.36771
 Alpha  occ. eigenvalues --   -0.36643  -0.36448  -0.36135  -0.36021  -0.35633
 Alpha  occ. eigenvalues --   -0.35597  -0.35542  -0.35257  -0.35130  -0.34792
 Alpha  occ. eigenvalues --   -0.34675  -0.34203  -0.34015  -0.33654  -0.33352
 Alpha  occ. eigenvalues --   -0.33282  -0.32832  -0.32647  -0.32531  -0.32527
 Alpha  occ. eigenvalues --   -0.32074  -0.31751  -0.31723  -0.31633  -0.31262
 Alpha  occ. eigenvalues --   -0.31147  -0.30917  -0.30518  -0.29845  -0.29250
 Alpha  occ. eigenvalues --   -0.28752  -0.27966  -0.27929  -0.27709  -0.27510
 Alpha  occ. eigenvalues --   -0.27443  -0.27249  -0.26949  -0.26742  -0.25843
 Alpha  occ. eigenvalues --   -0.25100  -0.24549  -0.24454  -0.22471  -0.20068
 Alpha  occ. eigenvalues --   -0.19211
 Alpha virt. eigenvalues --   -0.10909  -0.07211  -0.04048  -0.01232  -0.00571
 Alpha virt. eigenvalues --   -0.00508   0.00547   0.02074   0.02915   0.03541
 Alpha virt. eigenvalues --    0.03575   0.03753   0.03927   0.03969   0.04425

 Mulliken charges:
               1
     1  C    0.029513
     2  C   -0.036590
     3  C   -0.102264
     4  C   -0.120430
     5  N   -0.043782
     6  C   -0.117831
     7  C   -0.182784
     8  C    0.011308
     9  C   -0.020398
    10  C    0.051228
    11  C    0.098116
    12  C   -0.003911
    13  C    0.125551
    14  O   -0.134868
    15  O   -0.351562
    16  N    0.069116
    17  C    0.028910
    18  C   -0.155226
    19  C    0.000344
    20  C   -0.033900
    21  C    0.125078
    22  C   -0.044296
    23  C    0.114067
    24  N   -0.251785
    25  C    0.146518
    26  C   -0.113214
    27  C   -0.104072
    28  C    0.103631
    29  C   -0.003809
    30  C    0.186554
    31  C   -0.021120
    32  N   -0.139830
    33  C    0.058737
    34  C   -0.088345
    35  C    0.011124
    36  C    0.068406
    37  C    0.015595
    38  C    0.031877
    39  O   -0.130276
    40  C   -0.079119
    41  C    0.211454
    42  O   -0.282906
    43  O   -0.214689
    44  C    0.078089
    45  C    0.206118
    46  C    0.003203
    47  C   -0.113591
    48  C    0.040328
    49  C    0.127393
    50  C   -0.021007
    51  C    0.010721
    52  C   -0.107746
    53  C   -0.003785
    54  C    0.040469
    55  C    0.025140
    56  C    0.100345
    57  C   -0.006429
    58  C    0.007013
    59  C   -0.036211
    60  C   -0.101547
    61  C   -0.004548
    62  C   -0.109128
    63  C   -0.054950
    64  C    0.092003
    65  H    0.002159
    66  H   -0.002364
    67  H   -0.000011
    68  H    0.044094
    69  H   -0.030573
    70  H    0.016196
    71  H    0.004036
    72  H    0.035135
    73  H   -0.002551
    74  H    0.009213
    75  H    0.066064
    76  H    0.007160
    77  H    0.036709
    78  H    0.015651
    79  H   -0.003649
    80  H   -0.033526
    81  H   -0.020343
    82  H   -0.020812
    83  H    0.044828
    84  H    0.046790
    85  H    0.034420
    86  H   -0.102935
    87  H   -0.013618
    88  H    0.035836
    89  H    0.038634
    90  H    0.007891
    91  H    0.029339
    92  H    0.050898
    93  H    0.067094
    94  H    0.071212
    95  H    0.057199
    96  H    0.058816
    97  H    0.049784
    98  H    0.015194
    99  H    0.057368
   100  H   -0.096206
   101  H    0.028102
   102  H    0.058885
   103  H    0.015147
   104  H   -0.002585
   105  H   -0.006465
   106  H    0.010264
   107  H    0.007795
   108  H   -0.018745
   109  H   -0.027767
   110  H   -0.008112
   111  H    0.009477
   112  H   -0.016194
   113  H    0.007597
   114  H   -0.005335
   115  H   -0.005789
   116  H    0.019170
   117  H   -0.039548
   118  H    0.009647
   119  H   -0.024497
   120  H   -0.044594
   121  H    0.016560
   122  H    0.006873
   123  H    0.005541
   124  H    0.003731
   125  H    0.018746
   126  H    0.004382
   127  H    0.013866
   128  H    0.037247
   129  H    0.019935
   130  H    0.021464
   131  H    0.038517
   132  H    0.021073
   133  H    0.034030
   134  H   -0.008266
   135  H    0.006897
   136  H   -0.004846
   137  H    0.108098
   138  H    0.232567
 Sum of Mulliken charges =   0.00000

 Dipole moment (field-independent basis, Debye):
    X=              1.1401    Y=              2.1977    Z=              0.0637  Tot=              2.4766
 Quadrupole moment (field-independent basis, Debye-Ang):
   XX=           -334.9935   YY=           -381.3874   ZZ=           -397.4856
   XY=            -14.8734   XZ=              9.7352   YZ=              1.6927

 Normal termination of Gaussian 09 at Sat Aug  3 13:50:39 2019.
