 Gaussian 09, Revision D.01,
 Gaussian 09:  ES64L-G09RevD.01 24-Apr-2013

 --------------------------
 # td=(NStates=1) B3LYP/SVP
 --------------------------

 --
 TD
 --
 Symbolic Z-matrix:
 Charge =  0 Multiplicity = 1

                         Standard orientation:
 ---------------------------------------------------------------------
 Center     Atomic      Atomic             Coordinates (Angstroms)
 Number     Number       Type             X           Y           Z
 ---------------------------------------------------------------------
      1          6           0       -5.153010   -1.991621    0.520990
      2          6           0       -4.800833    2.800910    1.260204
      3          6           0       -9.381982    3.311164   -0.176895
      4          6           0       -9.798845   -1.484299   -0.910161
      5          7           0       -5.129784    0.441631    0.912369
      6          6           0       -4.560095   -0.716818    0.932039
      7          6           0       -2.998881   -0.533953    1.291413
      8          6           0       -3.016040    0.971833    1.782895
      9          6           0       -4.357327    1.421888    1.283801
     10          6           0       -2.831276    1.070589    3.312065
     11          6           0       -2.067727   -0.786060    0.112622
     12          6           0       -0.549034   -0.702120    0.533007
     13          6           0        0.435250   -0.941564   -0.539260
     14          8           0        0.204001   -1.271662   -1.736601
     15          8           0        1.732102   -0.759030   -0.096700
     16          7           0       -7.104145    2.722048    0.404439
     17          6           0       -6.032649    3.398135    0.954192
     18          6           0       -6.261537    4.811715    1.121546
     19          6           0       -7.576607    4.953370    0.622349
     20          6           0       -8.110422    3.673888    0.308940
     21          6           0       -5.399165    5.836382    1.744484
     22          6           0       -8.353684    6.207245    0.530024
     23          6           0       -8.991676    6.618364   -0.584809
     24          7           0       -9.147834    0.859087   -0.418538
     25          6           0       -9.854939    2.075784   -0.565198
     26          6           0      -11.229788    1.875755   -1.159768
     27          6           0      -11.295836    0.555478   -1.290443
     28          6           0      -10.097817   -0.054539   -0.846203
     29          6           0      -12.231505    2.920726   -1.420993
     30          6           0      -12.529797   -0.273792   -1.804845
     31          6           0      -12.369696   -0.762007   -3.398500
     32          7           0       -7.487926   -1.285473   -0.170561
     33          6           0       -8.605186   -2.056198   -0.589612
     34          6           0       -8.223399   -3.447785   -0.567039
     35          6           0       -6.830425   -3.447417   -0.229428
     36          6           0       -6.416578   -2.052801   -0.014847
     37          6           0       -9.059537   -4.554738   -0.916577
     38          6           0       -5.683730   -4.327967    0.070076
     39          8           0       -5.567216   -5.456480    0.013345
     40          6           0       -4.476556   -3.299950    0.352881
     41          6           0       -3.885172   -3.923974    1.673196
     42          8           0       -4.264727   -3.513374    2.733632
     43          8           0       -3.044005   -4.969282    1.448059
     44          6           0       -2.546490   -5.680338    2.605984
     45          6           0        2.680655   -1.033081   -1.013274
     46          6           0        3.976701   -0.676257   -0.379125
     47          6           0        4.906604    0.034247   -0.901369
     48          6           0        4.812366    0.926738   -2.190529
     49          6           0        6.283953    0.285304   -0.071942
     50          6           0        7.436632   -0.146010   -0.847957
     51          6           0        8.704556   -0.060458   -0.078301
     52          6           0       10.077917   -0.610612   -0.754494
     53          6           0        9.979236   -2.075361   -0.975030
     54          6           0       11.309070   -0.055645    0.024847
     55          6           0       12.630429   -0.519784   -0.645435
     56          6           0       13.862062    0.089109    0.070897
     57          6           0       15.129121   -0.127238   -0.542071
     58          6           0       15.437969   -1.637991   -0.525911
     59          6           0       16.254775    0.633767    0.282341
     60          6           0       17.680178    0.594699   -0.241345
     61          6           0       18.636796    1.395795    0.567682
     62          6           0       20.125465    1.452623    0.021309
     63          6           0       20.156217    2.108651   -1.306041
     64          6           0       20.947855    2.251014    0.960329
     65          1           0       -4.065658    3.417102    1.904335
     66          1           0      -10.048137    4.176488   -0.301406
     67          1           0      -10.370446   -2.255665   -1.186858
     68          1           0       -2.772539   -1.314013    2.015034
     69          1           0       -2.145076    1.407983    1.333683
     70          1           0       -1.908012    0.527098    3.708274
     71          1           0       -2.946861    1.964053    3.822819
     72          1           0       -3.936847    0.615418    3.491646
     73          1           0       -2.404708   -1.906592   -0.495784
     74          1           0       -2.050432   -0.211598   -0.717795
     75          1           0       -0.256300    0.210025    0.874819
     76          1           0       -0.342644   -1.325666    1.299577
     77          1           0       -4.610096    6.126359    0.855878
     78          1           0       -6.036404    6.611963    2.058144
     79          1           0       -4.839028    5.244382    2.627881
     80          1           0       -8.394560    7.049694    1.489208
     81          1           0       -8.786483    6.008365   -1.504079
     82          1           0       -9.290688    7.634489   -0.648945
     83          1           0      -12.391074    3.451958   -0.326750
     84          1           0      -11.851476    3.522532   -2.371350
     85          1           0      -13.244240    2.483070   -1.427147
     86          1           0      -12.765721   -1.038374   -1.355540
     87          1           0      -13.481161    0.338607   -1.803456
     88          1           0      -12.469689    0.142370   -4.143886
     89          1           0      -11.510648   -1.323080   -3.596020
     90          1           0      -13.435055   -0.924114   -3.792867
     91          1           0       -9.672229   -4.572693   -0.028819
     92          1           0       -9.859990   -4.088985   -1.710939
     93          1           0       -8.669454   -5.659131   -0.949886
     94          1           0       -3.893119   -3.457401   -0.371996
     95          1           0       -1.510049   -6.198366    2.257486
     96          1           0       -2.431774   -5.046139    3.628249
     97          1           0       -3.438742   -6.582278    2.714973
     98          1           0        2.762075   -2.073890   -1.522901
     99          1           0        2.642091   -0.357697   -1.880026
    100          1           0        4.305181   -1.006253    0.532384
    101          1           0        5.042335    2.030163   -1.893877
    102          1           0        5.450456    0.504107   -3.032085
    103          1           0        3.765490    0.965234   -2.593561
    104          1           0        6.211888    1.494317    0.420175
    105          1           0        6.426349   -0.422315    0.849859
    106          1           0        7.180569   -1.221467   -1.194484
    107          1           0        7.700191    0.445287   -1.547706
    108          1           0        8.671085    0.993122    0.387119
    109          1           0        8.622315   -0.738401    0.976425
    110          1           0       10.106483   -0.170476   -1.784959
    111          1           0        9.194446   -2.417623   -1.597416
    112          1           0       10.802243   -2.653594   -1.353439
    113          1           0        9.830787   -2.451228    0.065772
    114          1           0       11.192294    0.906905   -0.008115
    115          1           0       11.526278   -0.575401    1.024250
    116          1           0       12.448435   -1.690564   -0.568262
    117          1           0       12.723389   -0.220632   -1.569575
    118          1           0       13.576336    0.993627    0.301956
    119          1           0       14.081958   -0.301855    1.219736
    120          1           0       15.116627    0.283451   -1.532255
    121          1           0       14.757801   -2.227457   -1.171009
    122          1           0       16.529265   -1.825883   -0.803085
    123          1           0       15.357932   -2.182601    0.505834
    124          1           0       16.143850    1.801240    0.558257
    125          1           0       16.272923    0.195067    1.410743
    126          1           0       17.808553   -0.614816   -0.486804
    127          1           0       17.502674    0.816325   -1.298334
    128          1           0       18.284977    2.479556    0.954552
    129          1           0       18.533319    1.050743    1.577959
    130          1           0       20.543821    0.351359    0.015938
    131          1           0       19.819720    3.272133   -1.099092
    132          1           0       21.163400    2.250080   -1.850710
    133          1           0       19.555294    1.490539   -2.013089
    134          1           0       20.800936    1.758043    2.119283
    135          1           0       21.944295    2.171974    0.833782
    136          1           0       20.380286    3.314986    0.991975
    137          1           0       -7.128509    1.687331    0.215338
    138          1           0       -7.533310   -0.302489   -0.213142
 ---------------------------------------------------------------------

 SCF Done:  E(RB3LYP) =  -2732.88943772     A.U. after   17 cycles

 Excitation energies and oscillator strengths:

 Excited State   1:      Singlet-A      2.0882 eV  593.75 nm  f=0.1160  <S**2>=0.000
     235 -> 237       -0.13834
     235 -> 238        0.33381
     236 -> 237        0.59413
     236 -> 238        0.12298
 This state for optimization and/or second-order correction.
 Total Energy, E(TD-HF/TD-KS) =  -2732.81269884
 Copying the excited state density for this state as the 1-particle RhoCI density.

 The electronic state is 1-A.
 Alpha  occ. eigenvalues --  -19.18556 -19.18147 -19.12910 -19.12879 -19.12170
 Alpha  occ. eigenvalues --  -14.36852 -14.36250 -14.31867 -14.30582 -10.32257
 Alpha  occ. eigenvalues --  -10.31446 -10.27750 -10.27598 -10.24201 -10.23495
 Alpha  occ. eigenvalues --  -10.23326 -10.23235 -10.23217 -10.23102 -10.22777
 Alpha  occ. eigenvalues --  -10.22294 -10.22220 -10.21829 -10.21732 -10.21535
 Alpha  occ. eigenvalues --  -10.21265 -10.20992 -10.20766 -10.20717 -10.20538
 Alpha  occ. eigenvalues --  -10.20462 -10.20310 -10.20286 -10.20281 -10.20132
 Alpha  occ. eigenvalues --  -10.19816 -10.19700 -10.19658 -10.19629 -10.19584
 Alpha  occ. eigenvalues --  -10.19562 -10.19538 -10.19530 -10.19505 -10.19487
 Alpha  occ. eigenvalues --  -10.19355 -10.19309 -10.19263 -10.19109 -10.19109
 Alpha  occ. eigenvalues --  -10.19099 -10.18856 -10.18842 -10.18841 -10.18738
 Alpha  occ. eigenvalues --  -10.18715 -10.18447 -10.18008 -10.17398 -10.17385
 Alpha  occ. eigenvalues --  -10.17111 -10.17022 -10.16950 -10.16393  -1.10449
 Alpha  occ. eigenvalues --   -1.08953  -1.07643  -1.01005  -0.99365  -0.98221
 Alpha  occ. eigenvalues --   -0.97485  -0.96391  -0.92326  -0.84812  -0.82911
 Alpha  occ. eigenvalues --   -0.82516  -0.82201  -0.81862  -0.81779  -0.81100
 Alpha  occ. eigenvalues --   -0.80276  -0.80260  -0.79134  -0.78743  -0.78231
 Alpha  occ. eigenvalues --   -0.77578  -0.76172  -0.75687  -0.75502  -0.74200
 Alpha  occ. eigenvalues --   -0.73119  -0.72930  -0.72560  -0.72086  -0.71039
 Alpha  occ. eigenvalues --   -0.70146  -0.68928  -0.68773  -0.67537  -0.67485
 Alpha  occ. eigenvalues --   -0.67035  -0.66606  -0.65910  -0.65390  -0.65099
 Alpha  occ. eigenvalues --   -0.64332  -0.63009  -0.62665  -0.62142  -0.61580
 Alpha  occ. eigenvalues --   -0.60966  -0.58677  -0.58276  -0.57795  -0.57349
 Alpha  occ. eigenvalues --   -0.57118  -0.56706  -0.55834  -0.55657  -0.55362
 Alpha  occ. eigenvalues --   -0.55165  -0.54471  -0.54228  -0.53204  -0.52847
 Alpha  occ. eigenvalues --   -0.52339  -0.51897  -0.51675  -0.51174  -0.50893
 Alpha  occ. eigenvalues --   -0.50369  -0.49891  -0.49416  -0.49242  -0.48340
 Alpha  occ. eigenvalues --   -0.48263  -0.47992  -0.47793  -0.47701  -0.47307
 Alpha  occ. eigenvalues --   -0.47064  -0.46917  -0.46384  -0.46323  -0.46148
 Alpha  occ. eigenvalues --   -0.45888  -0.45827  -0.45617  -0.45199  -0.44905
 Alpha  occ. eigenvalues --   -0.44546  -0.44373  -0.44212  -0.44046  -0.43856
 Alpha  occ. eigenvalues --   -0.43735  -0.43654  -0.43278  -0.42684  -0.42628
 Alpha  occ. eigenvalues --   -0.42523  -0.42276  -0.41832  -0.41556  -0.41426
 Alpha  occ. eigenvalues --   -0.41310  -0.41013  -0.40920  -0.40771  -0.40687
 Alpha  occ. eigenvalues --   -0.40519  -0.40319  -0.39794  -0.39743  -0.39581
 Alpha  occ. eigenvalues --   -0.39263  -0.39018  -0.38760  -0.38563  -0.38292
 Alpha  occ. eigenvalues --   -0.38215  -0.37893  -0.37833  -0.37803  -0.37336
 Alpha  occ. eigenvalues --   -0.37156  -0.36945  -0.36834  -0.36723  -0.36431
 Alpha  occ. eigenvalues --   -0.36114  -0.35966  -0.35829  -0.35700  -0.35553
 Alpha  occ. eigenvalues --   -0.35318  -0.35226  -0.35118  -0.35020  -0.34547
 Alpha  occ. eigenvalues --   -0.34209  -0.34160  -0.34120  -0.33511  -0.33137
 Alpha  occ. eigenvalues --   -0.32889  -0.32435  -0.32366  -0.32107  -0.31687
 Alpha  occ. eigenvalues --   -0.31657  -0.31493  -0.31157  -0.31060  -0.30885
 Alpha  occ. eigenvalues --   -0.30687  -0.30562  -0.30127  -0.30025  -0.29949
 Alpha  occ. eigenvalues --   -0.29700  -0.28582  -0.28378  -0.28153  -0.27922
 Alpha  occ. eigenvalues --   -0.27819  -0.27520  -0.26553  -0.26020  -0.25779
 Alpha  occ. eigenvalues --   -0.25538  -0.24697  -0.24324  -0.23123  -0.19729
 Alpha  occ. eigenvalues --   -0.18571
 Alpha virt. eigenvalues --   -0.09618  -0.07791  -0.03942  -0.01663  -0.01238
 Alpha virt. eigenvalues --    0.00270   0.01396   0.02011   0.02711   0.03573
 Alpha virt. eigenvalues --    0.03689   0.04117   0.04141   0.04551   0.04615

 Mulliken charges:
               1
     1  C    0.031353
     2  C   -0.075520
     3  C   -0.110339
     4  C    0.003857
     5  N   -0.065282
     6  C   -0.074805
     7  C   -0.027283
     8  C    0.039272
     9  C   -0.102656
    10  C    0.020938
    11  C    0.016215
    12  C    0.155961
    13  C    0.172442
    14  O   -0.273173
    15  O   -0.284388
    16  N   -0.085881
    17  C    0.116009
    18  C   -0.138655
    19  C    0.026367
    20  C    0.098226
    21  C    0.077433
    22  C   -0.132713
    23  C   -0.021704
    24  N   -0.295180
    25  C    0.100069
    26  C   -0.152985
    27  C   -0.057573
    28  C    0.122775
    29  C    0.062374
    30  C    0.175927
    31  C   -0.051315
    32  N   -0.004853
    33  C    0.021254
    34  C   -0.102267
    35  C   -0.053708
    36  C    0.067670
    37  C    0.060200
    38  C    0.018133
    39  O   -0.073973
    40  C    0.025355
    41  C    0.181963
    42  O   -0.208594
    43  O   -0.297304
    44  C    0.055988
    45  C    0.313550
    46  C   -0.043558
    47  C   -0.158434
    48  C    0.019999
    49  C   -0.058171
    50  C    0.160476
    51  C   -0.093566
    52  C   -0.053935
    53  C    0.057201
    54  C    0.100133
    55  C    0.055198
    56  C    0.071576
    57  C    0.022320
    58  C   -0.004725
    59  C   -0.123372
    60  C    0.058701
    61  C    0.032000
    62  C   -0.078839
    63  C   -0.003616
    64  C    0.027641
    65  H   -0.011742
    66  H   -0.022992
    67  H   -0.125294
    68  H    0.002667
    69  H   -0.017093
    70  H    0.036038
    71  H   -0.000831
    72  H    0.031433
    73  H    0.046060
    74  H   -0.021437
    75  H   -0.004579
    76  H   -0.007854
    77  H    0.062509
    78  H    0.015090
    79  H    0.053588
    80  H    0.047121
    81  H    0.041904
    82  H    0.021630
    83  H    0.041441
    84  H    0.068395
    85  H    0.007284
    86  H   -0.070495
    87  H   -0.013479
    88  H    0.001366
    89  H    0.032212
    90  H    0.013958
    91  H    0.025795
    92  H    0.053164
    93  H    0.068032
    94  H   -0.039951
    95  H    0.066111
    96  H    0.080375
    97  H    0.067122
    98  H    0.035989
    99  H   -0.020166
   100  H   -0.063078
   101  H    0.036427
   102  H    0.041083
   103  H    0.015144
   104  H    0.030055
   105  H    0.008682
   106  H    0.021283
   107  H   -0.060833
   108  H    0.004632
   109  H   -0.009521
   110  H   -0.016678
   111  H   -0.006096
   112  H    0.003928
   113  H   -0.005829
   114  H   -0.053206
   115  H    0.012259
   116  H    0.020243
   117  H   -0.059189
   118  H   -0.069241
   119  H   -0.016392
   120  H   -0.017337
   121  H    0.017714
   122  H    0.010666
   123  H    0.015459
   124  H    0.003721
   125  H   -0.000963
   126  H   -0.001422
   127  H   -0.017498
   128  H   -0.004030
   129  H   -0.025533
   130  H    0.011052
   131  H    0.016345
   132  H    0.015345
   133  H    0.021837
   134  H    0.002625
   135  H   -0.011135
   136  H    0.024246
   137  H    0.167755
   138  H    0.113895
 Sum of Mulliken charges =   0.00000

 Dipole moment (field-independent basis, Debye):
    X=              0.2559    Y=              3.1434    Z=             -0.0234  Tot=              3.1539
 Quadrupole moment (field-independent basis, Debye-Ang):
   XX=           -352.1854   YY=           -375.4111   ZZ=           -397.3860
   XY=            -19.9244   XZ=              3.6624   YZ=             -0.2186

 Normal termination of Gaussian 09 at Sat Aug  3 09:16:55 2019.
