 Gaussian 09, Revision D.01,
 Gaussian 09:  ES64L-G09RevD.01 24-Apr-2013

 --------------------------
 # td=(NStates=1) B3LYP/SVP
 --------------------------

 --
 TD
 --
 Symbolic Z-matrix:
 Charge =  0 Multiplicity = 1

                         Standard orientation:
 ---------------------------------------------------------------------
 Center     Atomic      Atomic             Coordinates (Angstroms)
 Number     Number       Type             X           Y           Z
 ---------------------------------------------------------------------
      1          6           0       -5.124453   -1.905468    0.526855
      2          6           0       -4.897670    2.897049    1.516675
      3          6           0       -9.533700    3.238551   -0.305665
      4          6           0       -9.829695   -1.624173   -0.953034
      5          7           0       -5.240833    0.511224    0.867122
      6          6           0       -4.596649   -0.638041    0.912068
      7          6           0       -3.083664   -0.485540    1.311919
      8          6           0       -3.146869    0.992594    1.881341
      9          6           0       -4.592325    1.532788    1.332099
     10          6           0       -2.915256    1.169060    3.333313
     11          6           0       -2.085315   -0.694683    0.139815
     12          6           0       -0.594820   -0.451256    0.649503
     13          6           0        0.398439   -0.906468   -0.540352
     14          8           0        0.148247   -1.505792   -1.508278
     15          8           0        1.558862   -0.444586   -0.138149
     16          7           0       -7.194589    2.676584    0.497832
     17          6           0       -6.105267    3.447231    1.139447
     18          6           0       -6.503822    4.784688    1.141151
     19          6           0       -7.797139    4.932027    0.594225
     20          6           0       -8.216266    3.634361    0.267871
     21          6           0       -5.592438    5.859871    1.469447
     22          6           0       -8.263627    6.236422    0.154066
     23          6           0       -8.960027    6.458819   -1.011525
     24          7           0       -9.324630    0.785805   -0.479003
     25          6           0      -10.006853    1.968817   -0.695964
     26          6           0      -11.358316    1.701146   -1.161450
     27          6           0      -11.455225    0.423741   -1.289608
     28          6           0      -10.119908   -0.202538   -0.855582
     29          6           0      -12.332874    2.914501   -1.299738
     30          6           0      -12.606495   -0.490663   -1.746110
     31          6           0      -12.529938   -0.840822   -3.218038
     32          7           0       -7.557002   -1.302890   -0.143203
     33          6           0       -8.560458   -2.180405   -0.654662
     34          6           0       -8.161722   -3.508733   -0.579003
     35          6           0       -6.770395   -3.393272   -0.114659
     36          6           0       -6.459170   -2.050343    0.098213
     37          6           0       -8.808672   -4.763609   -0.929223
     38          6           0       -5.565625   -4.217884    0.061459
     39          8           0       -5.525895   -5.419037   -0.050797
     40          6           0       -4.426926   -3.233264    0.473445
     41          6           0       -3.830998   -3.714689    1.696170
     42          8           0       -4.041668   -3.276212    2.761426
     43          8           0       -3.008957   -4.834220    1.457322
     44          6           0       -2.477514   -5.403240    2.546318
     45          6           0        2.712105   -0.909433   -1.027210
     46          6           0        4.019733   -0.683995   -0.330168
     47          6           0        5.063253    0.122086   -0.886331
     48          6           0        5.045503    0.842598   -2.164561
     49          6           0        6.372473    0.259936   -0.053452
     50          6           0        7.636571   -0.379664   -0.928317
     51          6           0        8.833422   -0.257125   -0.071032
     52          6           0       10.091938   -0.748414   -0.784755
     53          6           0       10.067400   -2.268102   -1.168635
     54          6           0       11.195721   -0.377954    0.193122
     55          6           0       12.620201   -0.454310   -0.558859
     56          6           0       13.862894   -0.034644    0.343187
     57          6           0       15.260161   -0.176845   -0.358302
     58          6           0       15.601472   -1.602305   -0.765734
     59          6           0       16.373671    0.480632    0.511859
     60          6           0       17.713437    0.730064   -0.179334
     61          6           0       18.713728    1.544562    0.472944
     62          6           0       20.148664    1.632984   -0.029881
     63          6           0       20.257554    2.219862   -1.422866
     64          6           0       21.112231    2.266138    0.973044
     65          1           0       -4.090204    3.497883    1.975738
     66          1           0      -10.242283    4.047302   -0.456399
     67          1           0      -10.613921   -2.219876   -1.182156
     68          1           0       -2.800492   -1.342882    1.925012
     69          1           0       -2.394749    1.609383    1.427918
     70          1           0       -1.841307    0.766189    3.988231
     71          1           0       -3.001821    2.261340    3.708768
     72          1           0       -3.603919    0.761103    3.865283
     73          1           0       -2.393369   -1.687737   -0.200626
     74          1           0       -2.626684   -0.086409   -0.545050
     75          1           0       -0.332604    0.491910    1.094897
     76          1           0       -0.534666   -1.170465    1.441258
     77          1           0       -4.991304    6.084773    0.544571
     78          1           0       -6.013635    6.839814    1.980823
     79          1           0       -5.016590    5.526825    2.413923
     80          1           0       -8.018765    6.991125    0.765004
     81          1           0       -8.960406    5.675407   -1.738416
     82          1           0       -9.132807    7.585886   -1.426291
     83          1           0      -12.593703    3.464945   -0.212424
     84          1           0      -11.922852    3.803808   -1.897471
     85          1           0      -13.208252    2.485078   -1.802566
     86          1           0      -12.812739   -1.349580   -1.041074
     87          1           0      -13.630924    0.141349   -1.397622
     88          1           0      -12.596322   -0.029981   -3.729889
     89          1           0      -11.612256   -1.448989   -3.572535
     90          1           0      -13.457835   -1.358986   -3.800304
     91          1           0       -9.802977   -4.705677   -0.461730
     92          1           0       -9.242852   -4.799805   -2.050988
     93          1           0       -8.246056   -5.469513   -0.787200
     94          1           0       -3.639677   -3.231578   -0.383182
     95          1           0       -1.903649   -6.294769    2.174214
     96          1           0       -1.867615   -4.664519    3.025527
     97          1           0       -3.024833   -5.869565    3.188378
     98          1           0        2.588582   -2.034429   -1.283909
     99          1           0        2.768836   -0.474466   -2.148804
    100          1           0        3.969959   -1.082663    0.696080
    101          1           0        5.107634    1.939432   -1.939210
    102          1           0        5.756608    0.463230   -2.803727
    103          1           0        4.136027    0.743512   -2.682670
    104          1           0        6.595464    1.494897    0.254286
    105          1           0        6.353434   -0.392755    0.846093
    106          1           0        7.404933   -1.441751   -1.285506
    107          1           0        7.755117    0.238571   -1.833226
    108          1           0        8.807929    0.801242   -0.058137
    109          1           0        8.547678   -0.668544    0.855628
    110          1           0       10.186989   -0.104000   -1.732573
    111          1           0        9.206806   -2.495926   -1.840496
    112          1           0       11.079479   -2.623167   -1.692804
    113          1           0        9.991848   -3.019976   -0.279378
    114          1           0       10.985697    0.578999    0.686127
    115          1           0       11.034348   -1.086243    1.286101
    116          1           0       12.792485   -1.505225   -0.926860
    117          1           0       12.590955    0.288432   -1.335712
    118          1           0       13.682723    1.132528    0.764589
    119          1           0       13.951045   -0.686339    1.254060
    120          1           0       15.139456    0.316565   -1.347301
    121          1           0       14.997715   -2.047955   -1.608690
    122          1           0       16.781335   -1.510048   -1.000588
    123          1           0       15.670396   -2.253140    0.182875
    124          1           0       15.982078    1.511913    0.481672
    125          1           0       16.443308    0.097293    1.597439
    126          1           0       18.189233   -0.236408   -0.458963
    127          1           0       17.542938    1.006166   -1.257199
    128          1           0       18.022482    2.723220    0.646737
    129          1           0       18.728831    1.021284    1.510428
    130          1           0       20.547230    0.601626   -0.092696
    131          1           0       19.703759    3.080119   -1.813615
    132          1           0       21.271290    2.263023   -1.676846
    133          1           0       19.714536    1.345296   -2.048850
    134          1           0       21.315132    1.800203    1.932548
    135          1           0       22.126509    2.166491    0.565569
    136          1           0       21.102938    3.353030    0.992260
    137          1           0       -7.137611    1.694238    0.475084
    138          1           0       -7.832257   -0.314214   -0.017878
 ---------------------------------------------------------------------

 SCF Done:  E(RB3LYP) =  -2733.02663447     A.U. after   17 cycles

 Excitation energies and oscillator strengths:

 Excited State   1:      Singlet-A      1.9845 eV  624.77 nm  f=0.1775  <S**2>=0.000
     235 -> 237       -0.20665
     235 -> 238        0.25820
     236 -> 237        0.60564
     236 -> 238        0.15101
 This state for optimization and/or second-order correction.
 Total Energy, E(TD-HF/TD-KS) =  -2732.95370588
 Copying the excited state density for this state as the 1-particle RhoCI density.

 The electronic state is 1-A.
 Alpha  occ. eigenvalues --  -19.18137 -19.16357 -19.13294 -19.12573 -19.12276
 Alpha  occ. eigenvalues --  -14.36450 -14.36440 -14.32404 -14.30551 -10.31326
 Alpha  occ. eigenvalues --  -10.30956 -10.27892 -10.25949 -10.24839 -10.23459
 Alpha  occ. eigenvalues --  -10.23457 -10.23312 -10.23250 -10.23200 -10.22165
 Alpha  occ. eigenvalues --  -10.21982 -10.21678 -10.21638 -10.21622 -10.21596
 Alpha  occ. eigenvalues --  -10.21543 -10.21371 -10.21310 -10.21053 -10.20734
 Alpha  occ. eigenvalues --  -10.20694 -10.20569 -10.20504 -10.20276 -10.20267
 Alpha  occ. eigenvalues --  -10.20229 -10.20181 -10.20132 -10.20025 -10.19933
 Alpha  occ. eigenvalues --  -10.19910 -10.19901 -10.19865 -10.19770 -10.19606
 Alpha  occ. eigenvalues --  -10.19460 -10.19251 -10.19182 -10.19172 -10.19102
 Alpha  occ. eigenvalues --  -10.19077 -10.18933 -10.18875 -10.18816 -10.18764
 Alpha  occ. eigenvalues --  -10.18751 -10.18733 -10.18685 -10.18649 -10.18646
 Alpha  occ. eigenvalues --  -10.18274 -10.17978 -10.17316 -10.17046  -1.10307
 Alpha  occ. eigenvalues --   -1.10251  -1.03187  -1.02961  -1.01984  -0.97725
 Alpha  occ. eigenvalues --   -0.95949  -0.95090  -0.94128  -0.85699  -0.82530
 Alpha  occ. eigenvalues --   -0.82518  -0.81932  -0.81129  -0.80837  -0.80506
 Alpha  occ. eigenvalues --   -0.80073  -0.79729  -0.79693  -0.78695  -0.77205
 Alpha  occ. eigenvalues --   -0.76429  -0.76185  -0.75578  -0.74756  -0.74256
 Alpha  occ. eigenvalues --   -0.73941  -0.73517  -0.72869  -0.71313  -0.71076
 Alpha  occ. eigenvalues --   -0.70353  -0.69337  -0.68594  -0.68109  -0.67982
 Alpha  occ. eigenvalues --   -0.67616  -0.66533  -0.66085  -0.65896  -0.64359
 Alpha  occ. eigenvalues --   -0.63471  -0.62665  -0.62451  -0.62059  -0.61625
 Alpha  occ. eigenvalues --   -0.60733  -0.58630  -0.58495  -0.57618  -0.57275
 Alpha  occ. eigenvalues --   -0.56725  -0.56551  -0.55858  -0.55423  -0.55241
 Alpha  occ. eigenvalues --   -0.54774  -0.54639  -0.54143  -0.53850  -0.53413
 Alpha  occ. eigenvalues --   -0.52837  -0.52444  -0.51686  -0.51016  -0.50337
 Alpha  occ. eigenvalues --   -0.50006  -0.49721  -0.49250  -0.48666  -0.48409
 Alpha  occ. eigenvalues --   -0.48186  -0.47511  -0.47355  -0.47209  -0.47191
 Alpha  occ. eigenvalues --   -0.47060  -0.46949  -0.46836  -0.46449  -0.46297
 Alpha  occ. eigenvalues --   -0.45877  -0.45423  -0.45184  -0.44981  -0.44734
 Alpha  occ. eigenvalues --   -0.44641  -0.44316  -0.43963  -0.43723  -0.43615
 Alpha  occ. eigenvalues --   -0.43564  -0.43292  -0.43108  -0.42891  -0.42657
 Alpha  occ. eigenvalues --   -0.42436  -0.42244  -0.41970  -0.41915  -0.41682
 Alpha  occ. eigenvalues --   -0.41529  -0.41387  -0.41127  -0.40537  -0.40194
 Alpha  occ. eigenvalues --   -0.40016  -0.39895  -0.39847  -0.39638  -0.39597
 Alpha  occ. eigenvalues --   -0.39225  -0.39162  -0.39002  -0.38723  -0.38486
 Alpha  occ. eigenvalues --   -0.38346  -0.38144  -0.37896  -0.37768  -0.37677
 Alpha  occ. eigenvalues --   -0.37516  -0.37366  -0.37118  -0.37023  -0.36743
 Alpha  occ. eigenvalues --   -0.36662  -0.36617  -0.36350  -0.36163  -0.35844
 Alpha  occ. eigenvalues --   -0.35665  -0.35241  -0.34995  -0.34782  -0.34656
 Alpha  occ. eigenvalues --   -0.34487  -0.34453  -0.34114  -0.33826  -0.33541
 Alpha  occ. eigenvalues --   -0.33478  -0.32616  -0.32495  -0.32395  -0.32333
 Alpha  occ. eigenvalues --   -0.31870  -0.31791  -0.31600  -0.31298  -0.31156
 Alpha  occ. eigenvalues --   -0.31037  -0.30955  -0.30753  -0.30703  -0.29894
 Alpha  occ. eigenvalues --   -0.29747  -0.28964  -0.28746  -0.28368  -0.28302
 Alpha  occ. eigenvalues --   -0.28035  -0.26674  -0.26405  -0.25480  -0.25358
 Alpha  occ. eigenvalues --   -0.25082  -0.24680  -0.23823  -0.23705  -0.20094
 Alpha  occ. eigenvalues --   -0.18952
 Alpha virt. eigenvalues --   -0.10945  -0.07743  -0.04402  -0.02482  -0.01853
 Alpha virt. eigenvalues --   -0.00760   0.00933   0.01992   0.02681   0.03744
 Alpha virt. eigenvalues --    0.03932   0.04087   0.04254   0.04445   0.04638

 Mulliken charges:
               1
     1  C   -0.047128
     2  C   -0.087571
     3  C   -0.054338
     4  C   -0.025511
     5  N   -0.073025
     6  C   -0.103011
     7  C   -0.096534
     8  C    0.009785
     9  C   -0.039052
    10  C    0.062501
    11  C    0.088166
    12  C    0.057718
    13  C    0.170659
    14  O   -0.180664
    15  O   -0.297225
    16  N   -0.131364
    17  C    0.158862
    18  C   -0.119405
    19  C    0.039757
    20  C    0.091581
    21  C    0.025266
    22  C    0.019455
    23  C   -0.054081
    24  N   -0.218915
    25  C    0.048691
    26  C   -0.082284
    27  C   -0.112614
    28  C    0.018679
    29  C    0.034875
    30  C   -0.009563
    31  C    0.059104
    32  N   -0.075660
    33  C    0.116744
    34  C   -0.145827
    35  C   -0.057866
    36  C    0.155017
    37  C    0.233204
    38  C    0.035150
    39  O   -0.153330
    40  C   -0.021573
    41  C    0.191627
    42  O   -0.167011
    43  O   -0.309477
    44  C    0.268936
    45  C    0.163074
    46  C   -0.070465
    47  C   -0.150652
    48  C    0.174118
    49  C   -0.018345
    50  C   -0.064325
    51  C    0.103463
    52  C   -0.060926
    53  C   -0.020936
    54  C   -0.007127
    55  C    0.054019
    56  C   -0.021485
    57  C   -0.090662
    58  C   -0.014565
    59  C    0.057951
    60  C    0.003838
    61  C   -0.003696
    62  C   -0.064464
    63  C    0.025135
    64  C    0.066061
    65  H   -0.004683
    66  H   -0.028224
    67  H   -0.070117
    68  H   -0.003191
    69  H   -0.017280
    70  H    0.022157
    71  H    0.000215
    72  H   -0.037387
    73  H   -0.015513
    74  H   -0.014726
    75  H    0.031366
    76  H    0.013067
    77  H    0.056920
    78  H    0.031589
    79  H    0.033446
    80  H   -0.047181
    81  H    0.031331
    82  H    0.050809
    83  H    0.051678
    84  H    0.038731
    85  H    0.020040
    86  H    0.021283
    87  H    0.014314
    88  H   -0.039227
    89  H    0.032121
    90  H    0.010818
    91  H    0.016601
    92  H    0.028033
    93  H   -0.052700
    94  H    0.099113
    95  H    0.009482
    96  H   -0.005517
    97  H   -0.036579
    98  H    0.046265
    99  H    0.040076
   100  H    0.004045
   101  H    0.029143
   102  H    0.012575
   103  H   -0.029072
   104  H    0.037979
   105  H    0.011339
   106  H    0.016552
   107  H   -0.002674
   108  H   -0.021662
   109  H   -0.018356
   110  H   -0.001875
   111  H    0.019623
   112  H    0.025993
   113  H    0.021453
   114  H   -0.009543
   115  H   -0.000761
   116  H    0.018589
   117  H   -0.002307
   118  H    0.009057
   119  H   -0.002653
   120  H   -0.013981
   121  H    0.037873
   122  H    0.010989
   123  H    0.003596
   124  H   -0.006333
   125  H    0.017682
   126  H   -0.021386
   127  H   -0.017181
   128  H   -0.002096
   129  H   -0.001488
   130  H   -0.004997
   131  H    0.019358
   132  H   -0.003582
   133  H    0.009616
   134  H    0.005082
   135  H   -0.025138
   136  H   -0.000683
   137  H    0.117608
   138  H    0.147728
 Sum of Mulliken charges =   0.00000

 Dipole moment (field-independent basis, Debye):
    X=              2.5052    Y=              4.4196    Z=             -0.8688  Tot=              5.1540
 Quadrupole moment (field-independent basis, Debye-Ang):
   XX=           -336.3590   YY=           -384.6398   ZZ=           -394.1658
   XY=            -22.2816   XZ=              3.4538   YZ=             -2.1560

 Normal termination of Gaussian 09 at Tue Jul 30 06:10:07 2019.
