 Gaussian 09, Revision D.01,
 Gaussian 09:  ES64L-G09RevD.01 24-Apr-2013

 --------------------------
 # td=(NStates=1) B3LYP/SVP
 --------------------------

 --
 TD
 --
 Symbolic Z-matrix:
 Charge =  0 Multiplicity = 1

                         Standard orientation:
 ---------------------------------------------------------------------
 Center     Atomic      Atomic             Coordinates (Angstroms)
 Number     Number       Type             X           Y           Z
 ---------------------------------------------------------------------
      1          6           0       -5.157025   -1.921647    0.437993
      2          6           0       -4.676545    2.720208    1.245823
      3          6           0       -9.316935    3.338565   -0.268046
      4          6           0       -9.891062   -1.461622   -0.842129
      5          7           0       -5.225879    0.429394    0.817595
      6          6           0       -4.482518   -0.749459    0.730189
      7          6           0       -3.016397   -0.580210    1.089335
      8          6           0       -3.136948    0.902305    1.851320
      9          6           0       -4.407533    1.393964    1.366929
     10          6           0       -2.913597    0.910704    3.260291
     11          6           0       -2.063537   -0.799451   -0.052164
     12          6           0       -0.651145   -0.674155    0.438856
     13          6           0        0.389585   -1.116927   -0.525352
     14          8           0        0.218665   -1.554206   -1.665254
     15          8           0        1.736569   -0.783316   -0.116065
     16          7           0       -7.013625    2.729692    0.279882
     17          6           0       -5.955610    3.402881    0.933009
     18          6           0       -6.311341    4.791003    1.107996
     19          6           0       -7.596101    4.977325    0.542527
     20          6           0       -8.063750    3.655986    0.158704
     21          6           0       -5.315915    5.864788    1.555735
     22          6           0       -8.232474    6.313762    0.587237
     23          6           0       -9.094244    6.558095   -0.452360
     24          7           0       -9.199325    0.888058   -0.548774
     25          6           0       -9.836188    2.073040   -0.624387
     26          6           0      -11.237485    1.866521   -0.913024
     27          6           0      -11.421226    0.565218   -1.060661
     28          6           0      -10.121395   -0.042780   -0.835900
     29          6           0      -12.335133    2.929376   -1.051157
     30          6           0      -12.693622   -0.163410   -1.568377
     31          6           0      -12.791496   -0.409140   -3.073087
     32          7           0       -7.484279   -1.182660   -0.231441
     33          6           0       -8.601644   -1.968259   -0.630171
     34          6           0       -8.219982   -3.314066   -0.596265
     35          6           0       -6.934031   -3.458607   -0.195098
     36          6           0       -6.481916   -2.094029   -0.036466
     37          6           0       -8.874436   -4.683157   -0.890251
     38          6           0       -5.732897   -4.327513    0.005033
     39          8           0       -5.558199   -5.518223   -0.057310
     40          6           0       -4.533842   -3.338163    0.369316
     41          6           0       -3.809541   -3.893171    1.677756
     42          8           0       -4.201087   -3.548497    2.754540
     43          8           0       -2.906024   -4.850343    1.438700
     44          6           0       -2.436584   -5.638318    2.486172
     45          6           0        2.710994   -1.173522   -1.056348
     46          6           0        4.021888   -0.640357   -0.373101
     47          6           0        4.975411    0.070524   -1.035117
     48          6           0        4.922092    0.492250   -2.591795
     49          6           0        6.358604    0.451920   -0.343774
     50          6           0        7.532219   -0.400018   -0.958388
     51          6           0        8.834040    0.071052   -0.221621
     52          6           0       10.141706   -0.800493   -0.690922
     53          6           0        9.979125   -2.298637   -0.587766
     54          6           0       11.269795   -0.168803    0.059898
     55          6           0       12.701414   -0.461773   -0.416540
     56          6           0       13.808071    0.134530    0.251406
     57          6           0       15.198292   -0.199272   -0.244794
     58          6           0       15.480757   -1.788708   -0.342264
     59          6           0       16.259919    0.751448    0.461491
     60          6           0       17.668244    0.674396   -0.253965
     61          6           0       18.616604    1.587385    0.475594
     62          6           0       20.067510    1.632583   -0.019220
     63          6           0       20.267250    2.096304   -1.370095
     64          6           0       20.830386    2.475390    0.988963
     65          1           0       -4.051004    3.470538    1.907113
     66          1           0      -10.069867    4.172002   -0.192732
     67          1           0      -10.652695   -2.154226   -1.153509
     68          1           0       -2.836237   -1.168275    2.091237
     69          1           0       -2.481045    1.596351    1.235266
     70          1           0       -2.075781    0.423292    3.721449
     71          1           0       -2.935676    1.911444    3.553554
     72          1           0       -3.665299    0.299758    3.850931
     73          1           0       -2.186523   -1.511194   -0.657259
     74          1           0       -2.149838    0.347294   -0.491266
     75          1           0       -0.332544    0.132693    0.740335
     76          1           0       -0.432473   -1.292612    1.311505
     77          1           0       -4.584233    6.057838    0.611766
     78          1           0       -6.009877    6.894050    1.693061
     79          1           0       -4.715695    5.650004    2.403226
     80          1           0       -7.907783    6.918088    1.326716
     81          1           0       -9.276027    5.842807   -1.258496
     82          1           0       -9.552340    7.538153   -0.670735
     83          1           0      -12.505254    3.700486   -0.107577
     84          1           0      -12.029477    3.688087   -1.930339
     85          1           0      -13.293059    2.321943   -1.205343
     86          1           0      -12.910256   -1.113358   -1.157738
     87          1           0      -13.488329    0.510710   -1.275567
     88          1           0      -12.910485    0.555233   -3.610220
     89          1           0      -11.997493   -0.862769   -3.538499
     90          1           0      -13.726632   -1.146620   -3.323982
     91          1           0       -9.877594   -4.995256   -0.248868
     92          1           0       -9.592559   -4.517639   -2.026944
     93          1           0       -8.265654   -5.407449   -0.730862
     94          1           0       -3.772938   -3.350373   -0.429988
     95          1           0       -1.757936   -6.394185    2.206499
     96          1           0       -2.028437   -5.017604    3.268716
     97          1           0       -3.223791   -6.192941    2.865159
     98          1           0        2.693231   -2.090297   -1.373961
     99          1           0        2.324676   -0.680363   -1.933481
    100          1           0        4.116519   -1.384017    0.545184
    101          1           0        5.484529    1.415828   -2.819820
    102          1           0        5.455019   -0.173259   -3.305217
    103          1           0        3.820875    0.727177   -2.893697
    104          1           0        6.570226    1.837800   -0.442119
    105          1           0        6.235790    0.094683    0.616350
    106          1           0        7.266056   -1.559369   -0.595223
    107          1           0        7.547084   -0.246439   -1.973916
    108          1           0        8.917791    1.197945   -0.400230
    109          1           0        8.984033    0.010214    0.835146
    110          1           0       10.304419   -0.407563   -1.898439
    111          1           0        9.201703   -2.670830   -1.158847
    112          1           0       10.891990   -2.886268   -0.990100
    113          1           0        9.612126   -2.725289    0.384406
    114          1           0       11.390135    0.960896    0.180197
    115          1           0       10.873030   -0.412954    1.198526
    116          1           0       12.869342   -1.772742   -0.557440
    117          1           0       12.673044   -0.296798   -1.526649
    118          1           0       13.756108    1.215664    0.361840
    119          1           0       13.757150   -0.069617    1.301448
    120          1           0       15.025476    0.295840   -1.217382
    121          1           0       14.789370   -2.447678   -0.715451
    122          1           0       16.379748   -1.991916   -0.800906
    123          1           0       15.921704   -2.167982    0.592999
    124          1           0       15.730880    1.775821    0.535172
    125          1           0       16.585669    0.261554    1.609450
    126          1           0       18.054657   -0.383071   -0.373462
    127          1           0       17.433579    1.237591   -1.253926
    128          1           0       18.134994    2.557614    0.448749
    129          1           0       18.693797    1.415388    1.557408
    130          1           0       20.484662    0.647139   -0.114946
    131          1           0       20.005463    3.307642   -1.487370
    132          1           0       21.230222    2.136875   -1.689578
    133          1           0       19.892460    1.580344   -2.048652
    134          1           0       21.033076    2.010227    2.023532
    135          1           0       21.744485    2.815989    0.750075
    136          1           0       20.357028    3.415930    1.215785
    137          1           0       -7.231339    1.745163   -0.062927
    138          1           0       -7.712459   -0.032994   -0.122691
 ---------------------------------------------------------------------

 SCF Done:  E(RB3LYP) =  -2732.89572502     A.U. after   16 cycles

 Excitation energies and oscillator strengths:

 Excited State   1:      Singlet-A      2.0407 eV  607.55 nm  f=0.1328  <S**2>=0.000
     235 -> 237       -0.21149
     235 -> 238       -0.30931
     236 -> 237        0.58228
     236 -> 238       -0.12935
 This state for optimization and/or second-order correction.
 Total Energy, E(TD-HF/TD-KS) =  -2732.82072944
 Copying the excited state density for this state as the 1-particle RhoCI density.

 The electronic state is 1-A.
 Alpha  occ. eigenvalues --  -19.17990 -19.16220 -19.13245 -19.12911 -19.12136
 Alpha  occ. eigenvalues --  -14.37306 -14.36610 -14.31652 -14.31429 -10.31801
 Alpha  occ. eigenvalues --  -10.31703 -10.28814 -10.25094 -10.23528 -10.23453
 Alpha  occ. eigenvalues --  -10.23369 -10.23123 -10.22775 -10.22481 -10.22097
 Alpha  occ. eigenvalues --  -10.22059 -10.21669 -10.21624 -10.21586 -10.21551
 Alpha  occ. eigenvalues --  -10.21405 -10.21375 -10.21373 -10.21308 -10.21284
 Alpha  occ. eigenvalues --  -10.21106 -10.20983 -10.20897 -10.20894 -10.20763
 Alpha  occ. eigenvalues --  -10.20711 -10.20670 -10.20393 -10.20382 -10.20183
 Alpha  occ. eigenvalues --  -10.20121 -10.20062 -10.20023 -10.19965 -10.19845
 Alpha  occ. eigenvalues --  -10.19423 -10.19391 -10.19368 -10.19321 -10.19209
 Alpha  occ. eigenvalues --  -10.19188 -10.19164 -10.18951 -10.18717 -10.18394
 Alpha  occ. eigenvalues --  -10.18371 -10.18318 -10.18117 -10.17908 -10.17107
 Alpha  occ. eigenvalues --  -10.16884 -10.16657 -10.16487 -10.15757  -1.10236
 Alpha  occ. eigenvalues --   -1.07173  -1.03656  -1.01516  -0.99479  -0.97114
 Alpha  occ. eigenvalues --   -0.96470  -0.95246  -0.93071  -0.83722  -0.83102
 Alpha  occ. eigenvalues --   -0.82178  -0.82013  -0.81613  -0.81084  -0.80272
 Alpha  occ. eigenvalues --   -0.80199  -0.79828  -0.79610  -0.78946  -0.78173
 Alpha  occ. eigenvalues --   -0.76433  -0.75946  -0.75613  -0.74861  -0.74508
 Alpha  occ. eigenvalues --   -0.74134  -0.73172  -0.72186  -0.71466  -0.70116
 Alpha  occ. eigenvalues --   -0.69824  -0.69452  -0.69046  -0.68741  -0.68639
 Alpha  occ. eigenvalues --   -0.67354  -0.67194  -0.66589  -0.66144  -0.65144
 Alpha  occ. eigenvalues --   -0.64560  -0.63908  -0.62606  -0.62137  -0.61303
 Alpha  occ. eigenvalues --   -0.61213  -0.58842  -0.58588  -0.58022  -0.57438
 Alpha  occ. eigenvalues --   -0.56776  -0.56637  -0.56056  -0.55745  -0.55640
 Alpha  occ. eigenvalues --   -0.55500  -0.54628  -0.54076  -0.53696  -0.53469
 Alpha  occ. eigenvalues --   -0.52742  -0.52023  -0.51352  -0.51111  -0.50375
 Alpha  occ. eigenvalues --   -0.49975  -0.49635  -0.49198  -0.48744  -0.48243
 Alpha  occ. eigenvalues --   -0.48004  -0.47947  -0.47801  -0.47218  -0.47039
 Alpha  occ. eigenvalues --   -0.46481  -0.46405  -0.46335  -0.45955  -0.45929
 Alpha  occ. eigenvalues --   -0.45651  -0.45422  -0.45237  -0.44967  -0.44602
 Alpha  occ. eigenvalues --   -0.44384  -0.44321  -0.44238  -0.44033  -0.43772
 Alpha  occ. eigenvalues --   -0.43429  -0.43382  -0.43049  -0.42931  -0.42562
 Alpha  occ. eigenvalues --   -0.42418  -0.42405  -0.42258  -0.42145  -0.41978
 Alpha  occ. eigenvalues --   -0.41540  -0.41214  -0.41148  -0.40906  -0.40727
 Alpha  occ. eigenvalues --   -0.40054  -0.39819  -0.39683  -0.39506  -0.39262
 Alpha  occ. eigenvalues --   -0.39102  -0.39008  -0.38882  -0.38642  -0.38474
 Alpha  occ. eigenvalues --   -0.38343  -0.38232  -0.37961  -0.37568  -0.37504
 Alpha  occ. eigenvalues --   -0.37316  -0.37176  -0.36974  -0.36807  -0.36544
 Alpha  occ. eigenvalues --   -0.36361  -0.36185  -0.36097  -0.35982  -0.35602
 Alpha  occ. eigenvalues --   -0.35457  -0.35209  -0.34976  -0.34879  -0.34658
 Alpha  occ. eigenvalues --   -0.34568  -0.34480  -0.34365  -0.34266  -0.34017
 Alpha  occ. eigenvalues --   -0.33865  -0.33460  -0.33039  -0.32437  -0.32428
 Alpha  occ. eigenvalues --   -0.32117  -0.32042  -0.31153  -0.31087  -0.30885
 Alpha  occ. eigenvalues --   -0.30787  -0.30149  -0.30056  -0.30007  -0.29028
 Alpha  occ. eigenvalues --   -0.28789  -0.28544  -0.28438  -0.28156  -0.28017
 Alpha  occ. eigenvalues --   -0.27524  -0.27247  -0.26935  -0.26234  -0.25775
 Alpha  occ. eigenvalues --   -0.25529  -0.24560  -0.24128  -0.23935  -0.19690
 Alpha  occ. eigenvalues --   -0.19170
 Alpha virt. eigenvalues --   -0.10418  -0.08000  -0.04307  -0.02474  -0.01135
 Alpha virt. eigenvalues --   -0.00527  -0.00079   0.00811   0.01558   0.03256
 Alpha virt. eigenvalues --    0.03521   0.03687   0.04042   0.04145   0.04316

 Mulliken charges:
               1
     1  C    0.079867
     2  C   -0.070481
     3  C   -0.128315
     4  C   -0.074751
     5  N   -0.217886
     6  C   -0.076548
     7  C   -0.100566
     8  C   -0.061300
     9  C    0.026801
    10  C    0.145588
    11  C    0.199083
    12  C    0.207681
    13  C    0.152965
    14  O   -0.248045
    15  O   -0.373882
    16  N   -0.124218
    17  C    0.080039
    18  C   -0.132231
    19  C    0.002062
    20  C    0.101495
    21  C    0.020647
    22  C    0.033646
    23  C   -0.030656
    24  N   -0.252146
    25  C    0.074797
    26  C   -0.110902
    27  C   -0.091529
    28  C    0.045599
    29  C    0.000599
    30  C    0.115084
    31  C    0.002424
    32  N   -0.153042
    33  C    0.111710
    34  C   -0.139898
    35  C    0.018274
    36  C    0.037689
    37  C    0.073976
    38  C    0.099974
    39  O   -0.156919
    40  C   -0.062626
    41  C    0.180703
    42  O   -0.213406
    43  O   -0.279682
    44  C    0.249962
    45  C    0.306091
    46  C   -0.078110
    47  C   -0.104106
    48  C    0.012307
    49  C    0.025449
    50  C    0.038569
    51  C    0.009351
    52  C   -0.111655
    53  C    0.080552
    54  C   -0.015596
    55  C   -0.000203
    56  C    0.101506
    57  C   -0.045498
    58  C    0.124530
    59  C   -0.085137
    60  C    0.026139
    61  C    0.043604
    62  C   -0.028366
    63  C    0.141373
    64  C    0.076674
    65  H   -0.003905
    66  H   -0.001269
    67  H   -0.022835
    68  H    0.028776
    69  H    0.007541
    70  H    0.001452
    71  H   -0.006535
    72  H    0.018868
    73  H   -0.051448
    74  H    0.031306
    75  H   -0.069930
    76  H    0.009662
    77  H    0.059733
    78  H    0.034981
    79  H    0.034796
    80  H   -0.031898
    81  H    0.043351
    82  H    0.026028
    83  H    0.044612
    84  H    0.040775
    85  H    0.030203
    86  H   -0.013142
    87  H   -0.011869
    88  H    0.009149
    89  H   -0.006747
    90  H    0.020150
    91  H    0.036675
    92  H    0.037035
    93  H   -0.014250
    94  H    0.046376
    95  H    0.014241
    96  H    0.014615
    97  H    0.000232
    98  H   -0.035140
    99  H   -0.018012
   100  H    0.034525
   101  H    0.004179
   102  H    0.039297
   103  H    0.042592
   104  H    0.030306
   105  H   -0.018142
   106  H    0.030824
   107  H   -0.011401
   108  H    0.002333
   109  H   -0.019409
   110  H   -0.001986
   111  H   -0.016013
   112  H    0.025232
   113  H    0.004863
   114  H    0.000350
   115  H   -0.002969
   116  H   -0.002587
   117  H   -0.012019
   118  H   -0.036142
   119  H   -0.036175
   120  H   -0.017891
   121  H   -0.002034
   122  H   -0.039208
   123  H   -0.015879
   124  H    0.025341
   125  H    0.011976
   126  H    0.017544
   127  H    0.011584
   128  H   -0.026225
   129  H   -0.016639
   130  H   -0.026245
   131  H   -0.011320
   132  H   -0.036304
   133  H   -0.065938
   134  H    0.004656
   135  H   -0.045961
   136  H   -0.015198
   137  H    0.166995
   138  H    0.240403
 Sum of Mulliken charges =   0.00000

 Dipole moment (field-independent basis, Debye):
    X=              1.3208    Y=              3.8748    Z=              0.6091  Tot=              4.1388
 Quadrupole moment (field-independent basis, Debye-Ang):
   XX=           -345.7556   YY=           -375.0585   ZZ=           -396.6872
   XY=            -31.6628   XZ=              3.4873   YZ=             -1.1147

 Normal termination of Gaussian 09 at Fri Aug  2 14:19:03 2019.
