 Gaussian 09, Revision D.01,
 Gaussian 09:  ES64L-G09RevD.01 24-Apr-2013

 --------------------------
 # td=(NStates=1) B3LYP/SVP
 --------------------------

 --
 TD
 --
 Symbolic Z-matrix:
 Charge =  0 Multiplicity = 1

                         Standard orientation:
 ---------------------------------------------------------------------
 Center     Atomic      Atomic             Coordinates (Angstroms)
 Number     Number       Type             X           Y           Z
 ---------------------------------------------------------------------
      1          6           0       -5.102516   -1.981830    0.493402
      2          6           0       -4.785965    2.881969    1.235722
      3          6           0       -9.392468    3.293589   -0.179797
      4          6           0       -9.812013   -1.535881   -0.986869
      5          7           0       -5.089831    0.457116    0.611701
      6          6           0       -4.439761   -0.787827    0.830184
      7          6           0       -3.003527   -0.525280    1.302293
      8          6           0       -3.087521    0.935626    1.818825
      9          6           0       -4.347721    1.434589    1.193560
     10          6           0       -3.135894    0.985816    3.401168
     11          6           0       -2.050201   -0.697716    0.106328
     12          6           0       -0.584572   -0.708019    0.576353
     13          6           0        0.401544   -0.994284   -0.507076
     14          8           0        0.137878   -1.214132   -1.689648
     15          8           0        1.640191   -0.720367   -0.040800
     16          7           0       -7.123888    2.755616    0.492508
     17          6           0       -5.963867    3.422769    0.894850
     18          6           0       -6.310867    4.864640    0.969091
     19          6           0       -7.665839    4.949621    0.551613
     20          6           0       -8.145136    3.653982    0.223851
     21          6           0       -5.246164    5.871839    1.352832
     22          6           0       -8.292775    6.320277    0.484146
     23          6           0       -9.206900    6.559600   -0.517836
     24          7           0       -9.172993    0.784505   -0.533708
     25          6           0       -9.896840    1.972922   -0.577484
     26          6           0      -11.232725    1.769073   -0.949939
     27          6           0      -11.385426    0.362415   -1.166508
     28          6           0      -10.085733   -0.140917   -0.964066
     29          6           0      -12.364869    2.765627   -1.082847
     30          6           0      -12.719189   -0.356837   -1.570200
     31          6           0      -12.711972   -0.751052   -3.083416
     32          7           0       -7.437358   -1.253042   -0.287851
     33          6           0       -8.528153   -2.086559   -0.644052
     34          6           0       -8.094442   -3.441233   -0.802730
     35          6           0       -6.756639   -3.451764   -0.365055
     36          6           0       -6.424367   -2.066312   -0.113746
     37          6           0       -8.711933   -4.680801   -1.232679
     38          6           0       -5.601235   -4.321326   -0.024711
     39          8           0       -5.442623   -5.494043   -0.194005
     40          6           0       -4.470020   -3.250979    0.368349
     41          6           0       -3.919896   -3.836751    1.704868
     42          8           0       -4.221531   -3.456606    2.779646
     43          8           0       -3.060034   -4.848697    1.507592
     44          6           0       -2.537455   -5.550072    2.653562
     45          6           0        2.712906   -0.876363   -1.046246
     46          6           0        4.003081   -0.419875   -0.358720
     47          6           0        4.987839    0.379093   -0.834021
     48          6           0        4.885205    1.095455   -2.135501
     49          6           0        6.256363    0.546899   -0.077001
     50          6           0        7.458101   -0.272473   -0.743529
     51          6           0        8.724982   -0.030659   -0.030198
     52          6           0        9.960974   -0.668207   -0.522239
     53          6           0        9.974367   -2.151672   -0.610786
     54          6           0       11.258923   -0.263022    0.265336
     55          6           0       12.628249   -0.443393   -0.421514
     56          6           0       13.858363   -0.068744    0.277153
     57          6           0       15.171409   -0.297776   -0.392293
     58          6           0       15.611353   -1.699053   -0.494171
     59          6           0       16.276852    0.576435    0.298288
     60          6           0       17.707811    0.534523   -0.279542
     61          6           0       18.656829    1.451653    0.407835
     62          6           0       20.064667    1.535290   -0.225583
     63          6           0       20.223535    2.002672   -1.633861
     64          6           0       20.920381    2.357038    0.828100
     65          1           0       -3.840216    3.439577    1.509290
     66          1           0      -10.147354    4.044083   -0.124262
     67          1           0      -10.394978   -2.483830   -1.340911
     68          1           0       -2.746300   -1.062562    2.240781
     69          1           0       -2.129413    1.484074    1.456587
     70          1           0       -2.094193    0.581799    3.982102
     71          1           0       -3.243446    1.875232    3.946270
     72          1           0       -4.133829    0.427843    3.651296
     73          1           0       -2.259946   -1.655147   -0.331267
     74          1           0       -2.174819    0.020005   -0.916738
     75          1           0       -0.407983    0.205181    0.987545
     76          1           0       -0.445928   -1.449077    1.362984
     77          1           0       -4.520247    6.137125    0.420891
     78          1           0       -5.809253    6.800377    1.652431
     79          1           0       -4.695290    5.492003    2.250071
     80          1           0       -8.090390    7.079708    1.311850
     81          1           0       -9.292816    5.977218   -1.316721
     82          1           0       -9.844350    7.435668   -0.695254
     83          1           0      -12.749955    3.213997   -0.114639
     84          1           0      -11.902729    3.643608   -1.626863
     85          1           0      -13.173475    2.358452   -1.636310
     86          1           0      -12.693114   -1.243830   -1.190076
     87          1           0      -13.587448    0.142990   -1.082203
     88          1           0      -12.743171    0.209165   -3.548552
     89          1           0      -11.768503   -1.418101   -3.325960
     90          1           0      -13.759760   -1.448741   -3.330481
     91          1           0       -9.506282   -5.042709   -0.524144
     92          1           0       -9.310950   -4.357818   -2.196294
     93          1           0       -8.159839   -5.536041   -1.463194
     94          1           0       -3.713997   -3.460824   -0.397559
     95          1           0       -1.893181   -6.270929    2.186153
     96          1           0       -2.114154   -4.759301    3.393228
     97          1           0       -3.135715   -6.198517    3.266319
     98          1           0        2.707930   -1.863470   -1.423949
     99          1           0        2.338713   -0.420838   -1.828282
    100          1           0        4.144652   -0.814922    0.683256
    101          1           0        5.314668    2.206650   -2.144272
    102          1           0        5.540344    0.391517   -2.865740
    103          1           0        3.849241    1.030923   -2.498785
    104          1           0        6.586158    1.642603   -0.008467
    105          1           0        6.153928    0.110824    0.910178
    106          1           0        7.128995   -1.436488   -0.836306
    107          1           0        7.737440   -0.123895   -1.713319
    108          1           0        9.142657    1.012674    0.366510
    109          1           0        8.554333   -0.461663    0.962218
    110          1           0       10.057782   -0.269157   -1.484089
    111          1           0        9.251577   -2.550418   -1.571460
    112          1           0       11.088394   -2.605064   -0.710062
    113          1           0        9.612757   -2.602277    0.300188
    114          1           0       11.039175    0.777531    0.626830
    115          1           0       11.300654   -0.645074    1.276892
    116          1           0       12.704098   -1.702792   -0.816576
    117          1           0       12.544702    0.116542   -1.354781
    118          1           0       13.726626    0.945547    0.574043
    119          1           0       13.733814   -0.462044    1.290386
    120          1           0       15.092261    0.085840   -1.471510
    121          1           0       14.761285   -2.523566   -0.776579
    122          1           0       16.456665   -2.033399   -1.057385
    123          1           0       15.803721   -2.238098    0.557305
    124          1           0       16.074077    1.543921    0.188780
    125          1           0       16.283887    0.076090    1.428492
    126          1           0       18.428891   -0.341129   -0.208709
    127          1           0       17.573430    0.794983   -1.333862
    128          1           0       17.996405    2.390996    0.287799
    129          1           0       18.879116    1.195700    1.478112
    130          1           0       20.421387    0.463338   -0.091205
    131          1           0       20.069079    3.085242   -1.659458
    132          1           0       21.184163    2.144069   -1.983198
    133          1           0       19.735053    1.237481   -2.199897
    134          1           0       20.800247    1.981054    1.953569
    135          1           0       22.037498    2.425798    0.624848
    136          1           0       20.418877    3.307619    1.053778
    137          1           0       -7.179853    1.766198    0.162955
    138          1           0       -7.649141   -0.158538   -0.006393
 ---------------------------------------------------------------------

 SCF Done:  E(RB3LYP) =  -2733.09543054     A.U. after   17 cycles

 Excitation energies and oscillator strengths:

 Excited State   1:      Singlet-A      2.1375 eV  580.05 nm  f=0.1017  <S**2>=0.000
     235 -> 237       -0.23353
     235 -> 238        0.28753
     236 -> 237        0.55947
     236 -> 238        0.21070
 This state for optimization and/or second-order correction.
 Total Energy, E(TD-HF/TD-KS) =  -2733.01687949
 Copying the excited state density for this state as the 1-particle RhoCI density.

 The electronic state is 1-A.
 Alpha  occ. eigenvalues --  -19.17573 -19.17100 -19.12517 -19.12403 -19.11712
 Alpha  occ. eigenvalues --  -14.37101 -14.36425 -14.32582 -14.30185 -10.31402
 Alpha  occ. eigenvalues --  -10.30695 -10.27852 -10.24365 -10.23957 -10.23878
 Alpha  occ. eigenvalues --  -10.23784 -10.23529 -10.23360 -10.23159 -10.23152
 Alpha  occ. eigenvalues --  -10.22098 -10.21790 -10.21723 -10.21483 -10.21391
 Alpha  occ. eigenvalues --  -10.21332 -10.21228 -10.21126 -10.21110 -10.20869
 Alpha  occ. eigenvalues --  -10.20799 -10.20688 -10.20532 -10.20457 -10.20427
 Alpha  occ. eigenvalues --  -10.20226 -10.20039 -10.19984 -10.19900 -10.19898
 Alpha  occ. eigenvalues --  -10.19697 -10.19666 -10.19491 -10.19477 -10.19432
 Alpha  occ. eigenvalues --  -10.19403 -10.19401 -10.19229 -10.19141 -10.18996
 Alpha  occ. eigenvalues --  -10.18906 -10.18807 -10.18765 -10.18568 -10.18424
 Alpha  occ. eigenvalues --  -10.18381 -10.18333 -10.18267 -10.18247 -10.18106
 Alpha  occ. eigenvalues --  -10.17985 -10.17930 -10.17590 -10.17112  -1.09522
 Alpha  occ. eigenvalues --   -1.08612  -1.03660  -1.00841  -0.99630  -0.98043
 Alpha  occ. eigenvalues --   -0.97001  -0.93179  -0.92913  -0.84573  -0.83474
 Alpha  occ. eigenvalues --   -0.82692  -0.81825  -0.81278  -0.81039  -0.81026
 Alpha  occ. eigenvalues --   -0.80681  -0.80347  -0.78486  -0.78199  -0.77709
 Alpha  occ. eigenvalues --   -0.76951  -0.75859  -0.75170  -0.75029  -0.74355
 Alpha  occ. eigenvalues --   -0.73640  -0.73111  -0.72680  -0.72206  -0.70521
 Alpha  occ. eigenvalues --   -0.70024  -0.69030  -0.68650  -0.68225  -0.68091
 Alpha  occ. eigenvalues --   -0.67241  -0.67046  -0.66321  -0.65445  -0.65033
 Alpha  occ. eigenvalues --   -0.64196  -0.62893  -0.62020  -0.61562  -0.60962
 Alpha  occ. eigenvalues --   -0.60844  -0.59551  -0.58302  -0.57655  -0.57251
 Alpha  occ. eigenvalues --   -0.57074  -0.56651  -0.56144  -0.55626  -0.55614
 Alpha  occ. eigenvalues --   -0.55163  -0.54866  -0.54591  -0.53907  -0.53331
 Alpha  occ. eigenvalues --   -0.52599  -0.51560  -0.51406  -0.50730  -0.50368
 Alpha  occ. eigenvalues --   -0.49956  -0.49429  -0.49078  -0.48967  -0.48061
 Alpha  occ. eigenvalues --   -0.47823  -0.47525  -0.47143  -0.46996  -0.46899
 Alpha  occ. eigenvalues --   -0.46623  -0.46383  -0.46149  -0.46113  -0.45636
 Alpha  occ. eigenvalues --   -0.45429  -0.45371  -0.45232  -0.44880  -0.44798
 Alpha  occ. eigenvalues --   -0.44729  -0.44291  -0.44213  -0.44102  -0.43739
 Alpha  occ. eigenvalues --   -0.43465  -0.43381  -0.43297  -0.42861  -0.42755
 Alpha  occ. eigenvalues --   -0.42360  -0.41951  -0.41896  -0.41801  -0.41511
 Alpha  occ. eigenvalues --   -0.41237  -0.40852  -0.40617  -0.40532  -0.40427
 Alpha  occ. eigenvalues --   -0.40284  -0.40036  -0.39932  -0.39653  -0.39482
 Alpha  occ. eigenvalues --   -0.39366  -0.38930  -0.38605  -0.38534  -0.38310
 Alpha  occ. eigenvalues --   -0.38078  -0.38012  -0.37725  -0.37630  -0.37522
 Alpha  occ. eigenvalues --   -0.37479  -0.37303  -0.37082  -0.36923  -0.36826
 Alpha  occ. eigenvalues --   -0.36776  -0.36614  -0.36045  -0.35807  -0.35671
 Alpha  occ. eigenvalues --   -0.35365  -0.35295  -0.35139  -0.34766  -0.34721
 Alpha  occ. eigenvalues --   -0.34638  -0.34476  -0.34384  -0.33960  -0.33914
 Alpha  occ. eigenvalues --   -0.33670  -0.33553  -0.33249  -0.32879  -0.32324
 Alpha  occ. eigenvalues --   -0.32042  -0.31911  -0.31505  -0.31398  -0.30904
 Alpha  occ. eigenvalues --   -0.30485  -0.30213  -0.30105  -0.30060  -0.29960
 Alpha  occ. eigenvalues --   -0.29863  -0.29062  -0.28581  -0.28142  -0.28077
 Alpha  occ. eigenvalues --   -0.27902  -0.27374  -0.27008  -0.26074  -0.25789
 Alpha  occ. eigenvalues --   -0.24637  -0.24583  -0.24020  -0.21723  -0.19970
 Alpha  occ. eigenvalues --   -0.18901
 Alpha virt. eigenvalues --   -0.09803  -0.08194  -0.04426  -0.02200  -0.00740
 Alpha virt. eigenvalues --   -0.00465   0.00166   0.01409   0.02280   0.03279
 Alpha virt. eigenvalues --    0.03814   0.04283   0.04437   0.04730   0.04803

 Mulliken charges:
               1
     1  C    0.076970
     2  C   -0.118520
     3  C   -0.120827
     4  C   -0.079329
     5  N   -0.207332
     6  C   -0.046725
     7  C    0.015816
     8  C   -0.066435
     9  C   -0.042569
    10  C   -0.002903
    11  C    0.013175
    12  C    0.112991
    13  C    0.182677
    14  O   -0.259786
    15  O   -0.335565
    16  N   -0.113363
    17  C    0.208089
    18  C   -0.144620
    19  C    0.004369
    20  C    0.143505
    21  C    0.062888
    22  C   -0.048701
    23  C   -0.003281
    24  N   -0.297755
    25  C    0.094518
    26  C   -0.167885
    27  C   -0.143740
    28  C    0.127037
    29  C    0.104202
    30  C    0.198059
    31  C   -0.071308
    32  N   -0.068297
    33  C   -0.013761
    34  C   -0.119152
    35  C   -0.034379
    36  C    0.053938
    37  C    0.086803
    38  C    0.063306
    39  O   -0.144772
    40  C   -0.109489
    41  C    0.161092
    42  O   -0.192873
    43  O   -0.299221
    44  C    0.181768
    45  C    0.369356
    46  C   -0.085328
    47  C   -0.146030
    48  C    0.029776
    49  C    0.107480
    50  C    0.023680
    51  C    0.019230
    52  C   -0.002721
    53  C   -0.018879
    54  C    0.005793
    55  C   -0.010960
    56  C    0.112654
    57  C   -0.011165
    58  C   -0.013334
    59  C    0.063047
    60  C    0.012776
    61  C   -0.013531
    62  C   -0.118454
    63  C    0.141491
    64  C   -0.016699
    65  H   -0.002775
    66  H   -0.035074
    67  H    0.010301
    68  H    0.019386
    69  H    0.018388
    70  H    0.035767
    71  H    0.003044
    72  H    0.046679
    73  H    0.000000
    74  H    0.050203
    75  H   -0.009685
    76  H    0.021498
    77  H    0.064975
    78  H    0.016024
    79  H    0.041867
    80  H    0.039858
    81  H   -0.005606
    82  H    0.021967
    83  H    0.027803
    84  H    0.015687
    85  H    0.006404
    86  H   -0.068166
    87  H    0.014428
    88  H    0.021380
    89  H    0.045386
    90  H    0.029170
    91  H    0.034663
    92  H    0.025616
    93  H    0.023705
    94  H    0.062436
    95  H    0.025218
    96  H    0.041055
    97  H    0.023855
    98  H    0.005109
    99  H   -0.051814
   100  H    0.001947
   101  H    0.046251
   102  H    0.043229
   103  H    0.016885
   104  H    0.013936
   105  H   -0.005793
   106  H    0.019786
   107  H   -0.034545
   108  H    0.003232
   109  H   -0.036328
   110  H   -0.033787
   111  H    0.020272
   112  H    0.026648
   113  H   -0.003423
   114  H   -0.032299
   115  H   -0.027983
   116  H    0.015708
   117  H   -0.012472
   118  H   -0.038667
   119  H   -0.030038
   120  H   -0.009097
   121  H    0.007533
   122  H    0.013682
   123  H   -0.005920
   124  H   -0.041403
   125  H    0.016456
   126  H   -0.011932
   127  H   -0.006833
   128  H   -0.017055
   129  H    0.008543
   130  H   -0.002830
   131  H   -0.009108
   132  H   -0.030579
   133  H    0.016850
   134  H    0.001895
   135  H    0.025160
   136  H    0.000438
   137  H    0.158580
   138  H    0.227519
 Sum of Mulliken charges =   0.00000

 Dipole moment (field-independent basis, Debye):
    X=              2.8557    Y=              4.3552    Z=              1.1309  Tot=              5.3293
 Quadrupole moment (field-independent basis, Debye-Ang):
   XX=           -348.7888   YY=           -378.2704   ZZ=           -397.0575
   XY=            -12.2409   XZ=              1.0142   YZ=             -0.3355

 Normal termination of Gaussian 09 at Sat Aug  3 22:28:25 2019.
