 Gaussian 09, Revision D.01,
 Gaussian 09:  ES64L-G09RevD.01 24-Apr-2013

 --------------------------
 # td=(NStates=1) B3LYP/SVP
 --------------------------

 --
 TD
 --
 Symbolic Z-matrix:
 Charge =  0 Multiplicity = 1

                         Standard orientation:
 ---------------------------------------------------------------------
 Center     Atomic      Atomic             Coordinates (Angstroms)
 Number     Number       Type             X           Y           Z
 ---------------------------------------------------------------------
      1          6           0       -5.110928   -1.887928    0.426725
      2          6           0       -4.768681    2.771421    1.455942
      3          6           0       -9.244728    3.324425   -0.392455
      4          6           0       -9.896655   -1.437399   -0.821204
      5          7           0       -5.144732    0.388966    0.921047
      6          6           0       -4.477717   -0.782577    0.887193
      7          6           0       -2.989947   -0.519744    1.280998
      8          6           0       -3.164309    0.866458    1.990932
      9          6           0       -4.456770    1.419432    1.404095
     10          6           0       -3.257480    0.844358    3.540564
     11          6           0       -1.971186   -0.561866    0.105332
     12          6           0       -0.606831   -0.644037    0.539692
     13          6           0        0.316749   -0.852964   -0.616185
     14          8           0        0.126080   -1.305103   -1.740506
     15          8           0        1.640769   -0.643033   -0.197278
     16          7           0       -7.009405    2.731852    0.350995
     17          6           0       -5.953696    3.371011    1.000840
     18          6           0       -6.182486    4.760715    1.129895
     19          6           0       -7.475132    4.953078    0.545136
     20          6           0       -7.979809    3.661375    0.114348
     21          6           0       -5.369105    5.912344    1.850085
     22          6           0       -8.127016    6.218511    0.374627
     23          6           0       -8.976153    6.727523   -0.637224
     24          7           0       -9.210680    0.819540   -0.491587
     25          6           0       -9.762070    2.031484   -0.632072
     26          6           0      -11.208634    1.871230   -1.123241
     27          6           0      -11.413432    0.547194   -1.180693
     28          6           0      -10.251899   -0.111585   -0.901982
     29          6           0      -12.263641    2.959162   -1.285527
     30          6           0      -12.546576   -0.218192   -1.707312
     31          6           0      -12.662186   -0.603821   -3.187475
     32          7           0       -7.542454   -1.226188   -0.069926
     33          6           0       -8.622436   -2.010687   -0.561465
     34          6           0       -8.280591   -3.336763   -0.545769
     35          6           0       -6.890010   -3.389893   -0.264371
     36          6           0       -6.456937   -2.078043    0.069544
     37          6           0       -9.064758   -4.567302   -0.844321
     38          6           0       -5.742019   -4.332635    0.071380
     39          8           0       -5.733283   -5.478641   -0.101792
     40          6           0       -4.506621   -3.277775    0.397530
     41          6           0       -3.954846   -3.845392    1.713081
     42          8           0       -4.346103   -3.470926    2.803790
     43          8           0       -3.022055   -4.778020    1.517919
     44          6           0       -2.850106   -5.620159    2.812475
     45          6           0        2.667117   -0.951925   -1.190716
     46          6           0        3.894971   -0.463099   -0.605130
     47          6           0        4.977581    0.059991   -1.313981
     48          6           0        5.013877    0.452777   -2.754364
     49          6           0        6.302781    0.387309   -0.541277
     50          6           0        7.543293   -0.517719   -1.083963
     51          6           0        8.884165   -0.157682   -0.289109
     52          6           0       10.157452   -0.795085   -0.850096
     53          6           0       10.146104   -2.283172   -0.846647
     54          6           0       11.343485   -0.252696   -0.055713
     55          6           0       12.770193   -0.665686   -0.583633
     56          6           0       13.880517   -0.008788    0.204347
     57          6           0       15.216535   -0.320639   -0.393108
     58          6           0       15.645331   -1.749237   -0.258201
     59          6           0       16.277606    0.616611    0.431724
     60          6           0       17.655345    0.659822   -0.084303
     61          6           0       18.669564    1.644020    0.725736
     62          6           0       20.121668    1.604315    0.207429
     63          6           0       20.196626    2.087846   -1.267239
     64          6           0       20.939294    2.475055    1.169093
     65          1           0       -4.084576    3.411727    1.829509
     66          1           0       -9.910279    4.007482   -0.809198
     67          1           0      -10.590030   -2.214899   -1.178810
     68          1           0       -2.473131   -1.392756    2.024987
     69          1           0       -2.078540    1.513818    1.673593
     70          1           0       -2.267989    0.643418    3.951098
     71          1           0       -3.422749    1.849641    4.018349
     72          1           0       -3.908506    0.168384    4.078475
     73          1           0       -2.105301   -1.379665   -0.542942
     74          1           0       -2.079761    0.260983   -0.763646
     75          1           0       -0.176203    0.214326    1.147474
     76          1           0       -0.442604   -1.566647    1.020043
     77          1           0       -4.543369    6.200945    1.216989
     78          1           0       -6.189341    6.786265    2.299737
     79          1           0       -5.097599    5.279389    2.770773
     80          1           0       -8.040829    7.148965    1.052939
     81          1           0       -9.233923    5.968375   -1.503303
     82          1           0       -9.580270    7.636466   -0.636953
     83          1           0      -12.330272    3.485873   -0.390989
     84          1           0      -11.855075    3.692581   -2.208553
     85          1           0      -13.216872    2.632307   -1.652562
     86          1           0      -12.850191   -1.041969   -0.854697
     87          1           0      -13.633838    0.206393   -1.513695
     88          1           0      -12.763065    0.236712   -3.905362
     89          1           0      -11.826038   -1.246052   -3.463680
     90          1           0      -13.480171   -1.422657   -3.489458
     91          1           0       -9.905885   -4.811652    0.010784
     92          1           0       -9.700586   -4.391086   -1.773439
     93          1           0       -8.397497   -5.433118   -1.030744
     94          1           0       -3.832272   -3.355074   -0.474823
     95          1           0       -2.325029   -6.546735    2.469757
     96          1           0       -2.148894   -5.044054    3.584264
     97          1           0       -3.956395   -5.719327    3.168576
     98          1           0        2.585133   -1.948813   -1.653805
     99          1           0        2.229445   -0.356191   -1.986550
    100          1           0        4.109561   -0.881320    0.122109
    101          1           0        5.394609    1.465415   -2.887810
    102          1           0        5.525410   -0.373186   -3.607353
    103          1           0        3.965397    0.347544   -3.118605
    104          1           0        6.745141    1.473846   -0.607919
    105          1           0        6.246030    0.162518    0.587443
    106          1           0        7.535882   -1.594165   -0.896510
    107          1           0        7.867790   -0.482376   -2.187584
    108          1           0        9.201200    1.034025   -0.338795
    109          1           0        8.994129   -0.330900    0.861711
    110          1           0       10.538140   -0.597189   -2.005205
    111          1           0        9.320624   -2.624547   -1.485760
    112          1           0       11.017240   -2.577144   -1.490820
    113          1           0       10.099469   -2.654205    0.228888
    114          1           0       11.298610    0.919289   -0.041123
    115          1           0       11.350795   -0.546087    1.001404
    116          1           0       12.629298   -1.889099   -0.550004
    117          1           0       12.972235   -0.358102   -1.630388
    118          1           0       13.672912    1.111829    0.298228
    119          1           0       13.756465   -0.399526    1.306079
    120          1           0       15.235424    0.048831   -1.524957
    121          1           0       14.859536   -2.302764   -0.808805
    122          1           0       16.521079   -2.154731   -1.067445
    123          1           0       15.763849   -2.001472    0.804218
    124          1           0       15.837717    1.693107    0.477166
    125          1           0       15.996259    0.210544    1.459685
    126          1           0       18.079025   -0.258267   -0.017072
    127          1           0       17.760529    0.783650   -1.201483
    128          1           0       18.259196    2.659865    0.781008
    129          1           0       18.506371    1.389777    1.925764
    130          1           0       20.548274    0.689648    0.297926
    131          1           0       19.764661    3.294118   -1.307718
    132          1           0       21.267100    2.239346   -1.432001
    133          1           0       19.986631    1.313501   -1.870133
    134          1           0       20.963606    2.497364    2.278147
    135          1           0       21.989713    2.447742    0.779299
    136          1           0       20.753014    3.663684    0.854010
    137          1           0       -7.101976    1.721433    0.539473
    138          1           0       -7.379985   -0.106608   -0.019767
 ---------------------------------------------------------------------

 SCF Done:  E(RB3LYP) =  -2733.00214323     A.U. after   17 cycles

 Excitation energies and oscillator strengths:

 Excited State   1:      Singlet-A      2.0739 eV  597.85 nm  f=0.1596  <S**2>=0.000
     235 -> 237       -0.35946
     235 -> 238        0.24237
     236 -> 237        0.51951
     236 -> 238        0.19715
 This state for optimization and/or second-order correction.
 Total Energy, E(TD-HF/TD-KS) =  -2732.92593062
 Copying the excited state density for this state as the 1-particle RhoCI density.

 The electronic state is 1-A.
 Alpha  occ. eigenvalues --  -19.17932 -19.16193 -19.13290 -19.12945 -19.11583
 Alpha  occ. eigenvalues --  -14.37416 -14.36335 -14.32075 -14.29850 -10.31482
 Alpha  occ. eigenvalues --  -10.31079 -10.28317 -10.26698 -10.24440 -10.24139
 Alpha  occ. eigenvalues --  -10.23440 -10.23049 -10.22937 -10.22897 -10.22842
 Alpha  occ. eigenvalues --  -10.22478 -10.22296 -10.22232 -10.21743 -10.21630
 Alpha  occ. eigenvalues --  -10.21573 -10.21480 -10.21467 -10.21285 -10.21271
 Alpha  occ. eigenvalues --  -10.20938 -10.20680 -10.20677 -10.20641 -10.20641
 Alpha  occ. eigenvalues --  -10.20573 -10.20348 -10.20308 -10.20056 -10.20036
 Alpha  occ. eigenvalues --  -10.19917 -10.19900 -10.19641 -10.19517 -10.19501
 Alpha  occ. eigenvalues --  -10.19402 -10.19328 -10.19143 -10.19024 -10.18988
 Alpha  occ. eigenvalues --  -10.18931 -10.18869 -10.18834 -10.18818 -10.18815
 Alpha  occ. eigenvalues --  -10.18770 -10.18665 -10.18325 -10.18255 -10.18246
 Alpha  occ. eigenvalues --  -10.18103 -10.17609 -10.17106 -10.17017  -1.08292
 Alpha  occ. eigenvalues --   -1.07480  -1.06360  -0.99137  -0.99119  -0.98582
 Alpha  occ. eigenvalues --   -0.96155  -0.94794  -0.92584  -0.83916  -0.82813
 Alpha  occ. eigenvalues --   -0.82021  -0.81691  -0.81327  -0.81146  -0.80640
 Alpha  occ. eigenvalues --   -0.79888  -0.79757  -0.79716  -0.78666  -0.77052
 Alpha  occ. eigenvalues --   -0.75975  -0.75438  -0.74791  -0.74614  -0.73995
 Alpha  occ. eigenvalues --   -0.72911  -0.72476  -0.72242  -0.71263  -0.70357
 Alpha  occ. eigenvalues --   -0.70019  -0.69604  -0.68247  -0.67533  -0.67353
 Alpha  occ. eigenvalues --   -0.67277  -0.66678  -0.66192  -0.65544  -0.64799
 Alpha  occ. eigenvalues --   -0.63829  -0.62820  -0.62174  -0.61707  -0.60974
 Alpha  occ. eigenvalues --   -0.60596  -0.58664  -0.58249  -0.57378  -0.56600
 Alpha  occ. eigenvalues --   -0.55954  -0.55876  -0.55544  -0.55406  -0.54665
 Alpha  occ. eigenvalues --   -0.54442  -0.53802  -0.53648  -0.53418  -0.53013
 Alpha  occ. eigenvalues --   -0.52801  -0.52189  -0.51080  -0.50966  -0.50175
 Alpha  occ. eigenvalues --   -0.49954  -0.49296  -0.48698  -0.48199  -0.47802
 Alpha  occ. eigenvalues --   -0.47436  -0.47195  -0.46963  -0.46586  -0.46530
 Alpha  occ. eigenvalues --   -0.46468  -0.46374  -0.46134  -0.45452  -0.45268
 Alpha  occ. eigenvalues --   -0.45019  -0.44898  -0.44665  -0.44522  -0.44333
 Alpha  occ. eigenvalues --   -0.44250  -0.44089  -0.43908  -0.43745  -0.43569
 Alpha  occ. eigenvalues --   -0.43432  -0.43341  -0.42696  -0.42474  -0.42361
 Alpha  occ. eigenvalues --   -0.42143  -0.42024  -0.41932  -0.41706  -0.41675
 Alpha  occ. eigenvalues --   -0.41411  -0.41255  -0.40808  -0.40481  -0.40351
 Alpha  occ. eigenvalues --   -0.40215  -0.40104  -0.39978  -0.39798  -0.39725
 Alpha  occ. eigenvalues --   -0.39228  -0.39082  -0.38803  -0.38575  -0.38261
 Alpha  occ. eigenvalues --   -0.38109  -0.38023  -0.37914  -0.37726  -0.37550
 Alpha  occ. eigenvalues --   -0.37258  -0.36893  -0.36715  -0.36343  -0.36126
 Alpha  occ. eigenvalues --   -0.36091  -0.35958  -0.35679  -0.35633  -0.35465
 Alpha  occ. eigenvalues --   -0.35322  -0.35105  -0.34800  -0.34709  -0.34627
 Alpha  occ. eigenvalues --   -0.34442  -0.33826  -0.33773  -0.33422  -0.33297
 Alpha  occ. eigenvalues --   -0.33100  -0.32944  -0.32594  -0.32170  -0.32121
 Alpha  occ. eigenvalues --   -0.31930  -0.31696  -0.31575  -0.31112  -0.31013
 Alpha  occ. eigenvalues --   -0.30617  -0.30546  -0.30256  -0.30222  -0.30036
 Alpha  occ. eigenvalues --   -0.29291  -0.28982  -0.28315  -0.28142  -0.27598
 Alpha  occ. eigenvalues --   -0.27166  -0.26928  -0.26277  -0.25980  -0.25292
 Alpha  occ. eigenvalues --   -0.24749  -0.24256  -0.23966  -0.23181  -0.19870
 Alpha  occ. eigenvalues --   -0.19335
 Alpha virt. eigenvalues --   -0.10675  -0.07728  -0.04090  -0.02250  -0.02166
 Alpha virt. eigenvalues --   -0.00407   0.00173   0.01235   0.02237   0.03157
 Alpha virt. eigenvalues --    0.03839   0.03893   0.04002   0.04513   0.04588

 Mulliken charges:
               1
     1  C    0.078050
     2  C   -0.022966
     3  C   -0.050103
     4  C   -0.079888
     5  N   -0.175634
     6  C   -0.064000
     7  C   -0.051065
     8  C   -0.118307
     9  C    0.038087
    10  C    0.084160
    11  C    0.045434
    12  C    0.105733
    13  C    0.150530
    14  O   -0.248394
    15  O   -0.374592
    16  N   -0.067080
    17  C    0.080491
    18  C   -0.139803
    19  C    0.114923
    20  C    0.137814
    21  C    0.043110
    22  C   -0.130227
    23  C   -0.097611
    24  N   -0.271190
    25  C    0.016560
    26  C   -0.167478
    27  C    0.013712
    28  C    0.098336
    29  C    0.102462
    30  C   -0.045261
    31  C    0.018674
    32  N   -0.134134
    33  C    0.101960
    34  C   -0.122768
    35  C   -0.033897
    36  C    0.053769
    37  C    0.042631
    38  C    0.061745
    39  O   -0.106290
    40  C   -0.061583
    41  C    0.202781
    42  O   -0.248618
    43  O   -0.322247
    44  C    0.114789
    45  C    0.270744
    46  C    0.126397
    47  C   -0.129862
    48  C    0.028637
    49  C    0.029243
    50  C    0.015072
    51  C   -0.038524
    52  C   -0.121717
    53  C    0.045970
    54  C   -0.008598
    55  C   -0.035442
    56  C    0.012541
    57  C   -0.115893
    58  C    0.031942
    59  C   -0.018046
    60  C    0.138184
    61  C   -0.024383
    62  C   -0.036691
    63  C    0.064250
    64  C   -0.022392
    65  H   -0.081203
    66  H   -0.066253
    67  H   -0.022378
    68  H    0.034505
    69  H    0.021599
    70  H   -0.004402
    71  H    0.003088
    72  H    0.030016
    73  H   -0.009361
    74  H    0.018700
    75  H    0.043990
    76  H    0.017502
    77  H    0.054016
    78  H    0.068791
    79  H    0.049204
    80  H    0.021965
    81  H    0.038772
    82  H    0.037627
    83  H    0.023613
    84  H    0.031834
    85  H    0.010841
    86  H    0.014661
    87  H   -0.002164
    88  H    0.029398
    89  H   -0.000369
    90  H    0.015893
    91  H    0.047459
    92  H    0.027993
    93  H    0.048500
    94  H    0.055447
    95  H    0.055653
    96  H    0.065356
    97  H    0.081962
    98  H    0.032884
    99  H    0.003319
   100  H   -0.156526
   101  H    0.033665
   102  H    0.053041
   103  H    0.005837
   104  H    0.033238
   105  H    0.017093
   106  H    0.006419
   107  H    0.020693
   108  H    0.004001
   109  H    0.010004
   110  H   -0.001137
   111  H   -0.000652
   112  H    0.013586
   113  H    0.015612
   114  H   -0.002892
   115  H   -0.012973
   116  H    0.033343
   117  H   -0.008605
   118  H    0.009066
   119  H   -0.002366
   120  H    0.004314
   121  H    0.001076
   122  H    0.020658
   123  H    0.020961
   124  H   -0.008363
   125  H   -0.006959
   126  H   -0.049793
   127  H   -0.009265
   128  H   -0.010952
   129  H   -0.002802
   130  H   -0.026909
   131  H    0.043028
   132  H   -0.010865
   133  H   -0.009476
   134  H    0.031719
   135  H   -0.005567
   136  H   -0.007162
   137  H    0.166772
   138  H    0.206634
 Sum of Mulliken charges =   0.00000

 Dipole moment (field-independent basis, Debye):
    X=              1.2025    Y=              2.9480    Z=              0.9397  Tot=              3.3196
 Quadrupole moment (field-independent basis, Debye-Ang):
   XX=           -353.1730   YY=           -378.1327   ZZ=           -391.0560
   XY=            -32.5812   XZ=             -1.2779   YZ=              0.6543

 Normal termination of Gaussian 09 at Fri Aug  2 09:46:12 2019.
