 Gaussian 09, Revision D.01,
 Gaussian 09:  ES64L-G09RevD.01 24-Apr-2013

 --------------------------
 # td=(NStates=1) B3LYP/SVP
 --------------------------

 --
 TD
 --
 Symbolic Z-matrix:
 Charge =  0 Multiplicity = 1

                         Standard orientation:
 ---------------------------------------------------------------------
 Center     Atomic      Atomic             Coordinates (Angstroms)
 Number     Number       Type             X           Y           Z
 ---------------------------------------------------------------------
      1          6           0       -5.117416   -1.852058    0.478478
      2          6           0       -4.838255    2.750344    1.414283
      3          6           0       -9.347645    3.325318   -0.290198
      4          6           0       -9.794222   -1.418165   -0.972596
      5          7           0       -5.111139    0.453147    0.760629
      6          6           0       -4.486134   -0.696366    0.802794
      7          6           0       -3.008416   -0.521720    1.173950
      8          6           0       -3.084874    0.937557    1.757184
      9          6           0       -4.425535    1.395546    1.279481
     10          6           0       -2.871546    1.009978    3.298449
     11          6           0       -2.030519   -0.691235    0.125712
     12          6           0       -0.569084   -0.922597    0.556201
     13          6           0        0.271061   -1.022808   -0.658713
     14          8           0        0.049796   -1.467986   -1.673998
     15          8           0        1.706583   -0.769642   -0.316452
     16          7           0       -7.115824    2.688385    0.512771
     17          6           0       -6.035321    3.294553    0.999316
     18          6           0       -6.351626    4.725175    0.984285
     19          6           0       -7.617579    4.877278    0.579544
     20          6           0       -8.148784    3.596007    0.223277
     21          6           0       -5.451890    5.812342    1.577604
     22          6           0       -8.278223    6.221549    0.491086
     23          6           0       -8.932431    6.667544   -0.582583
     24          7           0       -9.262029    0.911546   -0.375678
     25          6           0       -9.932150    2.022039   -0.550059
     26          6           0      -11.319628    1.865289   -0.953061
     27          6           0      -11.488378    0.547840   -1.206402
     28          6           0      -10.073702   -0.038913   -0.801718
     29          6           0      -12.351095    2.929909   -1.042590
     30          6           0      -12.592327   -0.297804   -1.697128
     31          6           0      -12.601295   -0.641191   -3.156334
     32          7           0       -7.455603   -1.251572   -0.309900
     33          6           0       -8.540123   -1.992021   -0.802372
     34          6           0       -8.219864   -3.424174   -0.735934
     35          6           0       -6.840811   -3.373659   -0.287976
     36          6           0       -6.445332   -2.022407    0.081125
     37          6           0       -9.013433   -4.684868   -1.101585
     38          6           0       -5.801293   -4.323076    0.112953
     39          8           0       -5.574692   -5.539929    0.133766
     40          6           0       -4.610528   -3.334972    0.541193
     41          6           0       -3.887150   -3.762043    1.826140
     42          8           0       -4.179266   -3.380459    2.937043
     43          8           0       -2.966099   -4.746181    1.576596
     44          6           0       -2.459058   -5.329808    2.751587
     45          6           0        2.734009   -1.168531   -1.144318
     46          6           0        4.085530   -0.652335   -0.654518
     47          6           0        4.982090    0.050532   -1.198368
     48          6           0        4.930636    0.709679   -2.578817
     49          6           0        6.179577    0.352981   -0.423590
     50          6           0        7.490522   -0.413629   -0.970002
     51          6           0        8.795740   -0.203256   -0.031010
     52          6           0       10.059585   -0.580201   -0.757416
     53          6           0       10.143446   -2.141267   -1.031711
     54          6           0       11.298344   -0.230709    0.123469
     55          6           0       12.701902   -0.623000   -0.354382
     56          6           0       13.843007   -0.104232    0.435321
     57          6           0       15.262830   -0.239449   -0.146629
     58          6           0       15.787752   -1.670986   -0.333950
     59          6           0       16.267299    0.607566    0.508254
     60          6           0       17.659614    0.632106   -0.089539
     61          6           0       18.682945    1.555456    0.572479
     62          6           0       20.056016    1.702488   -0.050997
     63          6           0       20.038813    2.341237   -1.474699
     64          6           0       21.048980    2.438351    0.936586
     65          1           0       -4.144604    3.441396    1.945193
     66          1           0      -10.078623    4.241829   -0.769048
     67          1           0      -10.554537   -1.991295   -1.666757
     68          1           0       -3.030643   -1.354423    1.981031
     69          1           0       -2.221082    1.478930    1.232836
     70          1           0       -1.896791    0.803623    3.522491
     71          1           0       -3.027370    2.041269    3.624968
     72          1           0       -3.666043    0.242272    3.655383
     73          1           0       -2.227162   -1.844502   -0.429072
     74          1           0       -2.157443    0.272937   -0.720339
     75          1           0       -0.252602   -0.035507    1.105508
     76          1           0       -0.369958   -1.953486    1.298548
     77          1           0       -4.699439    6.251885    0.908151
     78          1           0       -6.008521    6.774904    2.134792
     79          1           0       -4.920193    5.188747    2.489616
     80          1           0       -8.068021    7.025822    1.343126
     81          1           0       -9.000283    6.022832   -1.324293
     82          1           0       -9.353608    7.587785   -0.626108
     83          1           0      -12.310147    3.532053    0.010139
     84          1           0      -11.817154    3.648386   -1.799415
     85          1           0      -13.478212    2.531982   -1.346277
     86          1           0      -12.482209   -1.206155   -1.127428
     87          1           0      -13.327208    0.315951   -1.434294
     88          1           0      -12.593643    0.399543   -3.862580
     89          1           0      -11.854602   -1.442842   -3.558282
     90          1           0      -13.667731   -1.131207   -3.421460
     91          1           0       -9.972319   -4.710938   -0.593124
     92          1           0       -9.215466   -4.758663   -2.301108
     93          1           0       -8.204593   -5.420147   -0.867788
     94          1           0       -3.835037   -3.578374   -0.306197
     95          1           0       -1.738627   -6.080465    2.359787
     96          1           0       -1.817223   -4.564109    3.376794
     97          1           0       -3.376143   -5.775974    3.239582
     98          1           0        2.693055   -2.255788   -1.328638
     99          1           0        2.290212   -0.712092   -2.090098
    100          1           0        4.184193   -0.964543    0.351948
    101          1           0        4.842167    1.875817   -2.227629
    102          1           0        5.850130    0.402487   -3.035348
    103          1           0        4.197630    0.291461   -3.275217
    104          1           0        6.311582    1.604129   -0.410423
    105          1           0        6.105070    0.200322    0.825506
    106          1           0        7.235199   -1.437615   -0.969474
    107          1           0        7.798882    0.112659   -2.035507
    108          1           0        8.684741    0.919154    0.086513
    109          1           0        8.597869   -0.642788    0.852748
    110          1           0        9.918795   -0.004072   -1.820091
    111          1           0        9.195941   -2.688597   -1.552932
    112          1           0       11.003836   -2.365575   -1.703955
    113          1           0       10.305019   -2.906919   -0.207500
    114          1           0       11.267788    0.811761    0.211502
    115          1           0       11.165170   -0.617567    1.027551
    116          1           0       12.670336   -1.741072   -0.619706
    117          1           0       12.928295   -0.019277   -1.295596
    118          1           0       13.850208    1.108929    0.597457
    119          1           0       13.796023   -0.454396    1.443204
    120          1           0       14.931354    0.054101   -1.270744
    121          1           0       14.872801   -2.285489   -0.752381
    122          1           0       16.612797   -1.688434   -1.065773
    123          1           0       16.200626   -2.255800    0.565969
    124          1           0       15.781746    1.603437    0.572851
    125          1           0       16.211720    0.083971    1.534373
    126          1           0       18.231508   -0.417246   -0.101836
    127          1           0       17.427931    0.969303   -1.124660
    128          1           0       18.091243    2.452485    0.531741
    129          1           0       18.675628    1.399956    1.620258
    130          1           0       20.416143    0.586279   -0.260951
    131          1           0       19.742658    3.416475   -1.280912
    132          1           0       21.012151    2.365031   -1.919494
    133          1           0       19.154444    1.880907   -2.148329
    134          1           0       21.007248    1.773175    1.756300
    135          1           0       21.956912    2.542459    0.321525
    136          1           0       20.747098    3.301236    1.308001
    137          1           0       -7.249241    1.643569    0.491776
    138          1           0       -7.552266   -0.219963   -0.356129
 ---------------------------------------------------------------------

 SCF Done:  E(RB3LYP) =  -2733.03730118     A.U. after   17 cycles

 Excitation energies and oscillator strengths:

 Excited State   1:      Singlet-A      2.1882 eV  566.60 nm  f=0.1722  <S**2>=0.000
     235 -> 238       -0.31163
     236 -> 237        0.63063
 This state for optimization and/or second-order correction.
 Total Energy, E(TD-HF/TD-KS) =  -2732.95688608
 Copying the excited state density for this state as the 1-particle RhoCI density.

 The electronic state is 1-A.
 Alpha  occ. eigenvalues --  -19.17407 -19.14523 -19.13284 -19.12494 -19.12065
 Alpha  occ. eigenvalues --  -14.37704 -14.37530 -14.31754 -14.31082 -10.31567
 Alpha  occ. eigenvalues --  -10.31331 -10.28025 -10.24781 -10.24325 -10.23995
 Alpha  occ. eigenvalues --  -10.23889 -10.23541 -10.23104 -10.22960 -10.22889
 Alpha  occ. eigenvalues --  -10.22865 -10.22589 -10.22573 -10.22444 -10.22382
 Alpha  occ. eigenvalues --  -10.22152 -10.21786 -10.21688 -10.21579 -10.21418
 Alpha  occ. eigenvalues --  -10.21387 -10.21138 -10.21081 -10.21051 -10.20777
 Alpha  occ. eigenvalues --  -10.20622 -10.20617 -10.20471 -10.20349 -10.20204
 Alpha  occ. eigenvalues --  -10.19919 -10.19850 -10.19795 -10.19567 -10.19386
 Alpha  occ. eigenvalues --  -10.19245 -10.19233 -10.19123 -10.18905 -10.18813
 Alpha  occ. eigenvalues --  -10.18738 -10.18644 -10.18599 -10.18599 -10.18544
 Alpha  occ. eigenvalues --  -10.18372 -10.18259 -10.18193 -10.18098 -10.17862
 Alpha  occ. eigenvalues --  -10.16948 -10.16823 -10.16751 -10.16543  -1.10978
 Alpha  occ. eigenvalues --   -1.09182  -1.01081  -1.00662  -1.00160  -0.99367
 Alpha  occ. eigenvalues --   -0.98724  -0.97695  -0.96118  -0.84377  -0.82675
 Alpha  occ. eigenvalues --   -0.82621  -0.82323  -0.82048  -0.81563  -0.81047
 Alpha  occ. eigenvalues --   -0.80856  -0.79919  -0.79599  -0.79423  -0.77686
 Alpha  occ. eigenvalues --   -0.76871  -0.76395  -0.75989  -0.75735  -0.73814
 Alpha  occ. eigenvalues --   -0.73551  -0.73175  -0.72216  -0.71233  -0.70377
 Alpha  occ. eigenvalues --   -0.69931  -0.68713  -0.68522  -0.67860  -0.67315
 Alpha  occ. eigenvalues --   -0.67166  -0.66854  -0.66702  -0.65918  -0.65073
 Alpha  occ. eigenvalues --   -0.64866  -0.63069  -0.62611  -0.62345  -0.61677
 Alpha  occ. eigenvalues --   -0.61069  -0.58684  -0.58613  -0.58118  -0.57656
 Alpha  occ. eigenvalues --   -0.56478  -0.55979  -0.55479  -0.55153  -0.54942
 Alpha  occ. eigenvalues --   -0.54423  -0.54204  -0.53662  -0.53538  -0.53162
 Alpha  occ. eigenvalues --   -0.52498  -0.52164  -0.51430  -0.51289  -0.50258
 Alpha  occ. eigenvalues --   -0.49453  -0.49321  -0.49106  -0.48865  -0.48501
 Alpha  occ. eigenvalues --   -0.48371  -0.47995  -0.47652  -0.47182  -0.46903
 Alpha  occ. eigenvalues --   -0.46708  -0.46351  -0.46248  -0.46016  -0.45916
 Alpha  occ. eigenvalues --   -0.45643  -0.45509  -0.45326  -0.45181  -0.44844
 Alpha  occ. eigenvalues --   -0.44775  -0.44650  -0.44226  -0.43814  -0.43632
 Alpha  occ. eigenvalues --   -0.43294  -0.43122  -0.43028  -0.42672  -0.42443
 Alpha  occ. eigenvalues --   -0.42273  -0.42151  -0.41980  -0.41877  -0.41800
 Alpha  occ. eigenvalues --   -0.41352  -0.41244  -0.41094  -0.40678  -0.40534
 Alpha  occ. eigenvalues --   -0.40390  -0.40334  -0.40237  -0.39814  -0.39712
 Alpha  occ. eigenvalues --   -0.39680  -0.39522  -0.39042  -0.39026  -0.38611
 Alpha  occ. eigenvalues --   -0.38281  -0.38223  -0.38208  -0.38096  -0.37614
 Alpha  occ. eigenvalues --   -0.37323  -0.37244  -0.36951  -0.36718  -0.36678
 Alpha  occ. eigenvalues --   -0.36663  -0.36451  -0.36211  -0.35665  -0.35430
 Alpha  occ. eigenvalues --   -0.35319  -0.35217  -0.35188  -0.35072  -0.34873
 Alpha  occ. eigenvalues --   -0.34575  -0.34411  -0.33875  -0.33740  -0.33255
 Alpha  occ. eigenvalues --   -0.33146  -0.32907  -0.32694  -0.32651  -0.32385
 Alpha  occ. eigenvalues --   -0.32306  -0.31872  -0.31165  -0.31021  -0.30875
 Alpha  occ. eigenvalues --   -0.30826  -0.30498  -0.30180  -0.30065  -0.29712
 Alpha  occ. eigenvalues --   -0.29560  -0.28993  -0.28967  -0.27991  -0.27949
 Alpha  occ. eigenvalues --   -0.27641  -0.27258  -0.26793  -0.26159  -0.26084
 Alpha  occ. eigenvalues --   -0.25337  -0.24937  -0.24571  -0.23775  -0.20452
 Alpha  occ. eigenvalues --   -0.19280
 Alpha virt. eigenvalues --   -0.10102  -0.07732  -0.04575  -0.01656  -0.01556
 Alpha virt. eigenvalues --   -0.00415   0.00334   0.01850   0.02031   0.02817
 Alpha virt. eigenvalues --    0.03560   0.03726   0.03956   0.03991   0.04090

 Mulliken charges:
               1
     1  C    0.105312
     2  C   -0.097244
     3  C   -0.190091
     4  C   -0.095593
     5  N   -0.069374
     6  C   -0.164667
     7  C   -0.016197
     8  C   -0.087349
     9  C   -0.034857
    10  C    0.107829
    11  C   -0.062144
    12  C    0.019230
    13  C    0.175439
    14  O   -0.115328
    15  O   -0.414986
    16  N   -0.066569
    17  C    0.107269
    18  C   -0.094054
    19  C    0.033028
    20  C    0.161835
    21  C   -0.017191
    22  C   -0.099862
    23  C    0.083379
    24  N   -0.156238
    25  C    0.010497
    26  C   -0.128545
    27  C   -0.138144
    28  C    0.004505
    29  C   -0.008092
    30  C    0.205268
    31  C   -0.089381
    32  N   -0.038217
    33  C    0.046665
    34  C   -0.103935
    35  C   -0.104923
    36  C    0.051252
    37  C    0.050946
    38  C    0.128060
    39  O   -0.198769
    40  C   -0.090663
    41  C    0.190783
    42  O   -0.231898
    43  O   -0.296942
    44  C    0.145699
    45  C    0.260599
    46  C   -0.060953
    47  C   -0.104920
    48  C    0.107172
    49  C   -0.065982
    50  C   -0.028024
    51  C    0.074300
    52  C   -0.077059
    53  C   -0.059293
    54  C    0.145853
    55  C    0.021115
    56  C    0.006996
    57  C   -0.121678
    58  C   -0.008708
    59  C    0.053904
    60  C   -0.019470
    61  C    0.091476
    62  C   -0.131208
    63  C   -0.003137
    64  C    0.124839
    65  H   -0.020544
    66  H    0.033911
    67  H    0.025595
    68  H    0.030346
    69  H    0.004397
    70  H   -0.007239
    71  H    0.004886
    72  H    0.051953
    73  H    0.048050
    74  H    0.052710
    75  H    0.020559
    76  H    0.092275
    77  H    0.044365
    78  H    0.048230
    79  H    0.048792
    80  H    0.028075
    81  H   -0.016627
    82  H   -0.003348
    83  H    0.050843
    84  H    0.046882
    85  H    0.057471
    86  H    0.004854
    87  H   -0.050694
    88  H    0.033334
    89  H    0.042439
    90  H    0.025528
    91  H    0.041970
    92  H    0.051417
    93  H    0.060573
    94  H    0.072401
    95  H    0.032216
    96  H    0.039067
    97  H    0.051690
    98  H   -0.001133
    99  H   -0.008843
   100  H   -0.036252
   101  H    0.052588
   102  H   -0.001168
   103  H    0.010328
   104  H    0.008464
   105  H    0.022346
   106  H    0.006573
   107  H    0.034515
   108  H    0.000733
   109  H   -0.032577
   110  H    0.014694
   111  H    0.016934
   112  H    0.022744
   113  H    0.014340
   114  H   -0.033248
   115  H   -0.045613
   116  H    0.025810
   117  H   -0.008912
   118  H   -0.002245
   119  H   -0.028706
   120  H   -0.012876
   121  H    0.009551
   122  H    0.019826
   123  H    0.010578
   124  H   -0.006772
   125  H   -0.001011
   126  H    0.014451
   127  H    0.004306
   128  H   -0.040912
   129  H   -0.032563
   130  H    0.000670
   131  H    0.002741
   132  H    0.010978
   133  H    0.032220
   134  H   -0.002752
   135  H    0.013158
   136  H   -0.029548
   137  H    0.161733
   138  H    0.146908
 Sum of Mulliken charges =   0.00000

 Dipole moment (field-independent basis, Debye):
    X=             -0.8020    Y=              5.3153    Z=              0.3620  Tot=              5.3877
 Quadrupole moment (field-independent basis, Debye-Ang):
   XX=           -344.9775   YY=           -386.5308   ZZ=           -398.2948
   XY=            -25.7782   XZ=             21.8559   YZ=              2.2655

 Normal termination of Gaussian 09 at Sun Aug  4 23:37:22 2019.
