 Gaussian 09, Revision D.01,
 Gaussian 09:  ES64L-G09RevD.01 24-Apr-2013

 --------------------------
 # td=(NStates=1) B3LYP/SVP
 --------------------------

 --
 TD
 --
 Symbolic Z-matrix:
 Charge =  0 Multiplicity = 1

                         Standard orientation:
 ---------------------------------------------------------------------
 Center     Atomic      Atomic             Coordinates (Angstroms)
 Number     Number       Type             X           Y           Z
 ---------------------------------------------------------------------
      1          6           0       -5.109910   -1.949499    0.487588
      2          6           0       -4.754923    2.848445    1.363161
      3          6           0       -9.427644    3.277787   -0.257484
      4          6           0       -9.770819   -1.557986   -0.905805
      5          7           0       -5.158993    0.391156    0.759484
      6          6           0       -4.518940   -0.780139    0.819686
      7          6           0       -3.055974   -0.583752    1.289148
      8          6           0       -3.141843    0.944382    1.724807
      9          6           0       -4.464900    1.407838    1.243147
     10          6           0       -2.967542    1.064179    3.266962
     11          6           0       -2.061371   -0.826014    0.204418
     12          6           0       -0.552539   -0.918956    0.696248
     13          6           0        0.421466   -1.065188   -0.606690
     14          8           0        0.060157   -1.278325   -1.754174
     15          8           0        1.673299   -0.714637   -0.221118
     16          7           0       -7.085119    2.798241    0.333784
     17          6           0       -5.934725    3.390297    0.953536
     18          6           0       -6.332313    4.781392    1.025402
     19          6           0       -7.634819    4.922400    0.691884
     20          6           0       -8.133735    3.609908    0.212527
     21          6           0       -5.429954    5.852529    1.591539
     22          6           0       -8.325852    6.239513    0.608322
     23          6           0       -9.205289    6.642360   -0.353798
     24          7           0       -9.254462    0.857687   -0.525876
     25          6           0       -9.941903    2.004804   -0.608741
     26          6           0      -11.331114    1.776698   -1.153116
     27          6           0      -11.426480    0.430841   -1.340537
     28          6           0      -10.050593   -0.111754   -0.973981
     29          6           0      -12.338686    2.936073   -1.348022
     30          6           0      -12.644766   -0.295787   -1.744222
     31          6           0      -12.535868   -0.633231   -3.305155
     32          7           0       -7.574489   -1.298012   -0.082356
     33          6           0       -8.582417   -2.090652   -0.555571
     34          6           0       -8.168918   -3.453944   -0.552105
     35          6           0       -6.765856   -3.459562   -0.244377
     36          6           0       -6.434113   -2.144989   -0.034741
     37          6           0       -9.021449   -4.729121   -0.833343
     38          6           0       -5.617583   -4.259302   -0.023677
     39          8           0       -5.432900   -5.502873   -0.066714
     40          6           0       -4.481942   -3.317410    0.426155
     41          6           0       -3.928466   -3.797342    1.744155
     42          8           0       -4.269270   -3.430891    2.826369
     43          8           0       -2.859999   -4.707922    1.599438
     44          6           0       -2.357562   -5.331993    2.759241
     45          6           0        2.604596   -0.776215   -1.258538
     46          6           0        3.924140   -0.558564   -0.576353
     47          6           0        4.985819    0.089629   -1.049615
     48          6           0        5.094802    0.757989   -2.466582
     49          6           0        6.266647    0.235719   -0.200083
     50          6           0        7.587290   -0.223101   -0.878754
     51          6           0        8.718594   -0.044851   -0.072655
     52          6           0       10.111142   -0.645900   -0.729734
     53          6           0       10.001985   -2.117571   -0.925144
     54          6           0       11.307719   -0.267620    0.116742
     55          6           0       12.629158   -0.626598   -0.510688
     56          6           0       13.832166   -0.063328    0.418253
     57          6           0       15.212398   -0.209578   -0.301187
     58          6           0       15.721613   -1.748431   -0.238837
     59          6           0       16.269138    0.703326    0.399329
     60          6           0       17.649200    0.648464   -0.139958
     61          6           0       18.526867    1.767450    0.396022
     62          6           0       20.104993    1.591926    0.014577
     63          6           0       20.345414    1.865966   -1.420635
     64          6           0       20.957307    2.560944    0.893977
     65          1           0       -4.133862    3.582006    1.769864
     66          1           0      -10.060838    4.082438   -0.418401
     67          1           0      -10.414831   -2.241827   -1.190677
     68          1           0       -2.684457   -1.208733    2.256927
     69          1           0       -2.442847    1.509175    1.193886
     70          1           0       -2.053510    0.699552    3.813845
     71          1           0       -3.172251    2.235069    3.259678
     72          1           0       -3.865204    0.621181    3.776154
     73          1           0       -2.173759   -1.850497   -0.288340
     74          1           0       -2.393269   -0.117023   -0.860061
     75          1           0       -0.410507    0.114197    1.068532
     76          1           0       -0.676614   -1.696298    1.435737
     77          1           0       -4.667630    6.301998    0.673008
     78          1           0       -5.985570    6.789078    2.082974
     79          1           0       -4.948898    5.487194    2.659773
     80          1           0       -8.236421    7.003267    1.538333
     81          1           0       -9.548536    6.042738   -1.219546
     82          1           0       -9.474349    7.584873   -0.497776
     83          1           0      -12.844839    3.492268   -0.438045
     84          1           0      -11.875455    3.684034   -2.125294
     85          1           0      -13.287940    2.402894   -1.787471
     86          1           0      -12.479504   -1.347091   -1.253057
     87          1           0      -13.528755   -0.023550   -1.461499
     88          1           0      -12.733696    0.369384   -3.734497
     89          1           0      -11.723752   -1.097587   -3.679113
     90          1           0      -13.577626   -1.277065   -3.300231
     91          1           0       -9.697441   -4.782360   -0.030469
     92          1           0       -9.444467   -4.965435   -1.766010
     93          1           0       -8.178930   -5.650049   -0.612017
     94          1           0       -3.720402   -3.238853   -0.415347
     95          1           0       -1.523744   -5.948616    2.320319
     96          1           0       -1.996981   -4.599468    3.475915
     97          1           0       -3.085059   -5.904020    3.278953
     98          1           0        2.645799   -1.760700   -1.664374
     99          1           0        2.425578   -0.172342   -2.125305
    100          1           0        3.940749   -1.182911    0.374326
    101          1           0        5.597430    1.721285   -2.547835
    102          1           0        5.395996   -0.149927   -3.162812
    103          1           0        4.068736    1.110879   -2.690986
    104          1           0        6.571676    1.108348   -0.002734
    105          1           0        6.442119   -0.335059    0.704581
    106          1           0        7.562260   -1.254192   -1.315454
    107          1           0        7.920501    0.210626   -1.766550
    108          1           0        8.825663    1.091241    0.084514
    109          1           0        8.633834   -0.551374    0.977670
    110          1           0       10.095921   -0.172643   -1.744103
    111          1           0        9.152563   -2.645144   -1.404651
    112          1           0       10.853955   -2.556693   -1.432313
    113          1           0        9.931433   -2.717184   -0.032879
    114          1           0       11.101115    0.913375    0.273514
    115          1           0       11.150893   -0.643200    1.056029
    116          1           0       12.600893   -1.800428   -0.768747
    117          1           0       12.877774   -0.327340   -1.573131
    118          1           0       13.435980    1.067030    0.551904
    119          1           0       13.833394   -0.521700    1.248097
    120          1           0       15.199002    0.195713   -1.329620
    121          1           0       14.969976   -2.465071   -0.700305
    122          1           0       16.543168   -2.062181   -0.929856
    123          1           0       15.785187   -2.044181    0.929573
    124          1           0       15.797422    1.770023    0.440188
    125          1           0       16.127752    0.305794    1.312587
    126          1           0       18.169974   -0.323893   -0.177626
    127          1           0       17.393976    0.890568   -1.310125
    128          1           0       18.297775    2.746629    0.020966
    129          1           0       18.118875    1.630006    1.463393
    130          1           0       20.384814    0.443849    0.310871
    131          1           0       20.070813    2.956525   -1.645585
    132          1           0       21.392487    1.820593   -1.435592
    133          1           0       20.090049    1.134882   -2.136685
    134          1           0       20.796822    2.093137    1.958454
    135          1           0       22.091834    2.600970    0.556105
    136          1           0       20.838516    3.561815    0.872556
    137          1           0       -7.213911    1.739425    0.087380
    138          1           0       -7.665584   -0.220630    0.262676
 ---------------------------------------------------------------------

 SCF Done:  E(RB3LYP) =  -2733.00570913     A.U. after   17 cycles

 Excitation energies and oscillator strengths:

 Excited State   1:      Singlet-A      2.0601 eV  601.83 nm  f=0.1908  <S**2>=0.000
     235 -> 237        0.11733
     235 -> 238        0.25849
     236 -> 237        0.63071
     236 -> 238       -0.14496
 This state for optimization and/or second-order correction.
 Total Energy, E(TD-HF/TD-KS) =  -2732.93000121
 Copying the excited state density for this state as the 1-particle RhoCI density.

 The electronic state is 1-A.
 Alpha  occ. eigenvalues --  -19.18871 -19.16148 -19.13798 -19.12945 -19.11649
 Alpha  occ. eigenvalues --  -14.37642 -14.37036 -14.32576 -14.30841 -10.32948
 Alpha  occ. eigenvalues --  -10.31692 -10.27643 -10.24457 -10.24426 -10.23894
 Alpha  occ. eigenvalues --  -10.23855 -10.23552 -10.23469 -10.23325 -10.22825
 Alpha  occ. eigenvalues --  -10.22652 -10.22622 -10.22308 -10.22008 -10.21957
 Alpha  occ. eigenvalues --  -10.21648 -10.21484 -10.21482 -10.21010 -10.20933
 Alpha  occ. eigenvalues --  -10.20781 -10.20686 -10.20466 -10.20439 -10.20415
 Alpha  occ. eigenvalues --  -10.20403 -10.20163 -10.20115 -10.20092 -10.19747
 Alpha  occ. eigenvalues --  -10.19534 -10.19411 -10.19364 -10.19350 -10.19343
 Alpha  occ. eigenvalues --  -10.19306 -10.19299 -10.19283 -10.19227 -10.19090
 Alpha  occ. eigenvalues --  -10.19073 -10.19024 -10.18640 -10.18637 -10.18394
 Alpha  occ. eigenvalues --  -10.18308 -10.18292 -10.18250 -10.18029 -10.17280
 Alpha  occ. eigenvalues --  -10.17031 -10.17026 -10.17019 -10.16492  -1.10655
 Alpha  occ. eigenvalues --   -1.08294  -1.01594  -1.00471  -1.00167  -0.98086
 Alpha  occ. eigenvalues --   -0.97356  -0.95606  -0.94460  -0.86125  -0.82947
 Alpha  occ. eigenvalues --   -0.82082  -0.81363  -0.81077  -0.80825  -0.80344
 Alpha  occ. eigenvalues --   -0.80036  -0.79508  -0.79240  -0.79138  -0.78210
 Alpha  occ. eigenvalues --   -0.77090  -0.75792  -0.75572  -0.74952  -0.74248
 Alpha  occ. eigenvalues --   -0.73671  -0.73159  -0.72804  -0.71507  -0.69861
 Alpha  occ. eigenvalues --   -0.69361  -0.68753  -0.68201  -0.68097  -0.67576
 Alpha  occ. eigenvalues --   -0.67060  -0.66924  -0.66137  -0.66120  -0.65478
 Alpha  occ. eigenvalues --   -0.64583  -0.62841  -0.62543  -0.61979  -0.61555
 Alpha  occ. eigenvalues --   -0.60809  -0.59054  -0.58562  -0.58404  -0.57978
 Alpha  occ. eigenvalues --   -0.57047  -0.56385  -0.56117  -0.55653  -0.55199
 Alpha  occ. eigenvalues --   -0.55057  -0.54843  -0.54607  -0.53886  -0.53707
 Alpha  occ. eigenvalues --   -0.53500  -0.52276  -0.51684  -0.51408  -0.50752
 Alpha  occ. eigenvalues --   -0.50378  -0.49805  -0.48858  -0.48373  -0.48101
 Alpha  occ. eigenvalues --   -0.47810  -0.47683  -0.47515  -0.47209  -0.46964
 Alpha  occ. eigenvalues --   -0.46828  -0.46446  -0.46331  -0.45874  -0.45788
 Alpha  occ. eigenvalues --   -0.45611  -0.45554  -0.45106  -0.44796  -0.44698
 Alpha  occ. eigenvalues --   -0.44317  -0.44194  -0.44018  -0.43879  -0.43755
 Alpha  occ. eigenvalues --   -0.43526  -0.43305  -0.43257  -0.42906  -0.42824
 Alpha  occ. eigenvalues --   -0.42590  -0.42188  -0.42075  -0.42013  -0.41775
 Alpha  occ. eigenvalues --   -0.41516  -0.40987  -0.40916  -0.40764  -0.40589
 Alpha  occ. eigenvalues --   -0.40276  -0.40226  -0.39963  -0.39842  -0.39403
 Alpha  occ. eigenvalues --   -0.39352  -0.39142  -0.39006  -0.38839  -0.38603
 Alpha  occ. eigenvalues --   -0.38269  -0.38131  -0.37532  -0.37496  -0.37297
 Alpha  occ. eigenvalues --   -0.37243  -0.37156  -0.36983  -0.36798  -0.36740
 Alpha  occ. eigenvalues --   -0.36369  -0.36299  -0.35943  -0.35848  -0.35800
 Alpha  occ. eigenvalues --   -0.35350  -0.35069  -0.34845  -0.34632  -0.34535
 Alpha  occ. eigenvalues --   -0.34465  -0.34230  -0.33842  -0.33828  -0.33520
 Alpha  occ. eigenvalues --   -0.33430  -0.32755  -0.32601  -0.32516  -0.32417
 Alpha  occ. eigenvalues --   -0.31994  -0.31887  -0.31758  -0.31541  -0.31318
 Alpha  occ. eigenvalues --   -0.30350  -0.30185  -0.30119  -0.29830  -0.29693
 Alpha  occ. eigenvalues --   -0.29351  -0.29027  -0.28824  -0.28609  -0.28058
 Alpha  occ. eigenvalues --   -0.27478  -0.27352  -0.26597  -0.26449  -0.25698
 Alpha  occ. eigenvalues --   -0.24930  -0.24712  -0.24639  -0.23322  -0.20711
 Alpha  occ. eigenvalues --   -0.18761
 Alpha virt. eigenvalues --   -0.10449  -0.08056  -0.05117  -0.02239  -0.00945
 Alpha virt. eigenvalues --   -0.00560   0.00105   0.01248   0.02491   0.03053
 Alpha virt. eigenvalues --    0.03559   0.03921   0.04389   0.04680   0.04873

 Mulliken charges:
               1
     1  C    0.012654
     2  C   -0.044174
     3  C   -0.033392
     4  C   -0.029273
     5  N   -0.123412
     6  C   -0.078817
     7  C   -0.063563
     8  C    0.021636
     9  C   -0.014298
    10  C    0.022085
    11  C   -0.104285
    12  C    0.042714
    13  C    0.210374
    14  O   -0.229339
    15  O   -0.284466
    16  N   -0.121822
    17  C    0.132162
    18  C   -0.083576
    19  C    0.033630
    20  C    0.069980
    21  C   -0.053920
    22  C   -0.078490
    23  C   -0.008329
    24  N   -0.201056
    25  C    0.036386
    26  C   -0.106350
    27  C   -0.091948
    28  C    0.072585
    29  C    0.004619
    30  C    0.078790
    31  C    0.011218
    32  N   -0.148333
    33  C    0.113487
    34  C   -0.141660
    35  C    0.069224
    36  C    0.076565
    37  C    0.062592
    38  C    0.012161
    39  O   -0.215388
    40  C    0.002180
    41  C    0.218803
    42  O   -0.194105
    43  O   -0.344321
    44  C    0.208179
    45  C    0.299005
    46  C   -0.131334
    47  C   -0.106554
    48  C    0.047403
    49  C    0.255944
    50  C    0.016311
    51  C   -0.058771
    52  C   -0.072464
    53  C    0.035952
    54  C    0.093537
    55  C   -0.031352
    56  C    0.097283
    57  C   -0.087210
    58  C   -0.032597
    59  C    0.056906
    60  C    0.017110
    61  C    0.040034
    62  C   -0.159771
    63  C    0.107599
    64  C    0.024841
    65  H   -0.037203
    66  H   -0.069010
    67  H   -0.106783
    68  H    0.036867
    69  H   -0.020429
    70  H    0.043046
    71  H    0.007048
    72  H    0.028472
    73  H    0.027746
    74  H    0.035518
    75  H    0.036912
    76  H    0.041520
    77  H    0.071735
    78  H    0.035293
    79  H    0.054143
    80  H    0.045877
    81  H    0.027056
    82  H   -0.011774
    83  H    0.051919
    84  H    0.048972
    85  H    0.018018
    86  H    0.004308
    87  H   -0.040776
    88  H    0.018778
    89  H    0.011362
    90  H    0.023700
    91  H    0.019205
    92  H    0.033864
    93  H    0.060563
    94  H    0.082080
    95  H    0.038580
    96  H    0.008571
    97  H    0.016672
    98  H    0.002524
    99  H    0.001654
   100  H    0.008642
   101  H    0.023540
   102  H    0.062288
   103  H    0.010146
   104  H   -0.084980
   105  H   -0.017297
   106  H   -0.025771
   107  H   -0.047168
   108  H   -0.000315
   109  H   -0.004684
   110  H   -0.008316
   111  H   -0.002145
   112  H   -0.002340
   113  H   -0.021695
   114  H    0.000261
   115  H   -0.031483
   116  H    0.011013
   117  H   -0.002721
   118  H    0.018708
   119  H   -0.060478
   120  H   -0.011001
   121  H    0.004904
   122  H    0.025676
   123  H    0.031792
   124  H    0.004618
   125  H   -0.049420
   126  H    0.008067
   127  H   -0.015219
   128  H   -0.011749
   129  H    0.006097
   130  H    0.009456
   131  H    0.012709
   132  H   -0.020198
   133  H    0.001017
   134  H    0.029460
   135  H    0.002634
   136  H   -0.016901
   137  H    0.175917
   138  H    0.211332
 Sum of Mulliken charges =   0.00000

 Dipole moment (field-independent basis, Debye):
    X=              0.9824    Y=              4.9760    Z=              0.3262  Tot=              5.0825
 Quadrupole moment (field-independent basis, Debye-Ang):
   XX=           -344.8646   YY=           -385.7468   ZZ=           -395.9569
   XY=            -32.2693   XZ=             -0.7005   YZ=             -0.6599

 Normal termination of Gaussian 09 at Sun Aug  4 03:02:19 2019.
