 Gaussian 09, Revision D.01,
 Gaussian 09:  ES64L-G09RevD.01 24-Apr-2013

 --------------------------
 # td=(NStates=1) B3LYP/SVP
 --------------------------

 --
 TD
 --
 Symbolic Z-matrix:
 Charge =  0 Multiplicity = 1

                         Standard orientation:
 ---------------------------------------------------------------------
 Center     Atomic      Atomic             Coordinates (Angstroms)
 Number     Number       Type             X           Y           Z
 ---------------------------------------------------------------------
      1          6           0       -5.108125   -1.965931    0.603785
      2          6           0       -4.643112    2.782036    1.532684
      3          6           0       -9.325176    3.435874   -0.119649
      4          6           0       -9.796273   -1.389296   -0.984711
      5          7           0       -5.142150    0.423245    0.837681
      6          6           0       -4.533270   -0.804167    0.875245
      7          6           0       -3.063550   -0.699281    1.252130
      8          6           0       -2.987447    0.799713    1.880530
      9          6           0       -4.350295    1.345616    1.350108
     10          6           0       -2.940546    0.788352    3.372978
     11          6           0       -2.093362   -0.775340    0.019766
     12          6           0       -0.662037   -0.878748    0.455490
     13          6           0        0.275449   -1.146450   -0.555283
     14          8           0       -0.011811   -1.724589   -1.641247
     15          8           0        1.617642   -0.762098   -0.367258
     16          7           0       -7.004111    2.701254    0.609741
     17          6           0       -5.949505    3.340921    1.205458
     18          6           0       -6.209649    4.770638    1.113335
     19          6           0       -7.484210    4.974169    0.624163
     20          6           0       -8.001811    3.662948    0.325262
     21          6           0       -5.243723    5.843836    1.688568
     22          6           0       -8.090941    6.347466    0.448269
     23          6           0       -8.843159    6.707713   -0.613522
     24          7           0       -9.134578    0.940401   -0.404548
     25          6           0       -9.924361    2.118386   -0.532124
     26          6           0      -11.241392    1.976127   -1.071005
     27          6           0      -11.277142    0.642825   -1.255020
     28          6           0       -9.966981    0.026670   -0.801962
     29          6           0      -12.192473    3.056241   -1.168458
     30          6           0      -12.402649   -0.146573   -2.010366
     31          6           0      -12.314775   -0.415484   -3.479640
     32          7           0       -7.470981   -1.154786   -0.171892
     33          6           0       -8.622033   -1.973436   -0.612238
     34          6           0       -8.143559   -3.329848   -0.657668
     35          6           0       -6.910500   -3.417140   -0.143729
     36          6           0       -6.464316   -2.087677    0.132516
     37          6           0       -9.205357   -4.385279   -1.054172
     38          6           0       -5.860705   -4.378001    0.054868
     39          8           0       -5.756525   -5.555324   -0.038688
     40          6           0       -4.620996   -3.434813    0.636349
     41          6           0       -4.172067   -3.900913    1.948212
     42          8           0       -4.415598   -3.471200    2.986522
     43          8           0       -3.223889   -4.871832    1.770750
     44          6           0       -2.691449   -5.389892    3.056530
     45          6           0        2.703047   -1.212932   -1.342339
     46          6           0        4.085121   -0.712167   -0.777807
     47          6           0        4.955640    0.005493   -1.441164
     48          6           0        4.850536    0.347771   -2.949510
     49          6           0        6.214724    0.413545   -0.696162
     50          6           0        7.492382   -0.304066   -1.215583
     51          6           0        8.717001   -0.101811   -0.322991
     52          6           0       10.107961   -0.656333   -0.922797
     53          6           0       10.009911   -2.090609   -1.172881
     54          6           0       11.317028   -0.130971   -0.032140
     55          6           0       12.692555   -0.521641   -0.723858
     56          6           0       13.842649    0.047803    0.155070
     57          6           0       15.233692   -0.190541   -0.348200
     58          6           0       15.606968   -1.596883   -0.334054
     59          6           0       16.283534    0.747682    0.437883
     60          6           0       17.675184    0.610999   -0.095374
     61          6           0       18.576765    1.516645    0.680582
     62          6           0       20.122705    1.632592    0.373634
     63          6           0       20.273480    2.151676   -1.061831
     64          6           0       20.962173    2.289207    1.402786
     65          1           0       -3.990140    3.539552    1.859605
     66          1           0       -9.827900    4.272050   -0.297763
     67          1           0      -10.639003   -2.050669   -1.215824
     68          1           0       -2.830638   -1.382720    2.134393
     69          1           0       -2.236605    1.212869    1.537295
     70          1           0       -2.014199    0.442991    3.931896
     71          1           0       -2.933653    1.732052    3.849614
     72          1           0       -3.908055    0.340368    3.781689
     73          1           0       -2.253953   -1.670752   -0.310029
     74          1           0       -2.502434   -0.017535   -0.677350
     75          1           0       -0.251134    0.281993    0.986803
     76          1           0       -0.511884   -1.660043    1.218595
     77          1           0       -4.521455    6.077280    0.879091
     78          1           0       -5.857662    6.622381    2.127706
     79          1           0       -4.721613    5.480008    2.588907
     80          1           0       -7.973281    6.981381    1.288680
     81          1           0       -8.994738    5.912564   -1.349482
     82          1           0       -9.212958    7.762168   -0.742364
     83          1           0      -11.947521    3.694822   -0.195029
     84          1           0      -12.224471    3.754033   -2.001481
     85          1           0      -13.344169    2.616981   -1.154568
     86          1           0      -12.525041   -1.213415   -1.283574
     87          1           0      -13.322017    0.493751   -1.877132
     88          1           0      -12.409238    0.755825   -4.106845
     89          1           0      -11.217358   -0.907418   -3.735966
     90          1           0      -13.070035   -1.182017   -3.980433
     91          1           0       -9.823165   -4.698144   -0.206476
     92          1           0       -9.790932   -3.985582   -2.006253
     93          1           0       -8.704002   -5.295479   -1.322461
     94          1           0       -3.936104   -3.644208   -0.220477
     95          1           0       -1.839736   -6.012852    2.961658
     96          1           0       -2.425960   -4.568131    3.761904
     97          1           0       -3.619606   -5.806664    3.446117
     98          1           0        2.815332   -2.461997   -1.457534
     99          1           0        2.297830   -0.795301   -2.173866
    100          1           0        4.305908   -1.261648    0.219837
    101          1           0        5.017949    1.473117   -2.946581
    102          1           0        5.629906   -0.394668   -3.408114
    103          1           0        3.853726   -0.005132   -3.588262
    104          1           0        6.333288    1.567037   -0.660701
    105          1           0        6.119387    0.326906    0.366147
    106          1           0        7.355882   -1.365121   -1.124567
    107          1           0        7.712123   -0.148560   -2.430433
    108          1           0        8.884604    0.991601   -0.066985
    109          1           0        8.430721   -0.645986    0.571646
    110          1           0       10.027103    0.008704   -1.979287
    111          1           0        9.344243   -2.436349   -2.305675
    112          1           0       11.255467   -2.415013   -1.396110
    113          1           0        9.803966   -2.659267   -0.359120
    114          1           0       11.184002    0.920322   -0.052708
    115          1           0       11.206747   -0.816811    1.040142
    116          1           0       12.733994   -1.686488   -0.822431
    117          1           0       12.857313   -0.348658   -1.836379
    118          1           0       13.658340    1.108337    0.190929
    119          1           0       13.828080   -0.432690    1.219783
    120          1           0       15.062726    0.338521   -1.305831
    121          1           0       14.840738   -2.456165   -0.583709
    122          1           0       16.599158   -1.692857   -0.759819
    123          1           0       15.458647   -1.876223    0.714581
    124          1           0       15.751407    1.754932    0.395397
    125          1           0       16.399274    0.539671    1.560560
    126          1           0       18.265241   -0.326359   -0.020834
    127          1           0       17.607731    0.891140   -1.175049
    128          1           0       18.061086    2.517624    1.018948
    129          1           0       18.438841    1.064579    1.702794
    130          1           0       20.642989    0.715197    0.346095
    131          1           0       19.437859    3.119751   -1.268306
    132          1           0       21.371854    2.509737   -1.170772
    133          1           0       19.863230    1.452598   -1.808477
    134          1           0       20.906982    1.987904    2.377665
    135          1           0       22.019849    2.481592    1.219259
    136          1           0       20.483865    3.449658    1.287987
    137          1           0       -7.139926    1.851105    0.583026
    138          1           0       -7.731976   -0.092955   -0.340953
 ---------------------------------------------------------------------

 SCF Done:  E(RB3LYP) =  -2732.92815287     A.U. after   17 cycles

 Excitation energies and oscillator strengths:

 Excited State   1:      Singlet-A      2.0404 eV  607.64 nm  f=0.1540  <S**2>=0.000
     235 -> 237        0.19346
     235 -> 238       -0.24903
     236 -> 237        0.59976
     236 -> 238        0.19830
 This state for optimization and/or second-order correction.
 Total Energy, E(TD-HF/TD-KS) =  -2732.85316849
 Copying the excited state density for this state as the 1-particle RhoCI density.

 The electronic state is 1-A.
 Alpha  occ. eigenvalues --  -19.15806 -19.15699 -19.13257 -19.11912 -19.10966
 Alpha  occ. eigenvalues --  -14.36282 -14.36121 -14.32068 -14.31502 -10.30874
 Alpha  occ. eigenvalues --  -10.30009 -10.28439 -10.25301 -10.24383 -10.24204
 Alpha  occ. eigenvalues --  -10.24155 -10.23714 -10.23403 -10.22728 -10.22468
 Alpha  occ. eigenvalues --  -10.22358 -10.22328 -10.22219 -10.21841 -10.21663
 Alpha  occ. eigenvalues --  -10.21563 -10.21252 -10.21213 -10.21179 -10.20892
 Alpha  occ. eigenvalues --  -10.20769 -10.20662 -10.20594 -10.20584 -10.20514
 Alpha  occ. eigenvalues --  -10.20469 -10.20458 -10.20361 -10.20190 -10.20100
 Alpha  occ. eigenvalues --  -10.20018 -10.19986 -10.19858 -10.19835 -10.19820
 Alpha  occ. eigenvalues --  -10.19660 -10.19629 -10.19600 -10.19252 -10.19214
 Alpha  occ. eigenvalues --  -10.19197 -10.19101 -10.18845 -10.18786 -10.18729
 Alpha  occ. eigenvalues --  -10.18726 -10.18580 -10.18479 -10.18345 -10.18255
 Alpha  occ. eigenvalues --  -10.18226 -10.18205 -10.18124 -10.17897  -1.09774
 Alpha  occ. eigenvalues --   -1.04912  -1.04618  -1.00314  -0.98412  -0.96126
 Alpha  occ. eigenvalues --   -0.95779  -0.94645  -0.93906  -0.84192  -0.82654
 Alpha  occ. eigenvalues --   -0.82581  -0.82100  -0.81735  -0.80804  -0.80748
 Alpha  occ. eigenvalues --   -0.80402  -0.79903  -0.79366  -0.78538  -0.77754
 Alpha  occ. eigenvalues --   -0.76696  -0.76324  -0.75608  -0.75213  -0.74933
 Alpha  occ. eigenvalues --   -0.72904  -0.72684  -0.72533  -0.71606  -0.71269
 Alpha  occ. eigenvalues --   -0.69698  -0.69085  -0.68359  -0.67512  -0.67355
 Alpha  occ. eigenvalues --   -0.67204  -0.67038  -0.65736  -0.65553  -0.64961
 Alpha  occ. eigenvalues --   -0.64310  -0.63228  -0.62954  -0.61583  -0.61205
 Alpha  occ. eigenvalues --   -0.59574  -0.58593  -0.58336  -0.57860  -0.57766
 Alpha  occ. eigenvalues --   -0.56950  -0.56930  -0.55645  -0.54976  -0.54787
 Alpha  occ. eigenvalues --   -0.54307  -0.53850  -0.53652  -0.53135  -0.52881
 Alpha  occ. eigenvalues --   -0.52089  -0.51834  -0.51289  -0.50834  -0.50506
 Alpha  occ. eigenvalues --   -0.49412  -0.48937  -0.48543  -0.48329  -0.47851
 Alpha  occ. eigenvalues --   -0.47838  -0.47620  -0.47179  -0.46905  -0.46740
 Alpha  occ. eigenvalues --   -0.46597  -0.46448  -0.46218  -0.46083  -0.45935
 Alpha  occ. eigenvalues --   -0.45629  -0.45358  -0.45000  -0.44954  -0.44768
 Alpha  occ. eigenvalues --   -0.44279  -0.44167  -0.44110  -0.43953  -0.43752
 Alpha  occ. eigenvalues --   -0.43485  -0.43407  -0.43155  -0.42628  -0.42521
 Alpha  occ. eigenvalues --   -0.42391  -0.42127  -0.41994  -0.41828  -0.41397
 Alpha  occ. eigenvalues --   -0.41272  -0.41211  -0.40863  -0.40699  -0.40545
 Alpha  occ. eigenvalues --   -0.40263  -0.39856  -0.39706  -0.39525  -0.39172
 Alpha  occ. eigenvalues --   -0.39083  -0.38835  -0.38698  -0.38509  -0.38337
 Alpha  occ. eigenvalues --   -0.38188  -0.37920  -0.37887  -0.37652  -0.37429
 Alpha  occ. eigenvalues --   -0.37367  -0.37180  -0.37023  -0.36863  -0.36457
 Alpha  occ. eigenvalues --   -0.36264  -0.36172  -0.36063  -0.35596  -0.35314
 Alpha  occ. eigenvalues --   -0.35189  -0.35176  -0.34823  -0.34626  -0.34455
 Alpha  occ. eigenvalues --   -0.34406  -0.34360  -0.34005  -0.33641  -0.33484
 Alpha  occ. eigenvalues --   -0.33140  -0.33047  -0.32487  -0.32436  -0.32267
 Alpha  occ. eigenvalues --   -0.31766  -0.31490  -0.31251  -0.30483  -0.30478
 Alpha  occ. eigenvalues --   -0.30013  -0.29906  -0.29585  -0.29389  -0.28802
 Alpha  occ. eigenvalues --   -0.28725  -0.28635  -0.28419  -0.28255  -0.28095
 Alpha  occ. eigenvalues --   -0.27888  -0.27114  -0.26729  -0.26185  -0.25769
 Alpha  occ. eigenvalues --   -0.25200  -0.25101  -0.24923  -0.24034  -0.20347
 Alpha  occ. eigenvalues --   -0.18588
 Alpha virt. eigenvalues --   -0.10268  -0.08009  -0.04286  -0.01796  -0.01058
 Alpha virt. eigenvalues --    0.00441   0.00594   0.01431   0.02126   0.02162
 Alpha virt. eigenvalues --    0.03225   0.03730   0.03782   0.04327   0.04628

 Mulliken charges:
               1
     1  C    0.075874
     2  C   -0.009177
     3  C    0.002700
     4  C   -0.097198
     5  N   -0.122029
     6  C   -0.115100
     7  C   -0.170081
     8  C    0.127406
     9  C   -0.011818
    10  C    0.057042
    11  C    0.235788
    12  C   -0.007792
    13  C    0.209560
    14  O   -0.289746
    15  O   -0.386447
    16  N    0.069902
    17  C    0.052296
    18  C   -0.180236
    19  C    0.011206
    20  C    0.070812
    21  C    0.109694
    22  C   -0.033071
    23  C   -0.020533
    24  N   -0.245171
    25  C    0.041432
    26  C   -0.033668
    27  C   -0.127501
    28  C    0.078202
    29  C   -0.000383
    30  C    0.006229
    31  C   -0.082158
    32  N   -0.187740
    33  C    0.087422
    34  C   -0.149163
    35  C    0.035728
    36  C    0.108769
    37  C    0.078709
    38  C    0.040679
    39  O   -0.117748
    40  C   -0.089710
    41  C    0.210874
    42  O   -0.163310
    43  O   -0.351987
    44  C    0.205765
    45  C    0.262670
    46  C   -0.110322
    47  C   -0.107262
    48  C   -0.009871
    49  C    0.086010
    50  C   -0.019791
    51  C    0.025435
    52  C   -0.136285
    53  C   -0.017383
    54  C    0.054659
    55  C   -0.035942
    56  C    0.012628
    57  C   -0.033234
    58  C    0.061074
    59  C   -0.033424
    60  C    0.069149
    61  C   -0.030914
    62  C    0.005327
    63  C   -0.041726
    64  C    0.014287
    65  H   -0.045687
    66  H   -0.105613
    67  H   -0.003900
    68  H    0.024594
    69  H   -0.120103
    70  H    0.013249
    71  H   -0.021358
    72  H    0.029636
    73  H   -0.057279
    74  H    0.023125
    75  H    0.057948
    76  H    0.051845
    77  H    0.047249
    78  H    0.011556
    79  H    0.022368
    80  H    0.002202
    81  H    0.037951
    82  H    0.042217
    83  H    0.050521
    84  H    0.031908
    85  H    0.037559
    86  H    0.028684
    87  H    0.006262
    88  H    0.033814
    89  H    0.033331
    90  H    0.048503
    91  H    0.043252
    92  H    0.046218
    93  H    0.014437
    94  H    0.068110
    95  H    0.030401
    96  H    0.026156
    97  H    0.025451
    98  H    0.050341
    99  H   -0.008147
   100  H    0.020213
   101  H    0.048885
   102  H    0.057608
   103  H    0.045994
   104  H    0.004351
   105  H   -0.020571
   106  H   -0.006914
   107  H    0.019330
   108  H   -0.005017
   109  H   -0.015030
   110  H    0.011703
   111  H    0.049315
   112  H    0.015522
   113  H   -0.006400
   114  H    0.003041
   115  H    0.034312
   116  H    0.006166
   117  H    0.005403
   118  H   -0.018239
   119  H   -0.005142
   120  H   -0.021725
   121  H    0.013442
   122  H    0.023716
   123  H   -0.017711
   124  H    0.007645
   125  H   -0.006446
   126  H    0.016266
   127  H   -0.006244
   128  H   -0.004426
   129  H   -0.025403
   130  H   -0.024868
   131  H    0.011497
   132  H    0.028500
   133  H    0.024487
   134  H   -0.004524
   135  H    0.007638
   136  H   -0.002859
   137  H    0.013423
   138  H    0.206860
 Sum of Mulliken charges =   0.00000

 Dipole moment (field-independent basis, Debye):
    X=              1.7684    Y=              4.4876    Z=              1.1055  Tot=              4.9485
 Quadrupole moment (field-independent basis, Debye-Ang):
   XX=           -335.9776   YY=           -382.9395   ZZ=           -394.6337
   XY=            -40.7557   XZ=             16.7766   YZ=             -1.7254

 Normal termination of Gaussian 09 at Sat Aug  3 07:41:52 2019.
