 Gaussian 09, Revision D.01,
 Gaussian 09:  ES64L-G09RevD.01 24-Apr-2013

 --------------------------
 # td=(NStates=1) B3LYP/SVP
 --------------------------

 --
 TD
 --
 Symbolic Z-matrix:
 Charge =  0 Multiplicity = 1

                         Standard orientation:
 ---------------------------------------------------------------------
 Center     Atomic      Atomic             Coordinates (Angstroms)
 Number     Number       Type             X           Y           Z
 ---------------------------------------------------------------------
      1          6           0       -5.146750   -1.859002    0.483908
      2          6           0       -4.719175    2.858677    1.207299
      3          6           0       -9.380982    3.263666   -0.273416
      4          6           0       -9.876194   -1.581082   -0.805052
      5          7           0       -5.050015    0.458294    0.758310
      6          6           0       -4.487409   -0.750845    0.820509
      7          6           0       -3.042370   -0.547042    1.256761
      8          6           0       -3.041630    0.973262    1.739910
      9          6           0       -4.336132    1.439425    1.191385
     10          6           0       -2.998475    1.160071    3.273707
     11          6           0       -2.067359   -0.874649    0.203298
     12          6           0       -0.636458   -0.820422    0.667671
     13          6           0        0.354640   -0.997139   -0.526718
     14          8           0        0.032705   -1.565340   -1.549811
     15          8           0        1.653957   -0.710471   -0.180822
     16          7           0       -7.046312    2.689961    0.362737
     17          6           0       -5.950631    3.401034    0.858762
     18          6           0       -6.338055    4.810428    0.987071
     19          6           0       -7.708985    4.895302    0.507946
     20          6           0       -8.095742    3.663717    0.139993
     21          6           0       -5.380099    5.745378    1.515478
     22          6           0       -8.346263    6.301635    0.414826
     23          6           0       -9.131360    6.544620   -0.629614
     24          7           0       -9.300537    0.870424   -0.561037
     25          6           0      -10.069066    2.006724   -0.536407
     26          6           0      -11.332678    1.743145   -0.996768
     27          6           0      -11.552504    0.425118   -1.107058
     28          6           0      -10.164555   -0.158772   -0.915047
     29          6           0      -12.375810    2.867745   -1.242325
     30          6           0      -12.839232   -0.299657   -1.575146
     31          6           0      -12.690918   -0.507569   -3.020874
     32          7           0       -7.555650   -1.271529   -0.040590
     33          6           0       -8.611080   -2.103652   -0.490790
     34          6           0       -8.187231   -3.419947   -0.627032
     35          6           0       -6.845521   -3.400731   -0.280664
     36          6           0       -6.486528   -2.097763    0.070650
     37          6           0       -9.012099   -4.628104   -0.927777
     38          6           0       -5.671636   -4.266783   -0.136005
     39          8           0       -5.526802   -5.502456   -0.061957
     40          6           0       -4.556315   -3.352143    0.511600
     41          6           0       -3.974596   -3.779378    1.808053
     42          8           0       -4.449536   -3.406306    2.919304
     43          8           0       -2.959502   -4.636878    1.708387
     44          6           0       -2.320324   -5.148790    2.848801
     45          6           0        2.744402   -1.099262   -1.192082
     46          6           0        4.012020   -0.683264   -0.598968
     47          6           0        5.032114    0.121640   -1.085386
     48          6           0        4.791136    0.844639   -2.364341
     49          6           0        6.325992    0.295380   -0.297524
     50          6           0        7.512938   -0.283206   -1.102402
     51          6           0        8.819433   -0.157505   -0.228537
     52          6           0       10.209343   -0.566897   -0.990269
     53          6           0        9.978331   -2.143950   -1.361800
     54          6           0       11.405338   -0.351342   -0.086024
     55          6           0       12.725056   -0.339513   -0.745904
     56          6           0       13.862242   -0.161067    0.241874
     57          6           0       15.263853   -0.156617   -0.444558
     58          6           0       15.586825   -1.580398   -0.925357
     59          6           0       16.310809    0.482429    0.490367
     60          6           0       17.760179    0.587175   -0.230059
     61          6           0       18.646459    1.479182    0.693625
     62          6           0       20.241690    1.564701    0.356165
     63          6           0       20.489008    2.205314   -1.027585
     64          6           0       20.987915    2.239474    1.447030
     65          1           0       -3.816627    3.523239    1.489758
     66          1           0      -10.128907    3.988498   -0.378298
     67          1           0      -10.530879   -2.415561   -1.118293
     68          1           0       -2.988242   -1.445837    2.103841
     69          1           0       -2.301688    1.605355    1.333456
     70          1           0       -1.991734    0.649995    3.722577
     71          1           0       -2.812039    2.227456    3.545783
     72          1           0       -3.807795    0.758667    3.690291
     73          1           0       -2.000245   -1.962716   -0.258011
     74          1           0       -2.232864   -0.219601   -0.731696
     75          1           0       -0.296431    0.042412    1.192180
     76          1           0       -0.424811   -1.578499    1.414220
     77          1           0       -4.497322    5.903791    0.844347
     78          1           0       -5.754914    6.830143    1.796168
     79          1           0       -5.007284    5.377323    2.555670
     80          1           0       -8.156163    6.901342    1.101707
     81          1           0       -9.141830    5.969779   -1.569783
     82          1           0       -9.564643    7.517661   -0.480442
     83          1           0      -12.384456    3.642430   -0.337598
     84          1           0      -12.043863    3.586615   -2.076959
     85          1           0      -13.268046    2.489846   -1.298573
     86          1           0      -12.758125   -1.411152   -1.109943
     87          1           0      -13.816883    0.083732   -1.367439
     88          1           0      -12.541719    0.406594   -3.665735
     89          1           0      -11.840285   -1.095145   -3.217386
     90          1           0      -13.523753   -1.179086   -3.374639
     91          1           0       -9.894727   -4.675623   -0.100483
     92          1           0       -9.470847   -4.923510   -1.900543
     93          1           0       -8.496367   -5.538791   -0.574204
     94          1           0       -3.808571   -3.448225   -0.171641
     95          1           0       -1.649880   -5.912787    2.469454
     96          1           0       -1.873944   -4.297748    3.529045
     97          1           0       -2.950767   -5.584132    3.648963
     98          1           0        2.519280   -2.164056   -1.365787
     99          1           0        2.503205   -0.244654   -2.118552
    100          1           0        4.111046   -0.892706    0.390908
    101          1           0        5.019957    1.901084   -2.372064
    102          1           0        5.420120    0.177825   -3.176906
    103          1           0        3.835252    0.780584   -2.678846
    104          1           0        6.627603    1.394500   -0.160714
    105          1           0        6.229240   -0.139483    0.793908
    106          1           0        7.082059   -1.178603   -1.435260
    107          1           0        7.719438    0.699367   -1.911858
    108          1           0        8.841643    0.947227    0.321768
    109          1           0        8.788219   -0.855008    0.720555
    110          1           0       10.415853   -0.021044   -2.028047
    111          1           0        9.074161   -2.435084   -2.133619
    112          1           0       10.852723   -2.400581   -2.027715
    113          1           0       10.097360   -2.892224   -0.316736
    114          1           0       11.374340    0.804068    0.528904
    115          1           0       11.440347   -1.123983    0.798276
    116          1           0       12.899388   -1.294100   -1.367202
    117          1           0       12.723223    0.451321   -1.650538
    118          1           0       13.701028    0.944282    0.857921
    119          1           0       13.839129   -0.997662    1.081384
    120          1           0       15.237230    0.548251   -1.268561
    121          1           0       14.692775   -2.177860   -1.392498
    122          1           0       16.669494   -1.696064   -1.444763
    123          1           0       15.928764   -2.311544   -0.115130
    124          1           0       15.924072    1.411914    0.821814
    125          1           0       16.546985    0.102019    1.334594
    126          1           0       17.974603   -0.471144   -0.422783
    127          1           0       17.915297    1.006570   -1.215190
    128          1           0       18.126031    2.502149    0.836696
    129          1           0       18.495195    1.502335    1.850139
    130          1           0       20.481171    0.562458    0.276223
    131          1           0       20.267297    3.349801   -0.811004
    132          1           0       21.603656    2.111483   -1.204165
    133          1           0       20.009275    1.727307   -1.966742
    134          1           0       20.760711    1.877790    2.405790
    135          1           0       22.090799    2.189593    1.321427
    136          1           0       20.890776    3.400398    1.305051
    137          1           0       -6.836254    1.802793    0.001554
    138          1           0       -7.568198   -0.194554    0.124032
 ---------------------------------------------------------------------

 SCF Done:  E(RB3LYP) =  -2733.00943915     A.U. after   17 cycles

 Excitation energies and oscillator strengths:

 Excited State   1:      Singlet-A      2.1109 eV  587.36 nm  f=0.1496  <S**2>=0.000
     235 -> 237       -0.28797
     235 -> 238        0.23140
     236 -> 237        0.56008
     236 -> 238        0.20613
 This state for optimization and/or second-order correction.
 Total Energy, E(TD-HF/TD-KS) =  -2732.93186568
 Copying the excited state density for this state as the 1-particle RhoCI density.

 The electronic state is 1-A.
 Alpha  occ. eigenvalues --  -19.18621 -19.16724 -19.12099 -19.12012 -19.11267
 Alpha  occ. eigenvalues --  -14.37208 -14.35864 -14.31102 -14.29583 -10.31556
 Alpha  occ. eigenvalues --  -10.31089 -10.28047 -10.26633 -10.25164 -10.24089
 Alpha  occ. eigenvalues --  -10.23570 -10.23463 -10.22974 -10.22842 -10.22112
 Alpha  occ. eigenvalues --  -10.22060 -10.21808 -10.21667 -10.21538 -10.21369
 Alpha  occ. eigenvalues --  -10.21278 -10.21253 -10.21167 -10.21128 -10.20859
 Alpha  occ. eigenvalues --  -10.20834 -10.20719 -10.20717 -10.20708 -10.20629
 Alpha  occ. eigenvalues --  -10.20591 -10.20551 -10.20107 -10.20059 -10.20042
 Alpha  occ. eigenvalues --  -10.20019 -10.19972 -10.19962 -10.19938 -10.19931
 Alpha  occ. eigenvalues --  -10.19901 -10.19564 -10.19563 -10.19516 -10.19391
 Alpha  occ. eigenvalues --  -10.19369 -10.19346 -10.19175 -10.19168 -10.19103
 Alpha  occ. eigenvalues --  -10.18912 -10.18745 -10.18644 -10.18636 -10.18301
 Alpha  occ. eigenvalues --  -10.17982 -10.17592 -10.17546 -10.16827  -1.09639
 Alpha  occ. eigenvalues --   -1.06858  -1.00800  -0.99016  -0.98073  -0.97873
 Alpha  occ. eigenvalues --   -0.96479  -0.95724  -0.92781  -0.84118  -0.82625
 Alpha  occ. eigenvalues --   -0.82194  -0.81654  -0.81368  -0.81036  -0.80021
 Alpha  occ. eigenvalues --   -0.79998  -0.79379  -0.79016  -0.78857  -0.77653
 Alpha  occ. eigenvalues --   -0.77181  -0.76663  -0.75843  -0.75256  -0.74502
 Alpha  occ. eigenvalues --   -0.73663  -0.73087  -0.72903  -0.71415  -0.71083
 Alpha  occ. eigenvalues --   -0.70260  -0.69367  -0.68389  -0.67654  -0.67179
 Alpha  occ. eigenvalues --   -0.67046  -0.66474  -0.65543  -0.65103  -0.64688
 Alpha  occ. eigenvalues --   -0.64128  -0.62504  -0.62061  -0.61446  -0.60891
 Alpha  occ. eigenvalues --   -0.60734  -0.59155  -0.58388  -0.57628  -0.57597
 Alpha  occ. eigenvalues --   -0.57092  -0.56640  -0.55970  -0.55954  -0.55573
 Alpha  occ. eigenvalues --   -0.55408  -0.54682  -0.54199  -0.54078  -0.53009
 Alpha  occ. eigenvalues --   -0.52862  -0.52227  -0.51379  -0.50869  -0.50636
 Alpha  occ. eigenvalues --   -0.49771  -0.49578  -0.48382  -0.48344  -0.47987
 Alpha  occ. eigenvalues --   -0.47784  -0.47593  -0.47519  -0.46929  -0.46809
 Alpha  occ. eigenvalues --   -0.46671  -0.46247  -0.46049  -0.45841  -0.45772
 Alpha  occ. eigenvalues --   -0.45376  -0.45072  -0.45037  -0.44642  -0.44520
 Alpha  occ. eigenvalues --   -0.44192  -0.44088  -0.44013  -0.43798  -0.43386
 Alpha  occ. eigenvalues --   -0.43304  -0.42916  -0.42685  -0.42595  -0.42322
 Alpha  occ. eigenvalues --   -0.42173  -0.42059  -0.41822  -0.41481  -0.41395
 Alpha  occ. eigenvalues --   -0.41075  -0.40984  -0.40557  -0.40396  -0.40283
 Alpha  occ. eigenvalues --   -0.40146  -0.39980  -0.39877  -0.39635  -0.39483
 Alpha  occ. eigenvalues --   -0.38841  -0.38809  -0.38430  -0.38205  -0.38003
 Alpha  occ. eigenvalues --   -0.37844  -0.37714  -0.37645  -0.37361  -0.37327
 Alpha  occ. eigenvalues --   -0.37072  -0.36566  -0.36530  -0.36425  -0.36272
 Alpha  occ. eigenvalues --   -0.36102  -0.35977  -0.35937  -0.35732  -0.35540
 Alpha  occ. eigenvalues --   -0.35458  -0.35161  -0.35156  -0.35028  -0.34972
 Alpha  occ. eigenvalues --   -0.34917  -0.34640  -0.34320  -0.34189  -0.33833
 Alpha  occ. eigenvalues --   -0.33320  -0.33287  -0.33027  -0.32981  -0.32647
 Alpha  occ. eigenvalues --   -0.32372  -0.32020  -0.31725  -0.31538  -0.31231
 Alpha  occ. eigenvalues --   -0.30957  -0.30561  -0.30122  -0.29771  -0.29375
 Alpha  occ. eigenvalues --   -0.29170  -0.28775  -0.28019  -0.27966  -0.27449
 Alpha  occ. eigenvalues --   -0.26778  -0.26614  -0.26388  -0.26002  -0.25238
 Alpha  occ. eigenvalues --   -0.24626  -0.24153  -0.24123  -0.22566  -0.20002
 Alpha  occ. eigenvalues --   -0.18906
 Alpha virt. eigenvalues --   -0.10408  -0.07705  -0.04886  -0.01848  -0.01757
 Alpha virt. eigenvalues --   -0.01155  -0.00188   0.00045   0.02604   0.02993
 Alpha virt. eigenvalues --    0.03495   0.04048   0.04080   0.04528   0.04600

 Mulliken charges:
               1
     1  C    0.110182
     2  C   -0.092437
     3  C   -0.017421
     4  C   -0.038113
     5  N   -0.124350
     6  C   -0.153866
     7  C   -0.049439
     8  C    0.012190
     9  C   -0.078793
    10  C    0.080513
    11  C   -0.006558
    12  C    0.063462
    13  C    0.187934
    14  O   -0.244859
    15  O   -0.370752
    16  N   -0.099699
    17  C    0.106088
    18  C   -0.106512
    19  C    0.007170
    20  C    0.149970
    21  C    0.019627
    22  C    0.076486
    23  C    0.019092
    24  N   -0.255380
    25  C   -0.004723
    26  C   -0.095957
    27  C   -0.119165
    28  C    0.051759
    29  C    0.135978
    30  C    0.056356
    31  C    0.037662
    32  N   -0.088499
    33  C    0.056844
    34  C   -0.098891
    35  C    0.013813
    36  C    0.054123
    37  C    0.024316
    38  C    0.088677
    39  O   -0.204776
    40  C    0.048674
    41  C    0.197417
    42  O   -0.286253
    43  O   -0.260750
    44  C    0.167457
    45  C    0.243443
    46  C   -0.056513
    47  C   -0.170901
    48  C    0.128954
    49  C    0.034492
    50  C   -0.013322
    51  C   -0.019781
    52  C   -0.055124
    53  C   -0.083572
    54  C   -0.017588
    55  C   -0.001713
    56  C   -0.059730
    57  C    0.023022
    58  C   -0.048890
    59  C    0.112235
    60  C    0.052484
    61  C   -0.056624
    62  C   -0.010737
    63  C   -0.035792
    64  C    0.039971
    65  H   -0.001129
    66  H   -0.068103
    67  H   -0.009856
    68  H    0.047391
    69  H   -0.020018
    70  H    0.020294
    71  H    0.013197
    72  H    0.003077
    73  H    0.049896
    74  H    0.019114
    75  H   -0.007241
    76  H    0.020004
    77  H    0.043482
    78  H    0.023136
    79  H    0.042798
    80  H   -0.090207
    81  H    0.048360
    82  H    0.014028
    83  H    0.021192
    84  H    0.027176
    85  H   -0.041312
    86  H    0.012259
    87  H    0.007362
    88  H    0.018410
    89  H   -0.016558
    90  H    0.002558
    91  H    0.034470
    92  H    0.050107
    93  H    0.031815
    94  H   -0.005680
    95  H    0.042281
    96  H    0.030284
    97  H    0.029373
    98  H    0.050582
    99  H    0.064194
   100  H   -0.037842
   101  H    0.023275
   102  H    0.039695
   103  H   -0.052284
   104  H    0.007040
   105  H    0.018868
   106  H    0.015243
   107  H    0.034749
   108  H    0.018255
   109  H    0.010487
   110  H    0.018157
   111  H    0.048878
   112  H    0.014321
   113  H    0.041507
   114  H    0.013185
   115  H    0.011661
   116  H    0.000116
   117  H    0.007185
   118  H    0.012384
   119  H    0.016786
   120  H   -0.008952
   121  H    0.034762
   122  H    0.024593
   123  H    0.001766
   124  H   -0.031991
   125  H   -0.066631
   126  H   -0.009035
   127  H   -0.006688
   128  H   -0.021296
   129  H   -0.021838
   130  H   -0.024565
   131  H    0.023321
   132  H    0.009449
   133  H    0.036769
   134  H    0.007473
   135  H   -0.002040
   136  H    0.006282
   137  H    0.123272
   138  H    0.184036
 Sum of Mulliken charges =   0.00000

 Dipole moment (field-independent basis, Debye):
    X=              3.7081    Y=              4.6660    Z=              0.0504  Tot=              5.9602
 Quadrupole moment (field-independent basis, Debye-Ang):
   XX=           -345.9556   YY=           -380.1122   ZZ=           -396.7936
   XY=            -30.4790   XZ=             13.1684   YZ=              1.8349

 Normal termination of Gaussian 09 at Fri Jul 26 03:17:21 2019.
