 Gaussian 09, Revision D.01,
 Gaussian 09:  ES64L-G09RevD.01 24-Apr-2013

 --------------------------
 # td=(NStates=1) B3LYP/SVP
 --------------------------

 --
 TD
 --
 Symbolic Z-matrix:
 Charge =  0 Multiplicity = 1

                         Standard orientation:
 ---------------------------------------------------------------------
 Center     Atomic      Atomic             Coordinates (Angstroms)
 Number     Number       Type             X           Y           Z
 ---------------------------------------------------------------------
      1          6           0       -5.124811   -1.903286    0.393564
      2          6           0       -4.759118    2.721011    1.448671
      3          6           0       -9.289067    3.358175   -0.244846
      4          6           0       -9.860351   -1.478622   -0.762160
      5          7           0       -5.132996    0.399021    0.787174
      6          6           0       -4.463381   -0.788550    0.725811
      7          6           0       -3.028521   -0.688995    1.227874
      8          6           0       -2.994363    0.879972    1.704250
      9          6           0       -4.396969    1.316099    1.354999
     10          6           0       -2.942960    0.993829    3.263025
     11          6           0       -1.931715   -0.778988    0.104347
     12          6           0       -0.562681   -0.839924    0.501748
     13          6           0        0.459952   -1.162001   -0.693611
     14          8           0        0.095679   -1.725423   -1.743760
     15          8           0        1.626582   -0.725168   -0.364148
     16          7           0       -7.073559    2.774135    0.538640
     17          6           0       -5.941781    3.323996    1.114200
     18          6           0       -6.243074    4.773507    1.024478
     19          6           0       -7.430531    5.013282    0.569048
     20          6           0       -8.015941    3.628144    0.271078
     21          6           0       -5.236281    5.752148    1.537025
     22          6           0       -8.070479    6.240703    0.353388
     23          6           0       -8.966098    6.649427   -0.652016
     24          7           0       -9.250760    0.872871   -0.453173
     25          6           0       -9.848189    2.046995   -0.587963
     26          6           0      -11.154584    1.946320   -0.943316
     27          6           0      -11.430734    0.608033   -1.083471
     28          6           0      -10.129245   -0.134078   -0.724923
     29          6           0      -12.202682    3.020255   -1.198959
     30          6           0      -12.639566   -0.092335   -1.521510
     31          6           0      -12.606735   -0.333706   -3.007214
     32          7           0       -7.537005   -1.240345   -0.163127
     33          6           0       -8.670537   -2.050974   -0.430617
     34          6           0       -8.266391   -3.414420   -0.425389
     35          6           0       -6.862941   -3.412053   -0.185088
     36          6           0       -6.463025   -2.047947    0.041458
     37          6           0       -9.110509   -4.632394   -0.706993
     38          6           0       -5.782015   -4.314127    0.112345
     39          8           0       -5.808761   -5.532225    0.165526
     40          6           0       -4.544222   -3.374744    0.445087
     41          6           0       -3.906244   -3.792972    1.642526
     42          8           0       -3.987792   -3.324865    2.760443
     43          8           0       -3.098851   -4.928311    1.391518
     44          6           0       -2.444214   -5.494368    2.474540
     45          6           0        2.684954   -0.979774   -1.382821
     46          6           0        3.964752   -0.542450   -0.843361
     47          6           0        5.010887   -0.049637   -1.451683
     48          6           0        4.891079    0.693667   -2.757342
     49          6           0        6.263086    0.453294   -0.580536
     50          6           0        7.505547   -0.291659   -1.159787
     51          6           0        8.714983   -0.028104   -0.291836
     52          6           0        9.970800   -0.644087   -0.878975
     53          6           0        9.989589   -2.078214   -1.001666
     54          6           0       11.203086   -0.029743   -0.033922
     55          6           0       12.554878   -0.643502   -0.526659
     56          6           0       13.721639   -0.023498    0.355305
     57          6           0       15.120798   -0.155571   -0.267409
     58          6           0       15.526039   -1.711605   -0.245878
     59          6           0       16.113201    0.654260    0.569529
     60          6           0       17.550066    0.607041   -0.075682
     61          6           0       18.581900    1.623721    0.681997
     62          6           0       20.063948    1.600030    0.398114
     63          6           0       20.375905    1.798075   -1.221440
     64          6           0       20.863839    2.446029    1.300616
     65          1           0       -4.071619    3.373166    1.892090
     66          1           0       -9.896244    4.134834   -0.406920
     67          1           0      -10.576247   -2.124242   -1.083747
     68          1           0       -2.848548   -1.535327    1.932663
     69          1           0       -2.177422    1.512479    1.349766
     70          1           0       -2.128811    0.347634    3.674451
     71          1           0       -3.067573    2.074154    3.649197
     72          1           0       -3.770765    0.571989    3.856654
     73          1           0       -1.925227   -1.841498   -0.360558
     74          1           0       -2.199810   -0.085530   -0.789445
     75          1           0       -0.133012    0.019014    0.947046
     76          1           0       -0.495900   -1.595735    1.294446
     77          1           0       -4.164344    6.026312    1.056932
     78          1           0       -5.534276    6.796664    1.492188
     79          1           0       -4.732777    5.562087    2.646517
     80          1           0       -7.646778    6.960225    1.215382
     81          1           0       -9.202252    5.936694   -1.420370
     82          1           0       -9.406675    7.591268   -0.557658
     83          1           0      -12.405337    3.577855   -0.249993
     84          1           0      -11.944754    3.779407   -2.102566
     85          1           0      -13.059030    2.761611   -1.375038
     86          1           0      -12.765924   -1.095137   -1.066750
     87          1           0      -13.592846    0.376441   -1.179404
     88          1           0      -12.626378    0.528838   -3.756873
     89          1           0      -11.801712   -0.976821   -3.323829
     90          1           0      -13.397649   -0.999034   -3.206749
     91          1           0       -9.937552   -4.793042   -0.011937
     92          1           0       -9.486633   -4.784689   -1.755552
     93          1           0       -8.378533   -5.511282   -0.690783
     94          1           0       -3.685530   -3.812976   -0.142221
     95          1           0       -2.060671   -6.578469    2.009620
     96          1           0       -1.444852   -4.600426    2.608427
     97          1           0       -3.206858   -5.342638    3.635992
     98          1           0        2.678415   -2.054951   -1.776505
     99          1           0        2.544653   -0.477568   -2.258222
    100          1           0        4.102758   -0.798738    0.259581
    101          1           0        5.219322    1.693383   -2.464458
    102          1           0        5.667495    0.242240   -3.307116
    103          1           0        4.112204    0.531353   -3.343227
    104          1           0        6.370718    1.549969   -0.506378
    105          1           0        6.194914    0.191396    0.372086
    106          1           0        7.192480   -1.341500   -1.375877
    107          1           0        7.536175    0.303097   -2.272283
    108          1           0        8.868246    0.924217    0.152004
    109          1           0        8.522376   -0.819732    0.593747
    110          1           0        9.941695   -0.329884   -1.962857
    111          1           0        9.061090   -2.465523   -1.440759
    112          1           0       10.923096   -2.583917   -1.500990
    113          1           0        9.912257   -2.519641   -0.011591
    114          1           0       11.367098    0.973671   -0.353752
    115          1           0       11.133948   -0.165663    1.060024
    116          1           0       12.658902   -1.671213   -0.744226
    117          1           0       12.898191   -0.355958   -1.713241
    118          1           0       13.513932    1.063044    0.187393
    119          1           0       13.761973   -0.251150    1.249575
    120          1           0       15.120424    0.204364   -1.226620
    121          1           0       14.923712   -2.085863   -0.936531
    122          1           0       16.527276   -1.668006   -0.750880
    123          1           0       15.425875   -2.184687    0.789483
    124          1           0       15.702818    1.647933    0.535225
    125          1           0       16.458573    0.343830    1.625521
    126          1           0       17.878638   -0.483978    0.013546
    127          1           0       17.446082    0.837560   -0.980387
    128          1           0       18.456494    2.874456    0.482697
    129          1           0       18.412639    1.409001    1.830660
    130          1           0       20.535446    0.614434    0.692623
    131          1           0       19.603717    2.673236   -1.725123
    132          1           0       21.505869    2.166778   -1.113979
    133          1           0       20.291232    0.818914   -1.936769
    134          1           0       20.830183    2.309960    2.472110
    135          1           0       21.975643    2.312840    0.992000
    136          1           0       20.619032    3.707692    0.984869
    137          1           0       -6.984136    1.711121    0.532475
    138          1           0       -7.659362   -0.266308    0.084237
 ---------------------------------------------------------------------

 SCF Done:  E(RB3LYP) =  -2732.92720974     A.U. after   18 cycles

 Excitation energies and oscillator strengths:

 Excited State   1:      Singlet-A      2.1921 eV  565.59 nm  f=0.1535  <S**2>=0.000
     235 -> 238        0.28590
     236 -> 237        0.62838
     236 -> 238        0.11297
 This state for optimization and/or second-order correction.
 Total Energy, E(TD-HF/TD-KS) =  -2732.84665120
 Copying the excited state density for this state as the 1-particle RhoCI density.

 The electronic state is 1-A.
 Alpha  occ. eigenvalues --  -19.20198 -19.17173 -19.12942 -19.12254 -19.11949
 Alpha  occ. eigenvalues --  -14.37736 -14.36779 -14.32610 -14.28816 -10.31970
 Alpha  occ. eigenvalues --  -10.31464 -10.28327 -10.27814 -10.25430 -10.24374
 Alpha  occ. eigenvalues --  -10.24249 -10.23895 -10.23624 -10.22716 -10.22608
 Alpha  occ. eigenvalues --  -10.22026 -10.21905 -10.21858 -10.21424 -10.21422
 Alpha  occ. eigenvalues --  -10.21295 -10.21188 -10.20905 -10.20879 -10.20789
 Alpha  occ. eigenvalues --  -10.20648 -10.20618 -10.20452 -10.20452 -10.20424
 Alpha  occ. eigenvalues --  -10.20419 -10.20084 -10.19855 -10.19633 -10.19618
 Alpha  occ. eigenvalues --  -10.19573 -10.19543 -10.19440 -10.19351 -10.19258
 Alpha  occ. eigenvalues --  -10.19202 -10.18957 -10.18941 -10.18825 -10.18824
 Alpha  occ. eigenvalues --  -10.18810 -10.18783 -10.18685 -10.18219 -10.18167
 Alpha  occ. eigenvalues --  -10.18003 -10.17977 -10.17887 -10.17865 -10.17607
 Alpha  occ. eigenvalues --  -10.17579 -10.17242 -10.17209 -10.16444  -1.11247
 Alpha  occ. eigenvalues --   -1.08733  -1.02148  -1.00764  -1.00032  -0.99555
 Alpha  occ. eigenvalues --   -0.97649  -0.95600  -0.93787  -0.85199  -0.83563
 Alpha  occ. eigenvalues --   -0.83487  -0.82271  -0.81396  -0.81288  -0.81106
 Alpha  occ. eigenvalues --   -0.80267  -0.79832  -0.79569  -0.79387  -0.78125
 Alpha  occ. eigenvalues --   -0.77657  -0.76455  -0.75995  -0.75383  -0.74881
 Alpha  occ. eigenvalues --   -0.74154  -0.73917  -0.73373  -0.71778  -0.70320
 Alpha  occ. eigenvalues --   -0.69925  -0.69070  -0.68684  -0.68285  -0.67589
 Alpha  occ. eigenvalues --   -0.67144  -0.66686  -0.66188  -0.65553  -0.65119
 Alpha  occ. eigenvalues --   -0.64527  -0.64232  -0.62602  -0.62226  -0.61943
 Alpha  occ. eigenvalues --   -0.61315  -0.59645  -0.59182  -0.58697  -0.58670
 Alpha  occ. eigenvalues --   -0.57717  -0.57352  -0.56333  -0.56043  -0.55558
 Alpha  occ. eigenvalues --   -0.55417  -0.54693  -0.53600  -0.53421  -0.52615
 Alpha  occ. eigenvalues --   -0.52611  -0.51835  -0.51571  -0.50964  -0.50655
 Alpha  occ. eigenvalues --   -0.50266  -0.49678  -0.49506  -0.48856  -0.48425
 Alpha  occ. eigenvalues --   -0.48270  -0.48145  -0.47760  -0.47339  -0.47265
 Alpha  occ. eigenvalues --   -0.47214  -0.47030  -0.46574  -0.46069  -0.45847
 Alpha  occ. eigenvalues --   -0.45690  -0.45543  -0.45282  -0.45087  -0.44761
 Alpha  occ. eigenvalues --   -0.44294  -0.44081  -0.43843  -0.43692  -0.43653
 Alpha  occ. eigenvalues --   -0.43401  -0.43356  -0.43158  -0.43045  -0.42889
 Alpha  occ. eigenvalues --   -0.42554  -0.42444  -0.42155  -0.42016  -0.41800
 Alpha  occ. eigenvalues --   -0.41677  -0.41230  -0.41048  -0.40977  -0.40627
 Alpha  occ. eigenvalues --   -0.40455  -0.40218  -0.40049  -0.40014  -0.39840
 Alpha  occ. eigenvalues --   -0.39567  -0.39403  -0.38869  -0.38674  -0.38633
 Alpha  occ. eigenvalues --   -0.38440  -0.38147  -0.38049  -0.37829  -0.37579
 Alpha  occ. eigenvalues --   -0.37513  -0.37251  -0.37151  -0.37057  -0.36972
 Alpha  occ. eigenvalues --   -0.36883  -0.36238  -0.36087  -0.35927  -0.35778
 Alpha  occ. eigenvalues --   -0.35638  -0.35338  -0.35097  -0.35068  -0.34919
 Alpha  occ. eigenvalues --   -0.34747  -0.34376  -0.34146  -0.33888  -0.33555
 Alpha  occ. eigenvalues --   -0.33318  -0.33253  -0.33114  -0.32938  -0.32768
 Alpha  occ. eigenvalues --   -0.32285  -0.32020  -0.31620  -0.31299  -0.31260
 Alpha  occ. eigenvalues --   -0.30985  -0.30548  -0.30381  -0.29733  -0.29070
 Alpha  occ. eigenvalues --   -0.28971  -0.28757  -0.28376  -0.28004  -0.27838
 Alpha  occ. eigenvalues --   -0.27641  -0.27236  -0.26672  -0.26133  -0.25333
 Alpha  occ. eigenvalues --   -0.25111  -0.24933  -0.24495  -0.22223  -0.20428
 Alpha  occ. eigenvalues --   -0.18978
 Alpha virt. eigenvalues --   -0.09733  -0.08062  -0.04868  -0.02635  -0.01247
 Alpha virt. eigenvalues --   -0.00507   0.00381   0.00792   0.02024   0.02298
 Alpha virt. eigenvalues --    0.03488   0.03797   0.04028   0.04568   0.04813

 Mulliken charges:
               1
     1  C    0.129740
     2  C   -0.013007
     3  C   -0.062528
     4  C   -0.037100
     5  N   -0.155789
     6  C   -0.128877
     7  C    0.001558
     8  C   -0.031976
     9  C    0.003553
    10  C    0.012298
    11  C   -0.040428
    12  C    0.090027
    13  C    0.167122
    14  O   -0.272937
    15  O   -0.260866
    16  N   -0.023763
    17  C    0.059804
    18  C   -0.010653
    19  C    0.051116
    20  C    0.098898
    21  C   -0.039687
    22  C   -0.148249
    23  C    0.029016
    24  N   -0.211406
    25  C    0.051929
    26  C   -0.153312
    27  C   -0.060218
    28  C    0.061206
    29  C    0.217194
    30  C    0.059316
    31  C    0.043186
    32  N   -0.046193
    33  C    0.093934
    34  C   -0.109898
    35  C   -0.025713
    36  C    0.097708
    37  C    0.061589
    38  C    0.068971
    39  O   -0.169614
    40  C   -0.046561
    41  C    0.186558
    42  O   -0.221243
    43  O   -0.313771
    44  C    0.017332
    45  C    0.332628
    46  C   -0.129722
    47  C   -0.178811
    48  C    0.201401
    49  C    0.115946
    50  C   -0.080378
    51  C    0.064640
    52  C   -0.065463
    53  C    0.026873
    54  C    0.100402
    55  C   -0.060823
    56  C    0.150034
    57  C   -0.093404
    58  C    0.080303
    59  C    0.011238
    60  C    0.103898
    61  C   -0.036436
    62  C   -0.053843
    63  C   -0.093499
    64  C   -0.072264
    65  H   -0.052977
    66  H   -0.103105
    67  H   -0.073441
    68  H    0.028147
    69  H    0.021850
    70  H    0.021615
    71  H    0.019336
    72  H    0.011847
    73  H    0.026933
    74  H    0.021904
    75  H   -0.011708
    76  H    0.015958
    77  H    0.033084
    78  H    0.002536
    79  H    0.043912
    80  H    0.034836
    81  H    0.035481
    82  H    0.019085
    83  H    0.009380
    84  H    0.027316
    85  H   -0.106234
    86  H   -0.011224
    87  H    0.000837
    88  H    0.025763
    89  H   -0.009155
    90  H   -0.020552
    91  H    0.032222
    92  H    0.029569
    93  H    0.040765
    94  H    0.064897
    95  H    0.082679
    96  H    0.027558
    97  H    0.084967
    98  H    0.050300
    99  H   -0.026388
   100  H    0.003048
   101  H    0.027245
   102  H   -0.014679
   103  H   -0.030419
   104  H    0.008482
   105  H   -0.061545
   106  H    0.031294
   107  H    0.008307
   108  H   -0.004931
   109  H   -0.004829
   110  H   -0.014321
   111  H   -0.005496
   112  H    0.037107
   113  H   -0.021496
   114  H   -0.001499
   115  H    0.014979
   116  H   -0.011102
   117  H   -0.016398
   118  H   -0.014615
   119  H   -0.079100
   120  H   -0.038972
   121  H   -0.041363
   122  H    0.001583
   123  H    0.031159
   124  H   -0.015224
   125  H    0.007396
   126  H    0.020656
   127  H   -0.075170
   128  H    0.011735
   129  H    0.003780
   130  H   -0.004740
   131  H    0.039364
   132  H    0.031587
   133  H    0.052475
   134  H    0.047264
   135  H    0.024032
   136  H    0.007768
   137  H    0.174548
   138  H    0.133114
 Sum of Mulliken charges =   0.00000

 Dipole moment (field-independent basis, Debye):
    X=              2.5652    Y=              4.9363    Z=              0.1843  Tot=              5.5661
 Quadrupole moment (field-independent basis, Debye-Ang):
   XX=           -356.6042   YY=           -391.8987   ZZ=           -396.7030
   XY=            -34.1126   XZ=              7.2665   YZ=              4.0842

 Normal termination of Gaussian 09 at Wed Jul 31 12:02:22 2019.
