 Gaussian 09, Revision D.01,
 Gaussian 09:  ES64L-G09RevD.01 24-Apr-2013

 --------------------------
 # td=(NStates=1) B3LYP/SVP
 --------------------------

 --
 TD
 --
 Symbolic Z-matrix:
 Charge =  0 Multiplicity = 1

                         Standard orientation:
 ---------------------------------------------------------------------
 Center     Atomic      Atomic             Coordinates (Angstroms)
 Number     Number       Type             X           Y           Z
 ---------------------------------------------------------------------
      1          6           0       -5.165881   -1.974603    0.474916
      2          6           0       -4.721161    2.770543    1.333810
      3          6           0       -9.243640    3.382527   -0.276642
      4          6           0       -9.845518   -1.456266   -0.826516
      5          7           0       -5.255849    0.451669    0.850960
      6          6           0       -4.568245   -0.686512    0.855787
      7          6           0       -3.048782   -0.561154    1.280249
      8          6           0       -3.006784    0.873821    1.894981
      9          6           0       -4.405611    1.451909    1.317723
     10          6           0       -3.143988    0.833671    3.485981
     11          6           0       -2.166063   -0.793838    0.144152
     12          6           0       -0.664525   -0.800270    0.589717
     13          6           0        0.368174   -1.137366   -0.527374
     14          8           0        0.045532   -1.501844   -1.572725
     15          8           0        1.672265   -0.915936   -0.100851
     16          7           0       -6.942656    2.776693    0.422153
     17          6           0       -5.888589    3.400250    0.948422
     18          6           0       -6.195818    4.798224    1.020160
     19          6           0       -7.533165    4.934151    0.461623
     20          6           0       -7.981030    3.629290    0.179359
     21          6           0       -5.307964    5.864275    1.394795
     22          6           0       -8.145838    6.220783    0.354099
     23          6           0       -8.941931    6.663354   -0.568826
     24          7           0       -9.253573    0.837189   -0.368619
     25          6           0       -9.921071    2.059885   -0.480982
     26          6           0      -11.286537    1.928441   -0.896335
     27          6           0      -11.432604    0.618042   -1.050292
     28          6           0      -10.201548   -0.033797   -0.780262
     29          6           0      -12.302594    3.079106   -1.056700
     30          6           0      -12.713278   -0.123120   -1.566480
     31          6           0      -12.649205   -0.382112   -3.117617
     32          7           0       -7.552341   -1.263193   -0.145596
     33          6           0       -8.669227   -2.066586   -0.551751
     34          6           0       -8.290221   -3.507882   -0.542174
     35          6           0       -6.806145   -3.433083   -0.329126
     36          6           0       -6.499609   -2.043560    0.010911
     37          6           0       -9.099864   -4.651137   -0.903832
     38          6           0       -5.676217   -4.332858    0.021456
     39          8           0       -5.503488   -5.535022   -0.219246
     40          6           0       -4.501996   -3.280168    0.473485
     41          6           0       -3.858928   -3.860859    1.735236
     42          8           0       -4.106627   -3.464677    2.933625
     43          8           0       -3.002892   -4.810191    1.449813
     44          6           0       -2.506749   -5.716831    2.498418
     45          6           0        2.652254   -1.089589   -1.156636
     46          6           0        3.977596   -0.702996   -0.593166
     47          6           0        4.921082    0.018924   -1.103841
     48          6           0        4.767693    0.738785   -2.466366
     49          6           0        6.379032    0.170834   -0.493649
     50          6           0        7.555155   -0.447582   -1.148021
     51          6           0        8.803676   -0.221887   -0.320036
     52          6           0       10.155990   -0.708477   -1.016393
     53          6           0       10.021554   -2.187696   -1.237819
     54          6           0       11.335940   -0.257752   -0.119012
     55          6           0       12.713727   -0.354025   -0.824818
     56          6           0       13.842555    0.169381    0.038745
     57          6           0       15.288983   -0.108782   -0.422477
     58          6           0       15.523433   -1.624128   -0.654904
     59          6           0       16.277610    0.539571    0.503607
     60          6           0       17.644934    0.721359   -0.042304
     61          6           0       18.582015    1.561284    0.824663
     62          6           0       20.062014    1.627749    0.354508
     63          6           0       20.148632    2.439605   -1.027724
     64          6           0       21.018993    2.187760    1.402437
     65          1           0       -3.937875    3.499971    1.599794
     66          1           0       -9.891560    4.197452   -0.409944
     67          1           0      -10.448036   -2.241573   -1.109742
     68          1           0       -2.874069   -1.309295    2.013592
     69          1           0       -2.193314    1.492212    1.706439
     70          1           0       -2.213634    0.418327    4.033750
     71          1           0       -2.869776    1.787695    3.871697
     72          1           0       -3.980753    0.477885    3.917667
     73          1           0       -2.432730   -1.781298   -0.364377
     74          1           0       -1.891376    0.028064   -0.578180
     75          1           0       -0.374742    0.425493    0.725619
     76          1           0       -0.273548   -1.211826    1.495875
     77          1           0       -4.358938    5.862257    0.828395
     78          1           0       -5.626600    6.909532    1.223819
     79          1           0       -5.036057    5.789866    2.463071
     80          1           0       -7.774985    6.870520    1.184650
     81          1           0       -9.250285    6.091408   -1.572476
     82          1           0       -9.290806    7.824441   -0.586802
     83          1           0      -12.603930    3.667820   -0.123049
     84          1           0      -11.837168    3.783806   -2.018252
     85          1           0      -13.268829    2.738783   -1.757524
     86          1           0      -12.685612   -1.050898   -1.128979
     87          1           0      -13.519380    0.510393   -1.425922
     88          1           0      -12.417701    0.569376   -3.653037
     89          1           0      -11.716554   -1.121566   -3.358471
     90          1           0      -13.683133   -0.675103   -3.390667
     91          1           0       -9.708625   -4.946700    0.071944
     92          1           0       -9.805516   -4.415742   -1.805349
     93          1           0       -8.412981   -5.584393   -1.306685
     94          1           0       -3.767152   -3.620760   -0.182053
     95          1           0       -1.881721   -6.356806    1.782480
     96          1           0       -1.713200   -5.170692    3.225898
     97          1           0       -3.151064   -6.186034    3.097076
     98          1           0        2.501285   -2.164188   -1.441777
     99          1           0        2.199779   -0.427505   -1.925459
    100          1           0        4.040476   -1.221146    0.365943
    101          1           0        5.087348    1.912304   -2.219071
    102          1           0        5.477144    0.462156   -3.307113
    103          1           0        3.866251    0.678478   -3.074240
    104          1           0        6.552024    1.285537   -0.340092
    105          1           0        6.204757   -0.168462    0.476474
    106          1           0        7.503699   -1.674405   -1.082284
    107          1           0        7.702477   -0.056323   -2.096175
    108          1           0        8.761077    0.833663   -0.096079
    109          1           0        8.503789   -0.725724    0.624469
    110          1           0       10.104763   -0.001211   -1.843363
    111          1           0        8.830097   -2.350975   -1.636312
    112          1           0       11.074693   -2.426355   -1.858389
    113          1           0        9.892929   -2.654375   -0.395285
    114          1           0       11.149427    0.779450    0.124080
    115          1           0       11.245800   -0.801588    0.952246
    116          1           0       12.873670   -1.381263   -1.012532
    117          1           0       12.695823    0.147291   -1.894078
    118          1           0       13.896081    1.271096   -0.021560
    119          1           0       13.704264   -0.143610    1.147038
    120          1           0       15.338664    0.370015   -1.426330
    121          1           0       14.779592   -2.195790   -1.005357
    122          1           0       16.567318   -1.993968   -0.843238
    123          1           0       15.324356   -1.917923    0.348366
    124          1           0       15.924292    1.584999    0.548828
    125          1           0       16.288744    0.013346    1.434245
    126          1           0       18.256505   -0.368473   -0.208201
    127          1           0       17.792491    0.934459   -1.145352
    128          1           0       18.459722    2.403258    0.945021
    129          1           0       18.710129    1.090026    1.674376
    130          1           0       20.205173    0.577578    0.130776
    131          1           0       19.804915    3.472260   -0.943174
    132          1           0       21.225602    2.448299   -1.442638
    133          1           0       19.492227    1.943263   -1.922836
    134          1           0       21.034091    1.614425    2.377338
    135          1           0       21.887264    2.199799    1.046072
    136          1           0       20.728640    3.222662    1.791061
    137          1           0       -6.728020    1.838833    0.387190
    138          1           0       -7.779380   -0.309339    0.116947
 ---------------------------------------------------------------------

 SCF Done:  E(RB3LYP) =  -2732.98305840     A.U. after   17 cycles

 Excitation energies and oscillator strengths:

 Excited State   1:      Singlet-A      2.0340 eV  609.55 nm  f=0.1247  <S**2>=0.000
     235 -> 237       -0.10149
     235 -> 238        0.34027
     236 -> 237        0.60277
 This state for optimization and/or second-order correction.
 Total Energy, E(TD-HF/TD-KS) =  -2732.90830892
 Copying the excited state density for this state as the 1-particle RhoCI density.

 The electronic state is 1-A.
 Alpha  occ. eigenvalues --  -19.18861 -19.16243 -19.12951 -19.12738 -19.10694
 Alpha  occ. eigenvalues --  -14.36406 -14.36250 -14.32814 -14.29906 -10.31390
 Alpha  occ. eigenvalues --  -10.30916 -10.28644 -10.25888 -10.24490 -10.24026
 Alpha  occ. eigenvalues --  -10.23819 -10.23668 -10.23578 -10.23313 -10.23275
 Alpha  occ. eigenvalues --  -10.23025 -10.22700 -10.22573 -10.21293 -10.21258
 Alpha  occ. eigenvalues --  -10.21101 -10.21001 -10.20963 -10.20916 -10.20602
 Alpha  occ. eigenvalues --  -10.20448 -10.20427 -10.20320 -10.20245 -10.20171
 Alpha  occ. eigenvalues --  -10.20106 -10.20070 -10.19877 -10.19863 -10.19658
 Alpha  occ. eigenvalues --  -10.19656 -10.19306 -10.19247 -10.19179 -10.19122
 Alpha  occ. eigenvalues --  -10.19114 -10.19099 -10.19018 -10.18969 -10.18813
 Alpha  occ. eigenvalues --  -10.18742 -10.18717 -10.18566 -10.18546 -10.18422
 Alpha  occ. eigenvalues --  -10.18140 -10.17980 -10.17896 -10.17850 -10.17748
 Alpha  occ. eigenvalues --  -10.17573 -10.17163 -10.16126 -10.14156  -1.09832
 Alpha  occ. eigenvalues --   -1.09244  -1.01868  -1.01498  -0.99809  -0.97631
 Alpha  occ. eigenvalues --   -0.96213  -0.93859  -0.93460  -0.84345  -0.83142
 Alpha  occ. eigenvalues --   -0.82922  -0.82479  -0.81416  -0.81156  -0.81041
 Alpha  occ. eigenvalues --   -0.80517  -0.80313  -0.79029  -0.78276  -0.77654
 Alpha  occ. eigenvalues --   -0.77193  -0.76481  -0.75703  -0.75131  -0.74549
 Alpha  occ. eigenvalues --   -0.73906  -0.73084  -0.72404  -0.71658  -0.71217
 Alpha  occ. eigenvalues --   -0.69904  -0.69249  -0.69156  -0.68627  -0.67432
 Alpha  occ. eigenvalues --   -0.67348  -0.66902  -0.66709  -0.65584  -0.65161
 Alpha  occ. eigenvalues --   -0.64191  -0.63557  -0.62835  -0.62401  -0.61724
 Alpha  occ. eigenvalues --   -0.60696  -0.59095  -0.58692  -0.58022  -0.57640
 Alpha  occ. eigenvalues --   -0.57197  -0.56803  -0.56302  -0.56008  -0.55486
 Alpha  occ. eigenvalues --   -0.55113  -0.54871  -0.54626  -0.53733  -0.52925
 Alpha  occ. eigenvalues --   -0.52664  -0.52012  -0.51194  -0.50856  -0.49675
 Alpha  occ. eigenvalues --   -0.49590  -0.49176  -0.48876  -0.48735  -0.48500
 Alpha  occ. eigenvalues --   -0.48276  -0.47531  -0.47415  -0.47346  -0.47126
 Alpha  occ. eigenvalues --   -0.46910  -0.46593  -0.46558  -0.46000  -0.45866
 Alpha  occ. eigenvalues --   -0.45447  -0.45366  -0.45288  -0.45163  -0.45023
 Alpha  occ. eigenvalues --   -0.44592  -0.44417  -0.44248  -0.44161  -0.43737
 Alpha  occ. eigenvalues --   -0.43625  -0.43604  -0.43213  -0.42843  -0.42605
 Alpha  occ. eigenvalues --   -0.42447  -0.42176  -0.41884  -0.41736  -0.41633
 Alpha  occ. eigenvalues --   -0.41547  -0.41229  -0.41162  -0.40883  -0.40415
 Alpha  occ. eigenvalues --   -0.40329  -0.39861  -0.39761  -0.39547  -0.39357
 Alpha  occ. eigenvalues --   -0.39123  -0.38982  -0.38884  -0.38676  -0.38505
 Alpha  occ. eigenvalues --   -0.38340  -0.38072  -0.37887  -0.37775  -0.37717
 Alpha  occ. eigenvalues --   -0.37466  -0.37083  -0.37055  -0.36962  -0.36604
 Alpha  occ. eigenvalues --   -0.36333  -0.35916  -0.35868  -0.35685  -0.35624
 Alpha  occ. eigenvalues --   -0.35421  -0.34965  -0.34887  -0.34748  -0.34699
 Alpha  occ. eigenvalues --   -0.34576  -0.34363  -0.34289  -0.34183  -0.33745
 Alpha  occ. eigenvalues --   -0.33418  -0.32880  -0.32712  -0.32629  -0.32392
 Alpha  occ. eigenvalues --   -0.32159  -0.32115  -0.31764  -0.31628  -0.31316
 Alpha  occ. eigenvalues --   -0.30976  -0.30391  -0.30045  -0.30027  -0.29566
 Alpha  occ. eigenvalues --   -0.29547  -0.29202  -0.28587  -0.28430  -0.28244
 Alpha  occ. eigenvalues --   -0.27590  -0.27291  -0.26482  -0.25909  -0.25802
 Alpha  occ. eigenvalues --   -0.25616  -0.24776  -0.23647  -0.23021  -0.19632
 Alpha  occ. eigenvalues --   -0.19133
 Alpha virt. eigenvalues --   -0.10302  -0.08294  -0.04435  -0.01514  -0.00419
 Alpha virt. eigenvalues --    0.00510   0.00726   0.01583   0.02387   0.02971
 Alpha virt. eigenvalues --    0.03348   0.04252   0.04408   0.04615   0.04851

 Mulliken charges:
               1
     1  C    0.041393
     2  C   -0.049180
     3  C   -0.089483
     4  C    0.007392
     5  N   -0.187094
     6  C   -0.060065
     7  C    0.069529
     8  C   -0.021097
     9  C    0.033097
    10  C    0.093616
    11  C    0.067895
    12  C   -0.058599
    13  C    0.152606
    14  O   -0.169277
    15  O   -0.371510
    16  N    0.060206
    17  C   -0.002213
    18  C   -0.119964
    19  C    0.020119
    20  C    0.191000
    21  C    0.082425
    22  C   -0.027674
    23  C   -0.106013
    24  N   -0.245704
    25  C    0.014426
    26  C   -0.101412
    27  C   -0.114014
    28  C    0.090274
    29  C   -0.029866
    30  C    0.178781
    31  C   -0.048151
    32  N   -0.020865
    33  C   -0.007570
    34  C   -0.040142
    35  C   -0.081359
    36  C    0.102886
    37  C   -0.035891
    38  C    0.090385
    39  O   -0.195409
    40  C   -0.041903
    41  C    0.182399
    42  O   -0.307659
    43  O   -0.279330
    44  C    0.186933
    45  C    0.266635
    46  C   -0.084564
    47  C   -0.071682
    48  C   -0.005104
    49  C    0.084038
    50  C    0.061447
    51  C   -0.064494
    52  C   -0.025399
    53  C    0.068748
    54  C    0.003537
    55  C    0.076958
    56  C   -0.004808
    57  C   -0.093434
    58  C    0.106056
    59  C    0.144210
    60  C   -0.068252
    61  C    0.287557
    62  C   -0.129415
    63  C   -0.053346
    64  C    0.122688
    65  H   -0.031967
    66  H   -0.047513
    67  H   -0.087565
    68  H   -0.003499
    69  H   -0.034227
    70  H    0.004112
    71  H   -0.019022
    72  H    0.013142
    73  H    0.043503
    74  H    0.020339
    75  H    0.038200
    76  H    0.019516
    77  H    0.024097
    78  H    0.010034
    79  H    0.022198
    80  H    0.018829
    81  H    0.057799
    82  H    0.044177
    83  H    0.068822
    84  H    0.037863
    85  H    0.033738
    86  H   -0.020554
    87  H   -0.024461
    88  H    0.011853
    89  H    0.032242
    90  H    0.022915
    91  H    0.069095
    92  H    0.058887
    93  H    0.079723
    94  H    0.029055
    95  H    0.055003
    96  H    0.046295
    97  H    0.026983
    98  H    0.029031
    99  H    0.013334
   100  H   -0.012670
   101  H    0.028266
   102  H    0.027216
   103  H    0.011409
   104  H    0.000526
   105  H   -0.033825
   106  H    0.022872
   107  H   -0.021040
   108  H   -0.023194
   109  H   -0.014358
   110  H   -0.015279
   111  H    0.024702
   112  H    0.047174
   113  H   -0.043013
   114  H   -0.020151
   115  H    0.006522
   116  H   -0.024864
   117  H    0.007219
   118  H   -0.009611
   119  H    0.004682
   120  H   -0.019742
   121  H   -0.035054
   122  H    0.019429
   123  H   -0.045152
   124  H   -0.009112
   125  H   -0.010231
   126  H   -0.020649
   127  H   -0.005361
   128  H   -0.142267
   129  H   -0.058803
   130  H   -0.018266
   131  H    0.011908
   132  H    0.018775
   133  H    0.026178
   134  H    0.004364
   135  H   -0.050488
   136  H    0.005545
   137  H    0.086900
   138  H    0.142172
 Sum of Mulliken charges =   0.00000

 Dipole moment (field-independent basis, Debye):
    X=              1.9313    Y=              4.0925    Z=              0.6476  Tot=              4.5714
 Quadrupole moment (field-independent basis, Debye-Ang):
   XX=           -355.0979   YY=           -372.8980   ZZ=           -398.1470
   XY=            -14.3205   XZ=             16.9433   YZ=             -3.3395

 Normal termination of Gaussian 09 at Sat Aug  3 09:46:53 2019.
