 Gaussian 09, Revision D.01,
 Gaussian 09:  ES64L-G09RevD.01 24-Apr-2013

 --------------------------
 # td=(NStates=1) B3LYP/SVP
 --------------------------

 --
 TD
 --
 Symbolic Z-matrix:
 Charge =  0 Multiplicity = 1

                         Standard orientation:
 ---------------------------------------------------------------------
 Center     Atomic      Atomic             Coordinates (Angstroms)
 Number     Number       Type             X           Y           Z
 ---------------------------------------------------------------------
      1          6           0       -5.080848   -1.906754    0.500387
      2          6           0       -4.720180    2.698574    1.473174
      3          6           0       -9.232211    3.402420   -0.291630
      4          6           0       -9.875528   -1.330031   -0.906984
      5          7           0       -5.170854    0.393359    0.892076
      6          6           0       -4.498565   -0.763801    0.912856
      7          6           0       -3.088747   -0.614016    1.415801
      8          6           0       -3.042574    0.760648    1.978845
      9          6           0       -4.389449    1.262073    1.482921
     10          6           0       -3.044903    0.743863    3.537138
     11          6           0       -2.055089   -0.897852    0.169838
     12          6           0       -0.593237   -1.058094    0.629670
     13          6           0        0.381558   -1.319316   -0.457182
     14          8           0        0.063928   -1.666879   -1.560181
     15          8           0        1.618152   -0.948002   -0.175484
     16          7           0       -6.954498    2.780759    0.449740
     17          6           0       -5.874982    3.253924    1.194064
     18          6           0       -6.162508    4.701275    1.173923
     19          6           0       -7.333038    4.956033    0.603802
     20          6           0       -7.972889    3.650917    0.146667
     21          6           0       -5.122881    5.798534    1.705157
     22          6           0       -7.981961    6.294128    0.358620
     23          6           0       -8.897387    6.669180   -0.546878
     24          7           0       -9.200707    1.013689   -0.402611
     25          6           0       -9.775109    2.166827   -0.633531
     26          6           0      -11.193816    2.000923   -1.092292
     27          6           0      -11.357142    0.666767   -1.288387
     28          6           0      -10.134097    0.015200   -0.916235
     29          6           0      -12.135370    3.147451   -1.441193
     30          6           0      -12.671021   -0.037324   -1.736960
     31          6           0      -12.622725   -0.237149   -3.264846
     32          7           0       -7.509567   -1.211513   -0.163929
     33          6           0       -8.628659   -1.914777   -0.522770
     34          6           0       -8.218751   -3.342030   -0.591343
     35          6           0       -6.867687   -3.354791   -0.267152
     36          6           0       -6.495977   -2.058123    0.090818
     37          6           0       -9.150085   -4.564581   -0.896561
     38          6           0       -5.743466   -4.309154   -0.038739
     39          8           0       -5.682236   -5.522618   -0.106893
     40          6           0       -4.464765   -3.321865    0.419736
     41          6           0       -3.812414   -3.790652    1.670171
     42          8           0       -4.015448   -3.463181    2.741883
     43          8           0       -2.945284   -4.770152    1.313567
     44          6           0       -2.438324   -5.470180    2.457114
     45          6           0        2.614800   -1.325419   -1.133506
     46          6           0        3.968112   -0.895102   -0.589553
     47          6           0        4.857110   -0.050732   -1.121786
     48          6           0        4.771548    0.509591   -2.472085
     49          6           0        6.205556    0.314539   -0.450586
     50          6           0        7.379146   -0.369522   -1.141261
     51          6           0        8.818192   -0.048539   -0.358781
     52          6           0       10.069865   -0.671083   -0.875230
     53          6           0        9.989407   -2.266392   -0.779749
     54          6           0       11.143075   -0.140873   -0.054202
     55          6           0       12.523480   -0.387600   -0.593375
     56          6           0       13.725156    0.239850    0.235631
     57          6           0       15.070878   -0.038079   -0.270487
     58          6           0       15.469915   -1.579685   -0.266210
     59          6           0       16.262437    0.692466    0.412444
     60          6           0       17.624964    0.651653   -0.249598
     61          6           0       18.571647    1.735062    0.472559
     62          6           0       20.003143    1.626967    0.097836
     63          6           0       20.270351    2.092882   -1.322350
     64          6           0       20.856726    2.502430    1.021362
     65          1           0       -4.160694    3.392865    2.191348
     66          1           0       -9.895935    4.231731   -0.195631
     67          1           0      -10.791422   -2.035761   -1.117469
     68          1           0       -3.062368   -1.439410    2.106625
     69          1           0       -2.311307    1.595759    1.650782
     70          1           0       -2.208977    0.441043    4.111541
     71          1           0       -3.078716    1.684543    3.812351
     72          1           0       -3.837026    0.273423    4.004440
     73          1           0       -2.321419   -1.891682   -0.102848
     74          1           0       -2.230748   -0.182950   -0.570277
     75          1           0       -0.202816   -0.131605    1.074343
     76          1           0       -0.574792   -1.858610    1.344735
     77          1           0       -4.107525    5.897681    1.146916
     78          1           0       -5.494886    6.704344    1.606313
     79          1           0       -4.782148    5.592410    2.700057
     80          1           0       -7.702456    7.024237    1.377133
     81          1           0       -9.295817    6.209143   -1.323580
     82          1           0       -9.090172    7.725174   -0.398123
     83          1           0      -12.392106    3.593163   -0.525630
     84          1           0      -11.542572    3.813755   -2.322355
     85          1           0      -12.972754    2.808481   -2.104792
     86          1           0      -12.742379   -1.043869   -1.218700
     87          1           0      -13.586012    0.450991   -1.576939
     88          1           0      -12.784461    0.721104   -3.803134
     89          1           0      -11.604593   -0.648135   -3.791178
     90          1           0      -13.456760   -0.962114   -3.607977
     91          1           0       -9.760366   -4.720544   -0.012225
     92          1           0       -9.727112   -4.647429   -1.860615
     93          1           0       -8.434010   -5.437751   -0.874424
     94          1           0       -3.655106   -3.440835   -0.485416
     95          1           0       -1.714364   -6.241178    2.137216
     96          1           0       -1.874427   -4.788571    3.259321
     97          1           0       -3.160411   -5.976260    3.161859
     98          1           0        2.694716   -2.618651   -1.465657
     99          1           0        2.212067   -0.746362   -2.102168
    100          1           0        4.170172   -1.552824    0.134431
    101          1           0        4.982697    1.561652   -2.700363
    102          1           0        5.519402   -0.043935   -2.914579
    103          1           0        3.628808    0.281200   -2.834802
    104          1           0        6.507562    1.409542   -0.206286
    105          1           0        6.231006   -0.108667    0.757036
    106          1           0        7.138305   -1.374017   -0.900812
    107          1           0        7.473875   -0.050646   -2.198232
    108          1           0        8.784483    1.109499   -0.087971
    109          1           0        8.679624   -0.350177    0.871630
    110          1           0       10.259446   -0.477649   -2.026595
    111          1           0        9.152763   -2.812653   -1.385732
    112          1           0       11.108607   -2.824941   -0.977088
    113          1           0        9.740057   -2.607674    0.301432
    114          1           0       11.156659    1.062094    0.021729
    115          1           0       11.049573   -0.582137    0.993426
    116          1           0       12.579440   -1.381433   -0.501325
    117          1           0       12.488677   -0.161124   -1.598186
    118          1           0       13.706555    1.346567    0.324129
    119          1           0       13.382614   -0.235955    1.175495
    120          1           0       15.121755    0.162490   -1.288474
    121          1           0       14.737973   -2.466369   -0.712506
    122          1           0       16.315322   -1.858585   -0.962421
    123          1           0       15.501757   -1.849058    0.882000
    124          1           0       15.848991    1.785298    0.267292
    125          1           0       16.183834    0.670828    1.642436
    126          1           0       18.116700   -0.391838   -0.330420
    127          1           0       17.434118    0.919606   -1.427887
    128          1           0       18.321017    2.710968    0.247835
    129          1           0       18.610077    1.206172    1.457431
    130          1           0       20.558136    0.677000    0.347636
    131          1           0       19.817793    2.965627   -1.544864
    132          1           0       21.253949    2.106411   -1.717781
    133          1           0       19.692924    1.260469   -2.027690
    134          1           0       20.692146    2.376259    2.306162
    135          1           0       21.893910    2.132640    0.804431
    136          1           0       20.641167    3.650712    0.736699
    137          1           0       -7.191027    1.829887    0.324981
    138          1           0       -7.508605   -0.254732   -0.142643
 ---------------------------------------------------------------------

 SCF Done:  E(RB3LYP) =  -2733.01468219     A.U. after   17 cycles

 Excitation energies and oscillator strengths:

 Excited State   1:      Singlet-A      2.2535 eV  550.19 nm  f=0.1674  <S**2>=0.000
     235 -> 238        0.28614
     236 -> 237        0.64161
 This state for optimization and/or second-order correction.
 Total Energy, E(TD-HF/TD-KS) =  -2732.93186805
 Copying the excited state density for this state as the 1-particle RhoCI density.

 The electronic state is 1-A.
 Alpha  occ. eigenvalues --  -19.18015 -19.17709 -19.13145 -19.13022 -19.11401
 Alpha  occ. eigenvalues --  -14.37183 -14.35964 -14.32341 -14.30006 -10.30909
 Alpha  occ. eigenvalues --  -10.30597 -10.28904 -10.27124 -10.24956 -10.23889
 Alpha  occ. eigenvalues --  -10.23841 -10.23680 -10.23379 -10.23219 -10.22427
 Alpha  occ. eigenvalues --  -10.21932 -10.21658 -10.21361 -10.21256 -10.21206
 Alpha  occ. eigenvalues --  -10.21186 -10.21125 -10.21095 -10.21052 -10.21012
 Alpha  occ. eigenvalues --  -10.20859 -10.20818 -10.20587 -10.20483 -10.20394
 Alpha  occ. eigenvalues --  -10.20337 -10.20182 -10.20158 -10.20001 -10.19854
 Alpha  occ. eigenvalues --  -10.19790 -10.19727 -10.19724 -10.19719 -10.19703
 Alpha  occ. eigenvalues --  -10.19512 -10.19420 -10.19385 -10.19257 -10.19113
 Alpha  occ. eigenvalues --  -10.18989 -10.18774 -10.18757 -10.18715 -10.18562
 Alpha  occ. eigenvalues --  -10.18523 -10.18516 -10.18344 -10.18285 -10.18266
 Alpha  occ. eigenvalues --  -10.18144 -10.17732 -10.16937 -10.16118  -1.11802
 Alpha  occ. eigenvalues --   -1.10786  -1.03121  -1.02694  -1.00645  -0.99219
 Alpha  occ. eigenvalues --   -0.97805  -0.96706  -0.92851  -0.83810  -0.83119
 Alpha  occ. eigenvalues --   -0.82546  -0.81899  -0.81602  -0.81325  -0.81004
 Alpha  occ. eigenvalues --   -0.80298  -0.79772  -0.79374  -0.78585  -0.78311
 Alpha  occ. eigenvalues --   -0.76559  -0.76084  -0.75480  -0.75006  -0.74295
 Alpha  occ. eigenvalues --   -0.73755  -0.73216  -0.72737  -0.71619  -0.70871
 Alpha  occ. eigenvalues --   -0.70668  -0.69225  -0.68801  -0.67496  -0.67294
 Alpha  occ. eigenvalues --   -0.66998  -0.66142  -0.65868  -0.65545  -0.65426
 Alpha  occ. eigenvalues --   -0.64251  -0.63144  -0.62864  -0.61752  -0.61078
 Alpha  occ. eigenvalues --   -0.60793  -0.59095  -0.58637  -0.58175  -0.57828
 Alpha  occ. eigenvalues --   -0.56751  -0.56389  -0.55698  -0.55414  -0.55301
 Alpha  occ. eigenvalues --   -0.54749  -0.54534  -0.54104  -0.53800  -0.53463
 Alpha  occ. eigenvalues --   -0.52863  -0.51971  -0.51319  -0.51122  -0.50343
 Alpha  occ. eigenvalues --   -0.49937  -0.49103  -0.49006  -0.48856  -0.48692
 Alpha  occ. eigenvalues --   -0.48553  -0.48078  -0.47896  -0.47599  -0.47190
 Alpha  occ. eigenvalues --   -0.47001  -0.46840  -0.46312  -0.45778  -0.45602
 Alpha  occ. eigenvalues --   -0.45435  -0.45207  -0.45092  -0.44813  -0.44648
 Alpha  occ. eigenvalues --   -0.44407  -0.44285  -0.44194  -0.43806  -0.43526
 Alpha  occ. eigenvalues --   -0.43243  -0.42979  -0.42961  -0.42744  -0.42612
 Alpha  occ. eigenvalues --   -0.42507  -0.42021  -0.41909  -0.41820  -0.41472
 Alpha  occ. eigenvalues --   -0.41383  -0.40962  -0.40829  -0.40578  -0.40180
 Alpha  occ. eigenvalues --   -0.40106  -0.40040  -0.39684  -0.39289  -0.39226
 Alpha  occ. eigenvalues --   -0.39063  -0.38967  -0.38847  -0.38554  -0.38511
 Alpha  occ. eigenvalues --   -0.38247  -0.38003  -0.37848  -0.37818  -0.37500
 Alpha  occ. eigenvalues --   -0.37394  -0.37223  -0.37093  -0.37014  -0.36738
 Alpha  occ. eigenvalues --   -0.36580  -0.36511  -0.36221  -0.36083  -0.35775
 Alpha  occ. eigenvalues --   -0.35531  -0.35394  -0.35330  -0.34979  -0.34404
 Alpha  occ. eigenvalues --   -0.33976  -0.33873  -0.33712  -0.33666  -0.33598
 Alpha  occ. eigenvalues --   -0.33457  -0.33124  -0.32926  -0.32732  -0.32480
 Alpha  occ. eigenvalues --   -0.32294  -0.31909  -0.31583  -0.31567  -0.31037
 Alpha  occ. eigenvalues --   -0.30640  -0.30550  -0.30538  -0.29916  -0.29760
 Alpha  occ. eigenvalues --   -0.29305  -0.29246  -0.29219  -0.28681  -0.28568
 Alpha  occ. eigenvalues --   -0.28327  -0.27278  -0.27038  -0.26476  -0.26031
 Alpha  occ. eigenvalues --   -0.25135  -0.24947  -0.24832  -0.22942  -0.20249
 Alpha  occ. eigenvalues --   -0.18817
 Alpha virt. eigenvalues --   -0.09298  -0.07454  -0.04122  -0.01990  -0.00422
 Alpha virt. eigenvalues --   -0.00038   0.00671   0.00908   0.02351   0.03427
 Alpha virt. eigenvalues --    0.03738   0.03769   0.03867   0.04235   0.04379

 Mulliken charges:
               1
     1  C    0.045036
     2  C   -0.064718
     3  C   -0.093178
     4  C   -0.105636
     5  N   -0.117325
     6  C   -0.141721
     7  C    0.043918
     8  C   -0.051260
     9  C   -0.050050
    10  C    0.178192
    11  C    0.098542
    12  C    0.086599
    13  C    0.136815
    14  O   -0.228472
    15  O   -0.276305
    16  N   -0.079618
    17  C    0.132358
    18  C   -0.125574
    19  C   -0.003024
    20  C    0.084348
    21  C    0.143882
    22  C   -0.089314
    23  C    0.040182
    24  N   -0.268159
    25  C    0.077695
    26  C   -0.174670
    27  C   -0.063158
    28  C    0.086546
    29  C    0.073295
    30  C    0.114996
    31  C   -0.076754
    32  N    0.055696
    33  C    0.037442
    34  C   -0.166667
    35  C   -0.017581
    36  C    0.050090
    37  C    0.073481
    38  C    0.119034
    39  O   -0.159021
    40  C   -0.166037
    41  C    0.183493
    42  O   -0.145201
    43  O   -0.299210
    44  C    0.139936
    45  C    0.112566
    46  C   -0.003649
    47  C   -0.074786
    48  C    0.077227
    49  C   -0.065075
    50  C    0.064688
    51  C   -0.093467
    52  C   -0.000203
    53  C   -0.085520
    54  C   -0.051278
    55  C    0.130665
    56  C    0.075607
    57  C    0.010117
    58  C   -0.086988
    59  C   -0.022041
    60  C   -0.044240
    61  C    0.128186
    62  C   -0.113666
    63  C    0.052952
    64  C   -0.065480
    65  H    0.002269
    66  H   -0.027493
    67  H    0.023028
    68  H   -0.005321
    69  H    0.023438
    70  H   -0.004357
    71  H   -0.059126
    72  H   -0.003006
    73  H   -0.006365
    74  H   -0.002556
    75  H    0.018332
    76  H    0.020334
    77  H    0.027150
    78  H   -0.036857
    79  H    0.016050
    80  H    0.046586
    81  H   -0.018363
    82  H    0.027174
    83  H    0.033691
    84  H    0.041349
    85  H    0.018208
    86  H    0.008249
    87  H   -0.009108
    88  H    0.013567
    89  H    0.034638
    90  H    0.019459
    91  H    0.026857
    92  H    0.043659
    93  H    0.032540
    94  H    0.108595
    95  H    0.034116
    96  H    0.026166
    97  H    0.035646
    98  H    0.054870
    99  H    0.048872
   100  H   -0.047546
   101  H    0.020364
   102  H    0.009832
   103  H    0.028265
   104  H    0.023693
   105  H    0.007687
   106  H    0.003595
   107  H    0.026980
   108  H    0.010842
   109  H    0.000264
   110  H    0.015767
   111  H    0.040274
   112  H    0.042269
   113  H    0.015325
   114  H    0.008598
   115  H    0.001744
   116  H   -0.059210
   117  H   -0.040617
   118  H   -0.010927
   119  H   -0.010904
   120  H   -0.034873
   121  H    0.009997
   122  H    0.025103
   123  H    0.022033
   124  H   -0.005169
   125  H    0.016258
   126  H    0.024200
   127  H    0.009725
   128  H   -0.015957
   129  H    0.012999
   130  H   -0.003954
   131  H   -0.023844
   132  H    0.000976
   133  H    0.009297
   134  H    0.023905
   135  H    0.020059
   136  H    0.018084
   137  H    0.118514
   138  H    0.089523
 Sum of Mulliken charges =   0.00000

 Dipole moment (field-independent basis, Debye):
    X=              2.1469    Y=              4.4433    Z=              0.9210  Tot=              5.0201
 Quadrupole moment (field-independent basis, Debye-Ang):
   XX=           -345.2624   YY=           -387.4787   ZZ=           -392.8588
   XY=            -25.6387   XZ=             -3.5468   YZ=             -3.5117

 Normal termination of Gaussian 09 at Sat Jul 27 01:28:18 2019.
