 Gaussian 09, Revision D.01,
 Gaussian 09:  ES64L-G09RevD.01 24-Apr-2013

 --------------------------
 # td=(NStates=1) B3LYP/SVP
 --------------------------

 --
 TD
 --
 Symbolic Z-matrix:
 Charge =  0 Multiplicity = 1

                         Standard orientation:
 ---------------------------------------------------------------------
 Center     Atomic      Atomic             Coordinates (Angstroms)
 Number     Number       Type             X           Y           Z
 ---------------------------------------------------------------------
      1          6           0       -5.050334   -1.934065    0.368570
      2          6           0       -4.841597    2.774426    1.440943
      3          6           0       -9.434688    3.297101   -0.214710
      4          6           0       -9.853601   -1.482006   -0.832291
      5          7           0       -5.115989    0.530717    0.679935
      6          6           0       -4.497462   -0.716123    0.687206
      7          6           0       -3.078931   -0.607368    1.145985
      8          6           0       -3.088804    0.879345    1.836462
      9          6           0       -4.386345    1.457645    1.367446
     10          6           0       -2.944492    0.915011    3.406614
     11          6           0       -2.129887   -0.676274    0.018347
     12          6           0       -0.610725   -0.601054    0.455364
     13          6           0        0.383301   -1.042422   -0.570130
     14          8           0        0.050267   -1.497460   -1.657991
     15          8           0        1.732249   -0.576170   -0.226390
     16          7           0       -7.156696    2.676805    0.532810
     17          6           0       -6.034882    3.424269    1.048530
     18          6           0       -6.354561    4.802708    1.093966
     19          6           0       -7.651306    4.953326    0.406825
     20          6           0       -8.095751    3.643647    0.262105
     21          6           0       -5.368349    5.902953    1.413238
     22          6           0       -8.374319    6.168481    0.455632
     23          6           0       -9.165734    6.539456   -0.594524
     24          7           0       -9.213080    0.891042   -0.476208
     25          6           0      -10.030994    2.030498   -0.524987
     26          6           0      -11.336370    1.818961   -0.936260
     27          6           0      -11.431411    0.429689   -1.020080
     28          6           0      -10.084529   -0.068305   -0.808825
     29          6           0      -12.354815    2.858894   -1.180085
     30          6           0      -12.621711   -0.267759   -1.624917
     31          6           0      -12.638877   -0.473993   -3.148982
     32          7           0       -7.405705   -1.343295   -0.283798
     33          6           0       -8.615872   -2.071974   -0.559657
     34          6           0       -8.145054   -3.398418   -0.694951
     35          6           0       -6.805021   -3.461819   -0.324218
     36          6           0       -6.360019   -2.104379   -0.066200
     37          6           0       -8.913250   -4.704731   -0.876340
     38          6           0       -5.730279   -4.373924    0.047825
     39          8           0       -5.667907   -5.572877    0.176243
     40          6           0       -4.482082   -3.334285    0.407985
     41          6           0       -3.851558   -3.831027    1.660315
     42          8           0       -4.073013   -3.447603    2.775737
     43          8           0       -2.939756   -4.761243    1.396218
     44          6           0       -2.195818   -5.510306    2.543697
     45          6           0        2.711826   -1.042573   -1.125065
     46          6           0        4.013628   -0.628731   -0.571091
     47          6           0        4.911396    0.237969   -1.104398
     48          6           0        4.964310    0.729670   -2.442720
     49          6           0        6.277013    0.428533   -0.347804
     50          6           0        7.543045   -0.364077   -0.949759
     51          6           0        8.793918   -0.241855   -0.010636
     52          6           0       10.103644   -0.738663   -0.643548
     53          6           0       10.076421   -2.152098   -0.903221
     54          6           0       11.258227   -0.264699    0.317436
     55          6           0       12.650938   -0.569587   -0.432683
     56          6           0       13.789430   -0.042621    0.327994
     57          6           0       15.204305   -0.160142   -0.340595
     58          6           0       15.765238   -1.605154   -0.513138
     59          6           0       16.246686    0.625175    0.376754
     60          6           0       17.698505    0.712095   -0.159438
     61          6           0       18.601445    1.625822    0.572666
     62          6           0       20.085124    1.613768    0.069525
     63          6           0       20.194780    2.186105   -1.362997
     64          6           0       20.939923    2.410203    0.929929
     65          1           0       -4.018128    3.478922    1.872710
     66          1           0      -10.126345    4.310004   -0.189967
     67          1           0      -10.709452   -2.178815   -1.228046
     68          1           0       -2.789578   -1.267814    2.029106
     69          1           0       -2.336945    1.662555    1.204354
     70          1           0       -1.880680    0.571218    3.704702
     71          1           0       -2.976055    2.079493    3.827389
     72          1           0       -3.731111    0.290916    3.829149
     73          1           0       -2.181889   -1.789332   -0.375347
     74          1           0       -2.258862    0.017095   -0.652519
     75          1           0       -0.445870    0.458480    0.711833
     76          1           0       -0.558974   -1.030855    1.529507
     77          1           0       -4.448518    5.854062    0.697626
     78          1           0       -5.939576    7.011509    1.462096
     79          1           0       -4.980063    5.800673    2.365407
     80          1           0       -8.292595    6.870402    1.300666
     81          1           0       -9.365230    5.935629   -1.463180
     82          1           0       -9.913289    7.364287   -0.292784
     83          1           0      -12.654262    3.516295   -0.302827
     84          1           0      -12.029490    3.544412   -2.058408
     85          1           0      -13.336919    2.232451   -1.495438
     86          1           0      -12.664513   -1.356221   -1.119764
     87          1           0      -13.389352    0.332363   -1.321305
     88          1           0      -12.769693    0.430966   -3.817303
     89          1           0      -11.674893   -1.027589   -3.441101
     90          1           0      -13.441191   -1.193405   -3.496597
     91          1           0      -10.022853   -4.489463   -0.591170
     92          1           0       -8.973178   -4.871340   -1.938250
     93          1           0       -8.234244   -5.501129   -0.325536
     94          1           0       -3.695134   -3.429715   -0.504957
     95          1           0       -1.885391   -6.492939    2.081726
     96          1           0       -1.423707   -4.806030    2.992132
     97          1           0       -3.029049   -5.937938    3.313314
     98          1           0        2.712426   -2.122401   -1.580201
     99          1           0        2.569966   -0.451036   -2.050032
    100          1           0        4.156861   -1.098655    0.414798
    101          1           0        5.487369    1.688862   -2.292669
    102          1           0        5.285568    0.106698   -3.209562
    103          1           0        3.817857    0.781931   -2.739589
    104          1           0        6.287430    1.551733   -0.262966
    105          1           0        6.199827   -0.252304    0.603020
    106          1           0        7.359168   -1.535801   -1.059275
    107          1           0        7.827681    0.125065   -1.903231
    108          1           0        8.845098    0.810482    0.327078
    109          1           0        8.370901   -0.887611    0.902628
    110          1           0       10.154237   -0.081402   -1.436790
    111          1           0        9.281854   -2.325868   -1.489765
    112          1           0       11.123462   -2.342298   -1.369440
    113          1           0       10.224280   -2.830136   -0.003200
    114          1           0       11.142842    0.628745    0.544159
    115          1           0       10.814204   -0.842996    1.136424
    116          1           0       12.775738   -1.677316   -0.424023
    117          1           0       12.513732   -0.305392   -1.495656
    118          1           0       13.682014    1.145293    0.487098
    119          1           0       13.617577   -0.580563    1.432062
    120          1           0       15.069564    0.334193   -1.214362
    121          1           0       14.977639   -2.277503   -0.996901
    122          1           0       16.643328   -1.735119   -1.148080
    123          1           0       16.134049   -1.974922    0.530981
    124          1           0       15.760700    1.610248    0.288133
    125          1           0       16.313916   -0.010979    1.348124
    126          1           0       18.150553   -0.216696   -0.390136
    127          1           0       17.448075    1.073497   -1.393590
    128          1           0       18.201544    2.713689    0.641664
    129          1           0       18.610246    1.571871    1.650449
    130          1           0       20.316229    0.518651    0.005861
    131          1           0       19.861688    3.154788   -1.539157
    132          1           0       21.232974    1.971854   -1.736088
    133          1           0       19.487656    1.720193   -2.108150
    134          1           0       21.114015    2.002625    2.041652
    135          1           0       22.022460    2.348176    0.704629
    136          1           0       20.745714    3.522540    0.845086
    137          1           0       -7.094176    1.726113    0.337214
    138          1           0       -7.565705   -0.363364   -0.247775
 ---------------------------------------------------------------------

 SCF Done:  E(RB3LYP) =  -2733.06483712     A.U. after   16 cycles

 Excitation energies and oscillator strengths:

 Excited State   1:      Singlet-A      1.9902 eV  622.99 nm  f=0.1502  <S**2>=0.000
     235 -> 237       -0.21451
     235 -> 238        0.22865
     236 -> 237        0.60948
     236 -> 238        0.15968
 This state for optimization and/or second-order correction.
 Total Energy, E(TD-HF/TD-KS) =  -2732.99170012
 Copying the excited state density for this state as the 1-particle RhoCI density.

 The electronic state is 1-A.
 Alpha  occ. eigenvalues --  -19.17491 -19.16725 -19.14463 -19.13235 -19.10913
 Alpha  occ. eigenvalues --  -14.36872 -14.36214 -14.32113 -14.30165 -10.32872
 Alpha  occ. eigenvalues --  -10.30434 -10.28767 -10.27145 -10.24130 -10.24085
 Alpha  occ. eigenvalues --  -10.23921 -10.23824 -10.23581 -10.23163 -10.22974
 Alpha  occ. eigenvalues --  -10.22104 -10.21935 -10.21904 -10.21618 -10.21594
 Alpha  occ. eigenvalues --  -10.21458 -10.21279 -10.21278 -10.21244 -10.21208
 Alpha  occ. eigenvalues --  -10.20997 -10.20840 -10.20778 -10.20651 -10.20526
 Alpha  occ. eigenvalues --  -10.20424 -10.20216 -10.20115 -10.20082 -10.20063
 Alpha  occ. eigenvalues --  -10.20042 -10.19988 -10.19770 -10.19634 -10.19427
 Alpha  occ. eigenvalues --  -10.19308 -10.19257 -10.19087 -10.19048 -10.18801
 Alpha  occ. eigenvalues --  -10.18669 -10.18666 -10.18653 -10.18505 -10.18462
 Alpha  occ. eigenvalues --  -10.18334 -10.18170 -10.18061 -10.17960 -10.17914
 Alpha  occ. eigenvalues --  -10.17491 -10.17443 -10.17217 -10.16465  -1.07824
 Alpha  occ. eigenvalues --   -1.07203  -1.03614  -1.01001  -0.98912  -0.98687
 Alpha  occ. eigenvalues --   -0.96785  -0.93994  -0.93348  -0.84649  -0.82949
 Alpha  occ. eigenvalues --   -0.82335  -0.82032  -0.81667  -0.81314  -0.81081
 Alpha  occ. eigenvalues --   -0.80357  -0.80005  -0.79569  -0.78841  -0.76649
 Alpha  occ. eigenvalues --   -0.76522  -0.75978  -0.75301  -0.74617  -0.74059
 Alpha  occ. eigenvalues --   -0.73109  -0.72678  -0.72316  -0.72192  -0.70742
 Alpha  occ. eigenvalues --   -0.70229  -0.68803  -0.68453  -0.68395  -0.67651
 Alpha  occ. eigenvalues --   -0.67224  -0.66867  -0.66495  -0.66080  -0.64573
 Alpha  occ. eigenvalues --   -0.63988  -0.63280  -0.62651  -0.62217  -0.62022
 Alpha  occ. eigenvalues --   -0.61247  -0.58618  -0.58219  -0.57657  -0.57045
 Alpha  occ. eigenvalues --   -0.56837  -0.56055  -0.55907  -0.55316  -0.55293
 Alpha  occ. eigenvalues --   -0.54838  -0.54434  -0.54395  -0.53321  -0.52851
 Alpha  occ. eigenvalues --   -0.52625  -0.51924  -0.51240  -0.50673  -0.49680
 Alpha  occ. eigenvalues --   -0.49355  -0.49150  -0.49087  -0.48558  -0.48101
 Alpha  occ. eigenvalues --   -0.47966  -0.47818  -0.47783  -0.47230  -0.46839
 Alpha  occ. eigenvalues --   -0.46527  -0.46298  -0.46146  -0.46017  -0.45767
 Alpha  occ. eigenvalues --   -0.45511  -0.45244  -0.45041  -0.44961  -0.44921
 Alpha  occ. eigenvalues --   -0.44544  -0.44280  -0.44090  -0.44001  -0.43650
 Alpha  occ. eigenvalues --   -0.43555  -0.43178  -0.43038  -0.42683  -0.42203
 Alpha  occ. eigenvalues --   -0.42111  -0.41796  -0.41520  -0.41264  -0.41002
 Alpha  occ. eigenvalues --   -0.40696  -0.40625  -0.40400  -0.40305  -0.40174
 Alpha  occ. eigenvalues --   -0.39963  -0.39899  -0.39604  -0.39499  -0.39302
 Alpha  occ. eigenvalues --   -0.39252  -0.38827  -0.38819  -0.38806  -0.38321
 Alpha  occ. eigenvalues --   -0.38215  -0.38150  -0.38051  -0.37655  -0.37614
 Alpha  occ. eigenvalues --   -0.37508  -0.37478  -0.37455  -0.37134  -0.36890
 Alpha  occ. eigenvalues --   -0.36653  -0.36649  -0.36204  -0.35708  -0.35661
 Alpha  occ. eigenvalues --   -0.35621  -0.35512  -0.35415  -0.35232  -0.34739
 Alpha  occ. eigenvalues --   -0.34696  -0.34627  -0.34135  -0.33960  -0.33813
 Alpha  occ. eigenvalues --   -0.33630  -0.33137  -0.32631  -0.32616  -0.32343
 Alpha  occ. eigenvalues --   -0.32058  -0.31794  -0.31352  -0.30721  -0.30646
 Alpha  occ. eigenvalues --   -0.30430  -0.29993  -0.29866  -0.29749  -0.29628
 Alpha  occ. eigenvalues --   -0.29260  -0.28977  -0.28308  -0.27919  -0.27815
 Alpha  occ. eigenvalues --   -0.27706  -0.27256  -0.26712  -0.26503  -0.25918
 Alpha  occ. eigenvalues --   -0.25420  -0.24055  -0.24025  -0.22823  -0.20354
 Alpha  occ. eigenvalues --   -0.18941
 Alpha virt. eigenvalues --   -0.10932  -0.08147  -0.04723  -0.02631  -0.02265
 Alpha virt. eigenvalues --   -0.00450   0.00005   0.01017   0.01706   0.03367
 Alpha virt. eigenvalues --    0.03478   0.03903   0.04121   0.04266   0.04709

 Mulliken charges:
               1
     1  C    0.095152
     2  C   -0.078623
     3  C   -0.132029
     4  C   -0.095519
     5  N   -0.200569
     6  C   -0.065103
     7  C   -0.079507
     8  C   -0.109438
     9  C   -0.006933
    10  C    0.021397
    11  C    0.124303
    12  C   -0.016532
    13  C    0.256396
    14  O   -0.218911
    15  O   -0.359520
    16  N   -0.050164
    17  C    0.123457
    18  C   -0.148476
    19  C    0.035333
    20  C    0.103539
    21  C    0.061147
    22  C   -0.082884
    23  C   -0.034176
    24  N   -0.239058
    25  C    0.085782
    26  C   -0.099990
    27  C   -0.129992
    28  C    0.052976
    29  C    0.036170
    30  C    0.073903
    31  C   -0.015589
    32  N   -0.016738
    33  C    0.082115
    34  C   -0.151575
    35  C   -0.012391
    36  C    0.030391
    37  C    0.072463
    38  C    0.087029
    39  O   -0.158705
    40  C   -0.115756
    41  C    0.198309
    42  O   -0.226520
    43  O   -0.334797
    44  C    0.124143
    45  C    0.272979
    46  C   -0.100260
    47  C   -0.148583
    48  C    0.105046
    49  C    0.011008
    50  C   -0.030389
    51  C   -0.057155
    52  C   -0.056533
    53  C    0.117444
    54  C    0.122442
    55  C    0.034355
    56  C   -0.033205
    57  C    0.013511
    58  C   -0.004614
    59  C    0.025804
    60  C    0.009482
    61  C    0.056260
    62  C   -0.068603
    63  C    0.032963
    64  C    0.023606
    65  H   -0.013479
    66  H    0.028525
    67  H    0.023677
    68  H    0.032018
    69  H    0.031352
    70  H    0.031741
    71  H    0.036512
    72  H    0.048015
    73  H    0.040994
    74  H   -0.037935
    75  H    0.029137
    76  H    0.038360
    77  H    0.052831
    78  H    0.036722
    79  H    0.004566
    80  H    0.023208
    81  H    0.034091
    82  H    0.030037
    83  H    0.042057
    84  H    0.040000
    85  H    0.021061
    86  H    0.015363
    87  H   -0.017829
    88  H    0.025457
    89  H    0.014890
    90  H    0.015953
    91  H    0.029045
    92  H    0.020671
    93  H    0.081983
    94  H    0.089474
    95  H    0.061102
    96  H    0.072391
    97  H    0.067154
    98  H    0.039436
    99  H   -0.027792
   100  H   -0.012383
   101  H    0.011154
   102  H    0.024599
   103  H    0.016846
   104  H    0.027767
   105  H    0.011135
   106  H    0.034241
   107  H   -0.004543
   108  H   -0.003622
   109  H    0.000280
   110  H   -0.041545
   111  H   -0.016547
   112  H   -0.000975
   113  H    0.008876
   114  H   -0.095587
   115  H   -0.009268
   116  H    0.011177
   117  H   -0.000457
   118  H    0.002068
   119  H    0.017681
   120  H   -0.055313
   121  H    0.012094
   122  H    0.012601
   123  H    0.013582
   124  H   -0.004594
   125  H    0.002837
   126  H   -0.015505
   127  H   -0.008329
   128  H   -0.021601
   129  H   -0.023690
   130  H   -0.003963
   131  H   -0.014333
   132  H    0.013417
   133  H   -0.006432
   134  H    0.011628
   135  H   -0.008606
   136  H    0.018116
   137  H    0.106835
   138  H    0.119504
 Sum of Mulliken charges =   0.00000

 Dipole moment (field-independent basis, Debye):
    X=              1.2277    Y=              3.1629    Z=             -0.1488  Tot=              3.3960
 Quadrupole moment (field-independent basis, Debye-Ang):
   XX=           -349.5941   YY=           -381.1329   ZZ=           -396.7199
   XY=            -25.9012   XZ=              6.7370   YZ=              2.0625

 Normal termination of Gaussian 09 at Fri Aug  2 19:09:11 2019.
