 Gaussian 09, Revision D.01,
 Gaussian 09:  ES64L-G09RevD.01 24-Apr-2013

 --------------------------
 # td=(NStates=1) B3LYP/SVP
 --------------------------

 --
 TD
 --
 Symbolic Z-matrix:
 Charge =  0 Multiplicity = 1

                         Standard orientation:
 ---------------------------------------------------------------------
 Center     Atomic      Atomic             Coordinates (Angstroms)
 Number     Number       Type             X           Y           Z
 ---------------------------------------------------------------------
      1          6           0       -5.155576   -2.069405    0.442622
      2          6           0       -4.664135    2.670422    1.620523
      3          6           0       -9.133470    3.442014   -0.242570
      4          6           0       -9.788595   -1.274331   -0.978019
      5          7           0       -5.164995    0.337411    0.938928
      6          6           0       -4.455305   -0.850379    0.903669
      7          6           0       -3.029091   -0.707051    1.369448
      8          6           0       -3.103402    0.655234    2.031264
      9          6           0       -4.359019    1.191680    1.509347
     10          6           0       -3.190763    0.541782    3.540878
     11          6           0       -2.054292   -0.746732    0.210490
     12          6           0       -0.546740   -0.806084    0.725025
     13          6           0        0.352293   -1.074914   -0.444137
     14          8           0       -0.017810   -1.389739   -1.556587
     15          8           0        1.696469   -0.876507   -0.102794
     16          7           0       -7.015167    2.729642    0.643400
     17          6           0       -5.886372    3.340447    1.212929
     18          6           0       -6.054859    4.718276    1.175662
     19          6           0       -7.361527    4.979482    0.698928
     20          6           0       -7.920552    3.665550    0.263820
     21          6           0       -5.211422    5.846066    1.777130
     22          6           0       -7.906129    6.321690    0.439515
     23          6           0       -8.691591    6.757078   -0.538675
     24          7           0       -9.168380    0.925776   -0.524880
     25          6           0       -9.686291    2.141665   -0.655564
     26          6           0      -10.970374    2.120340   -1.291485
     27          6           0      -11.245513    0.769915   -1.351208
     28          6           0      -10.030204    0.033822   -0.877067
     29          6           0      -11.916683    3.251365   -1.508679
     30          6           0      -12.485120    0.064721   -1.803189
     31          6           0      -12.652940   -0.171288   -3.351521
     32          7           0       -7.468647   -1.236621   -0.174220
     33          6           0       -8.576467   -1.885413   -0.677424
     34          6           0       -8.246499   -3.322076   -0.847366
     35          6           0       -6.886152   -3.417886   -0.396428
     36          6           0       -6.427386   -2.110184    0.027768
     37          6           0       -9.061996   -4.409951   -1.438529
     38          6           0       -5.831702   -4.328736   -0.068737
     39          8           0       -5.775256   -5.547166   -0.321348
     40          6           0       -4.642690   -3.484007    0.504119
     41          6           0       -4.127743   -4.021035    1.770812
     42          8           0       -4.449108   -3.578267    2.829979
     43          8           0       -3.262785   -4.957673    1.521330
     44          6           0       -2.661312   -5.617139    2.674771
     45          6           0        2.699165   -1.251859   -1.041972
     46          6           0        3.945658   -0.771998   -0.447038
     47          6           0        4.922459    0.002478   -1.020195
     48          6           0        4.754048    0.776055   -2.296503
     49          6           0        6.226358    0.317118   -0.214400
     50          6           0        7.404671   -0.296018   -0.934817
     51          6           0        8.726114   -0.363179   -0.053279
     52          6           0        9.966427   -0.866541   -0.807952
     53          6           0        9.939172   -2.331546   -1.017854
     54          6           0       11.279615   -0.433963    0.008057
     55          6           0       12.662108   -0.602887   -0.655453
     56          6           0       13.815312   -0.096126    0.150529
     57          6           0       15.299601   -0.171753   -0.427456
     58          6           0       15.613820   -1.716495   -0.521329
     59          6           0       16.221759    0.647090    0.418427
     60          6           0       17.647748    0.668001   -0.133366
     61          6           0       18.455280    1.795453    0.446749
     62          6           0       19.905587    1.788515   -0.012228
     63          6           0       20.124481    2.291851   -1.431473
     64          6           0       20.812026    2.650503    0.977311
     65          1           0       -3.996811    3.163136    2.223005
     66          1           0      -10.004225    4.198554   -0.413578
     67          1           0      -10.663001   -1.785283   -1.402937
     68          1           0       -2.952076   -1.547339    2.162292
     69          1           0       -2.238742    1.371409    1.815189
     70          1           0       -2.229866    0.036482    3.943326
     71          1           0       -3.031491    1.649604    4.077151
     72          1           0       -3.982795    0.008584    3.901124
     73          1           0       -2.231345   -1.794635   -0.257903
     74          1           0       -2.238119    0.132372   -0.511902
     75          1           0       -0.318619    0.223703    1.166480
     76          1           0       -0.707563   -1.883562    1.210268
     77          1           0       -4.070896    5.996278    1.298863
     78          1           0       -5.762779    6.728646    2.032553
     79          1           0       -4.649368    5.768998    2.710773
     80          1           0       -7.356297    7.189141    1.033428
     81          1           0       -9.243731    6.039570   -1.266723
     82          1           0       -8.906511    7.915272   -0.462054
     83          1           0      -12.233310    3.701534   -0.560033
     84          1           0      -11.319898    4.164958   -2.295094
     85          1           0      -12.866736    2.961107   -1.860216
     86          1           0      -12.611184   -0.773871   -1.333671
     87          1           0      -13.303134    0.622821   -1.511334
     88          1           0      -12.316523    0.999851   -3.582343
     89          1           0      -11.856599   -0.879413   -3.561689
     90          1           0      -13.534139   -0.670618   -3.844702
     91          1           0      -10.016614   -4.615858   -0.850068
     92          1           0       -9.298854   -4.301490   -2.615840
     93          1           0       -8.326957   -5.188146   -1.215618
     94          1           0       -3.892740   -3.445997   -0.341858
     95          1           0       -2.213191   -6.574188    2.083547
     96          1           0       -1.965723   -4.777374    3.163278
     97          1           0       -3.204650   -5.785135    3.547157
     98          1           0        2.873534   -2.482728   -1.296996
     99          1           0        2.542603   -0.662951   -1.945313
    100          1           0        4.228756   -1.173009    0.512412
    101          1           0        4.927331    1.820108   -2.001753
    102          1           0        5.242987    0.402076   -3.208979
    103          1           0        3.690375    0.821444   -2.691423
    104          1           0        6.434272    1.398765    0.065864
    105          1           0        6.354406   -0.216739    0.891986
    106          1           0        7.140438   -1.422380   -1.255925
    107          1           0        7.614027    0.317650   -1.848798
    108          1           0        9.015812    0.705884    0.471992
    109          1           0        8.664032   -1.003649    0.908529
    110          1           0       10.093980   -0.313860   -1.712458
    111          1           0        9.162710   -2.598626   -1.667105
    112          1           0       10.742403   -2.638798   -1.615584
    113          1           0        9.956915   -3.051021    0.003426
    114          1           0       11.168913    0.665281    0.435650
    115          1           0       11.215678   -0.828974    0.989091
    116          1           0       12.858346   -1.560424   -0.807094
    117          1           0       12.655334   -0.037565   -1.790876
    118          1           0       13.339206    0.886521    0.350066
    119          1           0       13.784785   -0.594433    1.096025
    120          1           0       15.058888    0.234778   -1.453174
    121          1           0       14.780697   -2.348585   -0.988769
    122          1           0       16.633061   -1.976263   -0.920877
    123          1           0       15.368232   -2.054850    0.616584
    124          1           0       15.929711    1.661070    0.647639
    125          1           0       16.405369    0.379658    1.573390
    126          1           0       18.180259   -0.299648    0.003947
    127          1           0       17.442002    0.755878   -1.388358
    128          1           0       17.906165    2.818649    0.369553
    129          1           0       18.616328    1.723383    1.472495
    130          1           0       20.214070    0.764515    0.002968
    131          1           0       19.299450    3.203876   -1.726439
    132          1           0       21.110122    2.349590   -1.731314
    133          1           0       19.587775    1.605631   -2.167727
    134          1           0       20.740649    2.200846    1.968361
    135          1           0       21.822236    2.569247    0.761704
    136          1           0       20.485322    3.661968    0.753611
    137          1           0       -7.069335    1.735112    0.451304
    138          1           0       -7.355853   -0.263002   -0.239035
 ---------------------------------------------------------------------

 SCF Done:  E(RB3LYP) =  -2733.04151494     A.U. after   17 cycles

 Excitation energies and oscillator strengths:

 Excited State   1:      Singlet-A      2.0036 eV  618.79 nm  f=0.1443  <S**2>=0.000
     235 -> 238        0.33643
     236 -> 237        0.61407
 This state for optimization and/or second-order correction.
 Total Energy, E(TD-HF/TD-KS) =  -2732.96788235
 Copying the excited state density for this state as the 1-particle RhoCI density.

 The electronic state is 1-A.
 Alpha  occ. eigenvalues --  -19.19120 -19.17710 -19.13363 -19.12510 -19.11502
 Alpha  occ. eigenvalues --  -14.36962 -14.36805 -14.33063 -14.28672 -10.32229
 Alpha  occ. eigenvalues --  -10.31495 -10.27374 -10.26827 -10.25697 -10.24460
 Alpha  occ. eigenvalues --  -10.24032 -10.23604 -10.23592 -10.23389 -10.22865
 Alpha  occ. eigenvalues --  -10.22852 -10.22079 -10.21610 -10.21145 -10.21124
 Alpha  occ. eigenvalues --  -10.21081 -10.21062 -10.20989 -10.20967 -10.20921
 Alpha  occ. eigenvalues --  -10.20895 -10.20748 -10.20741 -10.20596 -10.20569
 Alpha  occ. eigenvalues --  -10.20424 -10.20393 -10.20270 -10.20128 -10.20082
 Alpha  occ. eigenvalues --  -10.19988 -10.19972 -10.19964 -10.19877 -10.19755
 Alpha  occ. eigenvalues --  -10.19645 -10.19441 -10.19376 -10.19361 -10.19018
 Alpha  occ. eigenvalues --  -10.18886 -10.18688 -10.18488 -10.18352 -10.18336
 Alpha  occ. eigenvalues --  -10.18306 -10.18218 -10.18186 -10.18026 -10.17945
 Alpha  occ. eigenvalues --  -10.17693 -10.17293 -10.16981 -10.16954  -1.11712
 Alpha  occ. eigenvalues --   -1.08470  -1.02286  -1.01073  -1.00545  -0.98192
 Alpha  occ. eigenvalues --   -0.97905  -0.96391  -0.95273  -0.85907  -0.82429
 Alpha  occ. eigenvalues --   -0.82081  -0.81726  -0.81647  -0.80956  -0.80895
 Alpha  occ. eigenvalues --   -0.79982  -0.79668  -0.79643  -0.79149  -0.78313
 Alpha  occ. eigenvalues --   -0.76854  -0.76363  -0.75988  -0.75197  -0.74542
 Alpha  occ. eigenvalues --   -0.74437  -0.72876  -0.72241  -0.71964  -0.70629
 Alpha  occ. eigenvalues --   -0.70512  -0.69729  -0.68560  -0.67808  -0.67594
 Alpha  occ. eigenvalues --   -0.67264  -0.66907  -0.66358  -0.65871  -0.64980
 Alpha  occ. eigenvalues --   -0.64667  -0.62851  -0.62476  -0.61823  -0.61614
 Alpha  occ. eigenvalues --   -0.60840  -0.58787  -0.58357  -0.57890  -0.57698
 Alpha  occ. eigenvalues --   -0.56835  -0.56628  -0.56370  -0.55958  -0.55534
 Alpha  occ. eigenvalues --   -0.55453  -0.55349  -0.54686  -0.53797  -0.53140
 Alpha  occ. eigenvalues --   -0.52791  -0.52496  -0.52151  -0.51653  -0.50921
 Alpha  occ. eigenvalues --   -0.50598  -0.49590  -0.49339  -0.48658  -0.48328
 Alpha  occ. eigenvalues --   -0.48123  -0.48030  -0.47470  -0.47299  -0.46974
 Alpha  occ. eigenvalues --   -0.46865  -0.46760  -0.46186  -0.46097  -0.45938
 Alpha  occ. eigenvalues --   -0.45543  -0.45227  -0.44934  -0.44779  -0.44484
 Alpha  occ. eigenvalues --   -0.44240  -0.44092  -0.44020  -0.43760  -0.43679
 Alpha  occ. eigenvalues --   -0.43557  -0.43296  -0.43173  -0.42873  -0.42725
 Alpha  occ. eigenvalues --   -0.42578  -0.42167  -0.42041  -0.41917  -0.41558
 Alpha  occ. eigenvalues --   -0.41361  -0.40988  -0.40636  -0.40524  -0.40403
 Alpha  occ. eigenvalues --   -0.40176  -0.40077  -0.40008  -0.39855  -0.39528
 Alpha  occ. eigenvalues --   -0.39234  -0.39028  -0.38715  -0.38270  -0.38128
 Alpha  occ. eigenvalues --   -0.37928  -0.37737  -0.37625  -0.37499  -0.37388
 Alpha  occ. eigenvalues --   -0.37270  -0.37169  -0.37016  -0.36919  -0.36378
 Alpha  occ. eigenvalues --   -0.36266  -0.36206  -0.35969  -0.35679  -0.35619
 Alpha  occ. eigenvalues --   -0.35231  -0.35109  -0.34981  -0.34805  -0.34775
 Alpha  occ. eigenvalues --   -0.34726  -0.34173  -0.33939  -0.33872  -0.33460
 Alpha  occ. eigenvalues --   -0.33406  -0.32924  -0.32592  -0.32569  -0.32205
 Alpha  occ. eigenvalues --   -0.32133  -0.32009  -0.31740  -0.31675  -0.31405
 Alpha  occ. eigenvalues --   -0.31281  -0.31045  -0.30995  -0.30573  -0.30526
 Alpha  occ. eigenvalues --   -0.29994  -0.29090  -0.28848  -0.28778  -0.28714
 Alpha  occ. eigenvalues --   -0.28312  -0.28251  -0.26220  -0.25806  -0.25257
 Alpha  occ. eigenvalues --   -0.24638  -0.24616  -0.23922  -0.22672  -0.19828
 Alpha  occ. eigenvalues --   -0.18615
 Alpha virt. eigenvalues --   -0.10015  -0.08301  -0.05297  -0.01444  -0.01252
 Alpha virt. eigenvalues --   -0.00274   0.00263   0.00639   0.01624   0.02058
 Alpha virt. eigenvalues --    0.03238   0.03803   0.04219   0.04505   0.04793

 Mulliken charges:
               1
     1  C   -0.056604
     2  C   -0.018692
     3  C   -0.144269
     4  C   -0.094446
     5  N   -0.141067
     6  C   -0.105980
     7  C    0.002009
     8  C   -0.063418
     9  C   -0.035219
    10  C    0.046413
    11  C    0.005893
    12  C    0.032763
    13  C    0.182332
    14  O   -0.221312
    15  O   -0.341038
    16  N   -0.064400
    17  C    0.121527
    18  C   -0.049131
    19  C    0.004558
    20  C    0.170439
    21  C    0.040599
    22  C   -0.053051
    23  C   -0.077984
    24  N   -0.144405
    25  C   -0.025864
    26  C   -0.127480
    27  C   -0.124341
    28  C    0.011133
    29  C    0.048869
    30  C    0.177688
    31  C   -0.042623
    32  N   -0.002368
    33  C    0.116437
    34  C   -0.134568
    35  C    0.018488
    36  C    0.075070
    37  C    0.042485
    38  C    0.017245
    39  O   -0.210989
    40  C    0.004128
    41  C    0.185969
    42  O   -0.216691
    43  O   -0.262454
    44  C    0.154447
    45  C    0.291782
    46  C   -0.095734
    47  C   -0.127807
    48  C    0.056419
    49  C    0.008527
    50  C   -0.009971
    51  C   -0.047745
    52  C   -0.016350
    53  C    0.086473
    54  C   -0.032451
    55  C    0.112686
    56  C   -0.037720
    57  C   -0.006637
    58  C   -0.029902
    59  C    0.065807
    60  C   -0.040073
    61  C    0.068880
    62  C   -0.109537
    63  C    0.016750
    64  C    0.074965
    65  H   -0.063244
    66  H    0.016663
    67  H   -0.022864
    68  H    0.028089
    69  H    0.005640
    70  H    0.016472
    71  H    0.025997
    72  H    0.016897
    73  H    0.030423
    74  H    0.038321
    75  H    0.060452
    76  H    0.066873
    77  H    0.026350
    78  H    0.016650
    79  H    0.000663
    80  H    0.020253
    81  H    0.048492
    82  H    0.044527
    83  H    0.031708
    84  H    0.046365
    85  H   -0.003642
    86  H   -0.063228
    87  H   -0.032749
    88  H    0.041783
    89  H   -0.001257
    90  H    0.032378
    91  H    0.039817
    92  H    0.062212
    93  H    0.043308
    94  H    0.068900
    95  H    0.085982
    96  H    0.029389
    97  H    0.029002
    98  H    0.055059
    99  H   -0.002142
   100  H   -0.018611
   101  H    0.024970
   102  H    0.036819
   103  H    0.006628
   104  H    0.019862
   105  H    0.012193
   106  H    0.028996
   107  H    0.010424
   108  H    0.002803
   109  H    0.003242
   110  H   -0.020823
   111  H   -0.020226
   112  H   -0.018566
   113  H    0.025477
   114  H   -0.016379
   115  H   -0.035426
   116  H   -0.056231
   117  H    0.001125
   118  H   -0.013262
   119  H   -0.024038
   120  H    0.006798
   121  H    0.025341
   122  H    0.039309
   123  H    0.012060
   124  H   -0.019297
   125  H   -0.008286
   126  H    0.010076
   127  H    0.011429
   128  H    0.000492
   129  H   -0.039660
   130  H   -0.022098
   131  H    0.010284
   132  H    0.001935
   133  H   -0.002932
   134  H    0.005196
   135  H   -0.019846
   136  H    0.014690
   137  H    0.137042
   138  H    0.120498
 Sum of Mulliken charges =   0.00000

 Dipole moment (field-independent basis, Debye):
    X=              3.0367    Y=              3.0158    Z=              1.8200  Tot=              4.6507
 Quadrupole moment (field-independent basis, Debye-Ang):
   XX=           -370.6711   YY=           -387.5829   ZZ=           -395.8396
   XY=            -29.6548   XZ=              5.8961   YZ=             -0.1661

 Normal termination of Gaussian 09 at Fri Jul 26 13:36:54 2019.
