 Gaussian 09, Revision D.01,
 Gaussian 09:  ES64L-G09RevD.01 24-Apr-2013

 --------------------------
 # td=(NStates=1) B3LYP/SVP
 --------------------------

 --
 TD
 --
 Symbolic Z-matrix:
 Charge =  0 Multiplicity = 1

                         Standard orientation:
 ---------------------------------------------------------------------
 Center     Atomic      Atomic             Coordinates (Angstroms)
 Number     Number       Type             X           Y           Z
 ---------------------------------------------------------------------
      1          6           0       -5.057957   -1.887990    0.467963
      2          6           0       -4.743398    2.802282    1.309487
      3          6           0       -9.335462    3.261279   -0.310108
      4          6           0       -9.875714   -1.532040   -0.760936
      5          7           0       -5.166283    0.464246    0.704149
      6          6           0       -4.469192   -0.659261    0.722494
      7          6           0       -3.001586   -0.431094    1.148189
      8          6           0       -3.041816    1.010670    1.711501
      9          6           0       -4.434994    1.485214    1.195925
     10          6           0       -2.766170    1.069227    3.260310
     11          6           0       -1.981281   -0.766419    0.066462
     12          6           0       -0.527813   -0.648688    0.548783
     13          6           0        0.346941   -0.967666   -0.704049
     14          8           0        0.074912   -1.475318   -1.721869
     15          8           0        1.608661   -0.567672   -0.293182
     16          7           0       -7.042750    2.802695    0.423223
     17          6           0       -5.967711    3.454179    0.987632
     18          6           0       -6.381812    4.819877    1.030025
     19          6           0       -7.614730    5.019588    0.599252
     20          6           0       -8.139765    3.636231    0.195013
     21          6           0       -5.439913    5.869410    1.476799
     22          6           0       -8.361357    6.289201    0.431296
     23          6           0       -9.075268    6.679351   -0.579241
     24          7           0       -9.305602    0.842334   -0.388945
     25          6           0       -9.890891    2.011178   -0.526791
     26          6           0      -11.270412    1.816946   -0.996648
     27          6           0      -11.399993    0.512869   -1.166857
     28          6           0      -10.134044   -0.231279   -0.752129
     29          6           0      -12.278032    2.930935   -1.197813
     30          6           0      -12.639274   -0.284986   -1.609740
     31          6           0      -12.639514   -0.617231   -3.111266
     32          7           0       -7.503547   -1.278304   -0.209927
     33          6           0       -8.631532   -2.106251   -0.546933
     34          6           0       -8.191677   -3.457891   -0.557483
     35          6           0       -6.909050   -3.432381   -0.139397
     36          6           0       -6.423244   -2.089007   -0.023193
     37          6           0       -8.943636   -4.738673   -0.989453
     38          6           0       -5.701486   -4.285285    0.091035
     39          8           0       -5.614183   -5.499599    0.126731
     40          6           0       -4.504596   -3.319676    0.496022
     41          6           0       -3.783725   -3.771851    1.778952
     42          8           0       -3.902416   -3.251375    2.926002
     43          8           0       -3.098339   -4.857776    1.612320
     44          6           0       -2.443157   -5.404250    2.707055
     45          6           0        2.660340   -1.002306   -1.238211
     46          6           0        4.039168   -0.758956   -0.641630
     47          6           0        4.986541    0.056780   -1.151457
     48          6           0        5.052925    0.637116   -2.526500
     49          6           0        6.272241    0.162395   -0.390836
     50          6           0        7.506125   -0.559317   -0.882288
     51          6           0        8.759783   -0.412797   -0.105088
     52          6           0       10.114643   -0.897494   -0.640223
     53          6           0       10.086742   -2.505184   -0.770174
     54          6           0       11.236681   -0.295371    0.237196
     55          6           0       12.573533   -0.743888   -0.549493
     56          6           0       13.861618   -0.127552    0.261168
     57          6           0       15.181449   -0.141983   -0.429818
     58          6           0       15.566435   -1.705910   -0.823745
     59          6           0       16.341319    0.570130    0.360909
     60          6           0       17.593962    0.883573   -0.387148
     61          6           0       18.505070    1.727150    0.601947
     62          6           0       20.058643    1.824179    0.194072
     63          6           0       20.191681    2.493757   -1.198537
     64          6           0       20.897180    2.392507    1.396085
     65          1           0       -3.978918    3.518613    1.722675
     66          1           0       -9.923756    4.335986   -0.485463
     67          1           0      -10.632845   -2.101353   -0.905018
     68          1           0       -2.619118   -1.049061    1.922253
     69          1           0       -2.362894    1.606172    1.010581
     70          1           0       -1.733934    0.209789    3.413848
     71          1           0       -2.635969    2.079575    3.538798
     72          1           0       -3.856483    0.666018    3.753454
     73          1           0       -2.135641   -1.622855   -0.432137
     74          1           0       -2.244955   -0.028336   -0.742542
     75          1           0       -0.218767    0.379399    0.986493
     76          1           0       -0.278627   -1.344833    1.199940
     77          1           0       -4.436658    5.784137    0.873824
     78          1           0       -5.998575    6.800409    1.508481
     79          1           0       -5.276895    5.880608    2.564101
     80          1           0       -8.112130    6.799647    1.466045
     81          1           0       -9.278143    5.984366   -1.572437
     82          1           0       -9.623260    7.690587   -0.747801
     83          1           0      -12.237432    3.536370   -0.335748
     84          1           0      -12.016785    3.654791   -2.058136
     85          1           0      -13.429705    2.484426   -1.250108
     86          1           0      -12.825953   -1.100276   -0.947644
     87          1           0      -13.411142    0.433672   -1.286389
     88          1           0      -12.697697    0.409381   -3.769427
     89          1           0      -11.797394   -1.218409   -3.253984
     90          1           0      -13.686142   -1.284822   -3.158064
     91          1           0       -9.951163   -5.042855   -0.394210
     92          1           0       -9.073097   -4.505594   -2.112468
     93          1           0       -8.366646   -5.553596   -0.798927
     94          1           0       -3.865979   -3.462006   -0.191575
     95          1           0       -2.182813   -6.399656    2.155795
     96          1           0       -1.421667   -4.955979    3.156138
     97          1           0       -2.939311   -5.586884    3.786142
     98          1           0        2.514908   -2.176942   -1.438283
     99          1           0        2.480226   -0.481317   -2.198211
    100          1           0        4.352514   -1.211662    0.313569
    101          1           0        5.163882    1.701381   -2.523486
    102          1           0        5.798912    0.245444   -3.394118
    103          1           0        4.091559    0.518179   -2.900425
    104          1           0        6.524909    1.158018   -0.273889
    105          1           0        6.040443   -0.357719    0.543868
    106          1           0        7.298271   -1.591931   -0.989478
    107          1           0        7.775934   -0.456362   -2.051009
    108          1           0        8.673155    0.621089    0.079231
    109          1           0        8.794135   -0.915679    0.856650
    110          1           0       10.234242   -0.470437   -1.544574
    111          1           0        9.530939   -2.836945   -1.772207
    112          1           0       11.201751   -2.734444   -1.152091
    113          1           0        9.930521   -3.031567   -0.000623
    114          1           0       10.799816    1.006763    0.103420
    115          1           0       11.033443   -0.488709    1.413656
    116          1           0       12.827580   -1.822332   -0.568924
    117          1           0       12.738729   -0.177007   -1.496981
    118          1           0       13.559851    0.734997    0.326057
    119          1           0       13.893627   -0.597916    1.300770
    120          1           0       15.112946    0.497325   -1.457517
    121          1           0       14.826802   -1.817876   -1.565418
    122          1           0       16.520048   -1.544236   -1.362278
    123          1           0       15.485869   -2.204300    0.204651
    124          1           0       15.792687    1.645597    0.408575
    125          1           0       16.611587   -0.004969    1.216367
    126          1           0       18.023289   -0.103707   -0.800045
    127          1           0       17.330012    1.249984   -1.353999
    128          1           0       18.204478    2.750544    0.890827
    129          1           0       18.480217    1.317916    1.706231
    130          1           0       20.356879    0.703712   -0.053792
    131          1           0       19.764730    3.575099   -1.002127
    132          1           0       21.224829    2.546464   -1.523400
    133          1           0       19.396017    2.164593   -1.920427
    134          1           0       21.060921    1.668173    2.240996
    135          1           0       21.801080    2.677881    1.028398
    136          1           0       20.410027    3.445129    1.786054
    137          1           0       -7.085739    1.686071    0.060598
    138          1           0       -7.744258   -0.288700   -0.062973
 ---------------------------------------------------------------------

 SCF Done:  E(RB3LYP) =  -2732.92775419     A.U. after   17 cycles

 Excitation energies and oscillator strengths:

 Excited State   1:      Singlet-A      2.1613 eV  573.65 nm  f=0.2063  <S**2>=0.000
     235 -> 237       -0.16652
     235 -> 238       -0.28542
     236 -> 237        0.61507
     236 -> 238       -0.10704
 This state for optimization and/or second-order correction.
 Total Energy, E(TD-HF/TD-KS) =  -2732.84832689
 Copying the excited state density for this state as the 1-particle RhoCI density.

 The electronic state is 1-A.
 Alpha  occ. eigenvalues --  -19.19552 -19.16989 -19.13967 -19.12284 -19.11225
 Alpha  occ. eigenvalues --  -14.37334 -14.36451 -14.31931 -14.30116 -10.31574
 Alpha  occ. eigenvalues --  -10.31437 -10.28131 -10.26493 -10.25706 -10.24241
 Alpha  occ. eigenvalues --  -10.23795 -10.23636 -10.22896 -10.22685 -10.22617
 Alpha  occ. eigenvalues --  -10.22306 -10.22290 -10.22232 -10.22185 -10.21589
 Alpha  occ. eigenvalues --  -10.21012 -10.21004 -10.20897 -10.20505 -10.20487
 Alpha  occ. eigenvalues --  -10.20449 -10.20412 -10.20289 -10.20263 -10.20213
 Alpha  occ. eigenvalues --  -10.20147 -10.20096 -10.20054 -10.20034 -10.20026
 Alpha  occ. eigenvalues --  -10.19880 -10.19788 -10.19639 -10.19403 -10.19368
 Alpha  occ. eigenvalues --  -10.18944 -10.18828 -10.18821 -10.18637 -10.18622
 Alpha  occ. eigenvalues --  -10.18602 -10.18533 -10.18491 -10.18408 -10.18390
 Alpha  occ. eigenvalues --  -10.18375 -10.18352 -10.18154 -10.18040 -10.17946
 Alpha  occ. eigenvalues --  -10.17863 -10.17818 -10.16725 -10.16258  -1.12144
 Alpha  occ. eigenvalues --   -1.09521  -1.02430  -1.01604  -0.97796  -0.97188
 Alpha  occ. eigenvalues --   -0.96955  -0.94732  -0.93500  -0.84109  -0.83119
 Alpha  occ. eigenvalues --   -0.82587  -0.81404  -0.81382  -0.81154  -0.80446
 Alpha  occ. eigenvalues --   -0.80277  -0.80087  -0.78949  -0.78457  -0.77846
 Alpha  occ. eigenvalues --   -0.76750  -0.76395  -0.75803  -0.74864  -0.74553
 Alpha  occ. eigenvalues --   -0.74264  -0.72879  -0.72062  -0.70739  -0.70442
 Alpha  occ. eigenvalues --   -0.69921  -0.69407  -0.68887  -0.68328  -0.67363
 Alpha  occ. eigenvalues --   -0.67357  -0.66916  -0.66245  -0.65824  -0.64891
 Alpha  occ. eigenvalues --   -0.64389  -0.62807  -0.62408  -0.61865  -0.61341
 Alpha  occ. eigenvalues --   -0.61064  -0.59079  -0.58959  -0.57917  -0.57193
 Alpha  occ. eigenvalues --   -0.56946  -0.56367  -0.55931  -0.55398  -0.54829
 Alpha  occ. eigenvalues --   -0.54654  -0.54436  -0.53306  -0.53195  -0.53010
 Alpha  occ. eigenvalues --   -0.52480  -0.52309  -0.51368  -0.50971  -0.50621
 Alpha  occ. eigenvalues --   -0.49807  -0.49653  -0.49118  -0.48929  -0.48742
 Alpha  occ. eigenvalues --   -0.48184  -0.48128  -0.47740  -0.47701  -0.47354
 Alpha  occ. eigenvalues --   -0.46998  -0.46279  -0.45993  -0.45864  -0.45500
 Alpha  occ. eigenvalues --   -0.45156  -0.45115  -0.44985  -0.44586  -0.44226
 Alpha  occ. eigenvalues --   -0.43903  -0.43844  -0.43663  -0.43605  -0.43524
 Alpha  occ. eigenvalues --   -0.43213  -0.43047  -0.42767  -0.42657  -0.42630
 Alpha  occ. eigenvalues --   -0.42448  -0.42222  -0.41942  -0.41696  -0.41483
 Alpha  occ. eigenvalues --   -0.41281  -0.41005  -0.40929  -0.40661  -0.40379
 Alpha  occ. eigenvalues --   -0.40182  -0.39959  -0.39335  -0.39168  -0.39010
 Alpha  occ. eigenvalues --   -0.38759  -0.38612  -0.38562  -0.38207  -0.38195
 Alpha  occ. eigenvalues --   -0.37971  -0.37893  -0.37779  -0.37746  -0.37653
 Alpha  occ. eigenvalues --   -0.37447  -0.37209  -0.37189  -0.37156  -0.36928
 Alpha  occ. eigenvalues --   -0.36718  -0.36533  -0.36408  -0.36370  -0.36159
 Alpha  occ. eigenvalues --   -0.35948  -0.35808  -0.35066  -0.34948  -0.34826
 Alpha  occ. eigenvalues --   -0.34633  -0.34195  -0.33993  -0.33914  -0.33476
 Alpha  occ. eigenvalues --   -0.33172  -0.32884  -0.32567  -0.32186  -0.31754
 Alpha  occ. eigenvalues --   -0.31534  -0.31448  -0.31357  -0.31339  -0.31104
 Alpha  occ. eigenvalues --   -0.30909  -0.30648  -0.30468  -0.29617  -0.29582
 Alpha  occ. eigenvalues --   -0.29555  -0.29105  -0.28624  -0.28282  -0.27189
 Alpha  occ. eigenvalues --   -0.26994  -0.26657  -0.26478  -0.26170  -0.25506
 Alpha  occ. eigenvalues --   -0.25197  -0.25105  -0.24895  -0.23222  -0.20227
 Alpha  occ. eigenvalues --   -0.19009
 Alpha virt. eigenvalues --   -0.10137  -0.07327  -0.03723  -0.01786  -0.01026
 Alpha virt. eigenvalues --   -0.00493   0.00892   0.01058   0.02106   0.02808
 Alpha virt. eigenvalues --    0.03089   0.03689   0.03970   0.04106   0.04847

 Mulliken charges:
               1
     1  C    0.075302
     2  C   -0.076448
     3  C   -0.124152
     4  C    0.006113
     5  N   -0.135752
     6  C   -0.076313
     7  C    0.006055
     8  C   -0.049428
     9  C   -0.001379
    10  C    0.006284
    11  C    0.072809
    12  C    0.079054
    13  C    0.163099
    14  O   -0.176825
    15  O   -0.352352
    16  N   -0.179582
    17  C    0.100372
    18  C   -0.131780
    19  C   -0.005888
    20  C    0.022548
    21  C    0.112630
    22  C    0.003141
    23  C   -0.109193
    24  N   -0.233837
    25  C    0.089483
    26  C   -0.136143
    27  C   -0.120997
    28  C    0.090522
    29  C    0.085696
    30  C    0.069914
    31  C   -0.001442
    32  N   -0.080114
    33  C    0.072932
    34  C   -0.153779
    35  C   -0.006035
    36  C    0.038184
    37  C    0.096373
    38  C    0.068140
    39  O   -0.169717
    40  C    0.110261
    41  C    0.172389
    42  O   -0.284293
    43  O   -0.199280
    44  C    0.076244
    45  C    0.230351
    46  C   -0.054952
    47  C   -0.175352
    48  C    0.110412
    49  C    0.146404
    50  C    0.030893
    51  C    0.059741
    52  C    0.000174
    53  C    0.041908
    54  C   -0.093672
    55  C   -0.021205
    56  C    0.149856
    57  C   -0.187731
    58  C    0.042871
    59  C    0.018148
    60  C    0.058714
    61  C    0.003009
    62  C   -0.140874
    63  C    0.017989
    64  C    0.049351
    65  H   -0.012766
    66  H    0.019289
    67  H   -0.123068
    68  H   -0.023861
    69  H    0.000256
    70  H    0.056546
    71  H    0.018038
    72  H    0.064672
    73  H   -0.028877
    74  H   -0.008357
    75  H    0.050978
    76  H   -0.015309
    77  H    0.058801
    78  H   -0.015932
    79  H    0.012919
    80  H    0.043229
    81  H    0.066462
    82  H    0.055835
    83  H    0.006351
    84  H    0.029876
    85  H    0.036247
    86  H   -0.006523
    87  H   -0.020926
    88  H    0.049075
    89  H    0.010244
    90  H    0.030201
    91  H    0.044635
    92  H    0.050458
    93  H    0.004466
    94  H   -0.041507
    95  H    0.051727
    96  H    0.040125
    97  H    0.062813
    98  H    0.039855
    99  H    0.027716
   100  H   -0.006307
   101  H   -0.000973
   102  H    0.057062
   103  H   -0.042054
   104  H   -0.022190
   105  H   -0.016019
   106  H   -0.043171
   107  H   -0.016728
   108  H   -0.037680
   109  H   -0.024295
   110  H   -0.051103
   111  H    0.027004
   112  H    0.005305
   113  H   -0.032824
   114  H    0.020197
   115  H    0.036983
   116  H    0.050581
   117  H    0.019039
   118  H   -0.096562
   119  H   -0.002766
   120  H   -0.011109
   121  H    0.004675
   122  H    0.006651
   123  H    0.040141
   124  H    0.013904
   125  H   -0.004418
   126  H   -0.005427
   127  H   -0.023608
   128  H   -0.005609
   129  H    0.000786
   130  H    0.004982
   131  H   -0.005583
   132  H    0.022855
   133  H    0.021064
   134  H    0.030680
   135  H   -0.020882
   136  H    0.017312
   137  H    0.226089
   138  H    0.131461
 Sum of Mulliken charges =   0.00000

 Dipole moment (field-independent basis, Debye):
    X=              1.9843    Y=              4.9782    Z=             -0.4271  Tot=              5.3761
 Quadrupole moment (field-independent basis, Debye-Ang):
   XX=           -355.2657   YY=           -379.7751   ZZ=           -397.0373
   XY=            -32.2225   XZ=              7.1540   YZ=             -0.1887

 Normal termination of Gaussian 09 at Sun Aug  4 14:14:55 2019.
