 Gaussian 09, Revision D.01,
 Gaussian 09:  ES64L-G09RevD.01 24-Apr-2013

 --------------------------
 # td=(NStates=1) B3LYP/SVP
 --------------------------

 --
 TD
 --
 Symbolic Z-matrix:
 Charge =  0 Multiplicity = 1

                         Standard orientation:
 ---------------------------------------------------------------------
 Center     Atomic      Atomic             Coordinates (Angstroms)
 Number     Number       Type             X           Y           Z
 ---------------------------------------------------------------------
      1          6           0       -5.059669   -1.910601    0.369040
      2          6           0       -4.832066    2.762945    1.254344
      3          6           0       -9.517548    3.230195   -0.139626
      4          6           0       -9.814761   -1.584107   -0.854940
      5          7           0       -5.096227    0.461584    0.702997
      6          6           0       -4.426172   -0.627286    0.725565
      7          6           0       -2.979430   -0.534020    1.237390
      8          6           0       -3.076678    1.006193    1.736585
      9          6           0       -4.453140    1.400895    1.228096
     10          6           0       -3.058297    1.054829    3.142420
     11          6           0       -2.087735   -0.697326    0.026989
     12          6           0       -0.464443   -0.549246    0.470201
     13          6           0        0.394183   -1.027884   -0.605152
     14          8           0        0.103360   -1.436972   -1.699175
     15          8           0        1.654430   -0.699259   -0.266380
     16          7           0       -7.133425    2.713609    0.436808
     17          6           0       -6.011280    3.387996    0.978195
     18          6           0       -6.409449    4.770949    1.033191
     19          6           0       -7.679307    4.975957    0.629872
     20          6           0       -8.314863    3.568406    0.300265
     21          6           0       -5.402067    5.692151    1.565118
     22          6           0       -8.340335    6.208276    0.588430
     23          6           0       -9.222606    6.576632   -0.355270
     24          7           0       -9.218522    0.783188   -0.474519
     25          6           0       -9.914233    1.964792   -0.508765
     26          6           0      -11.245545    1.725039   -1.000255
     27          6           0      -11.452923    0.271004   -1.141546
     28          6           0      -10.185366   -0.196970   -0.802623
     29          6           0      -12.245930    2.773724   -1.447694
     30          6           0      -12.749478   -0.418678   -1.726472
     31          6           0      -12.706497   -0.584943   -3.268639
     32          7           0       -7.451081   -1.329488   -0.290201
     33          6           0       -8.521725   -2.151779   -0.580501
     34          6           0       -8.133015   -3.549634   -0.529355
     35          6           0       -6.794200   -3.449489   -0.205168
     36          6           0       -6.438915   -2.129763   -0.077659
     37          6           0       -8.878980   -4.793621   -0.776233
     38          6           0       -5.686304   -4.315967    0.199542
     39          8           0       -5.656132   -5.587195    0.204451
     40          6           0       -4.466772   -3.294296    0.397460
     41          6           0       -3.700420   -3.642429    1.771468
     42          8           0       -4.070827   -3.112524    2.788769
     43          8           0       -2.850079   -4.635447    1.664200
     44          6           0       -2.225476   -5.230151    2.857916
     45          6           0        2.660279   -0.741197   -1.229495
     46          6           0        3.999361   -0.527755   -0.538282
     47          6           0        4.948550    0.358779   -0.981637
     48          6           0        4.892491    0.983696   -2.361875
     49          6           0        6.241097    0.287204   -0.260060
     50          6           0        7.515899   -0.247043   -1.018826
     51          6           0        8.748762   -0.094402   -0.242377
     52          6           0       10.028059   -0.793309   -0.862827
     53          6           0        9.909838   -2.314828   -0.986953
     54          6           0       11.275239   -0.345237   -0.030984
     55          6           0       12.674227   -0.524418   -0.666309
     56          6           0       13.958875    0.066955    0.208247
     57          6           0       15.284540   -0.193883   -0.480503
     58          6           0       15.557122   -1.798578   -0.397758
     59          6           0       16.311980    0.527598    0.428670
     60          6           0       17.657231    0.545084   -0.104549
     61          6           0       18.681447    1.426952    0.669899
     62          6           0       20.150420    1.528728    0.107037
     63          6           0       20.096043    2.316257   -1.271711
     64          6           0       21.043385    2.267350    1.065761
     65          1           0       -3.852857    3.404431    1.713548
     66          1           0      -10.038294    3.988587   -0.184376
     67          1           0      -10.598031   -2.310558   -0.975940
     68          1           0       -2.708883   -0.994271    2.027967
     69          1           0       -2.094087    1.446072    1.262170
     70          1           0       -1.988815    0.860546    3.368338
     71          1           0       -3.327162    1.906545    3.657567
     72          1           0       -3.918085    0.484007    3.603694
     73          1           0       -2.238245   -1.496815   -0.752969
     74          1           0       -2.326131    0.353168   -0.638009
     75          1           0       -0.476527    0.489782    0.746219
     76          1           0       -0.570486   -1.204314    1.478452
     77          1           0       -4.450416    5.706526    0.977524
     78          1           0       -5.817313    6.856429    1.594821
     79          1           0       -5.152628    5.497579    2.553176
     80          1           0       -7.893885    6.985960    1.226930
     81          1           0       -9.715403    6.064173   -1.250300
     82          1           0       -9.706380    7.488759   -0.398850
     83          1           0      -12.233084    3.801450   -0.797497
     84          1           0      -11.998799    3.175537   -2.375758
     85          1           0      -13.353234    2.392016   -1.610275
     86          1           0      -12.640655   -1.528776   -1.437618
     87          1           0      -13.718545   -0.096806   -1.282405
     88          1           0      -12.880748    0.323371   -3.763395
     89          1           0      -11.818460   -0.980738   -3.608982
     90          1           0      -13.510451   -1.152556   -3.533982
     91          1           0       -9.563268   -4.869042    0.310078
     92          1           0       -9.480839   -4.790362   -1.641987
     93          1           0       -8.214640   -5.679937   -0.929318
     94          1           0       -3.878751   -3.520479   -0.521532
     95          1           0       -1.593003   -6.068367    2.447724
     96          1           0       -1.985404   -4.312601    3.483988
     97          1           0       -2.956115   -5.660648    3.540150
     98          1           0        2.604439   -1.745652   -1.804723
     99          1           0        2.415092   -0.037416   -2.108580
    100          1           0        4.236581   -0.990561    0.367887
    101          1           0        5.092602    2.080172   -2.127551
    102          1           0        5.956595    0.696650   -2.826807
    103          1           0        3.953638    0.930361   -2.923968
    104          1           0        6.615238    1.305248    0.035126
    105          1           0        6.044943   -0.229361    0.691828
    106          1           0        7.284767   -1.360050   -1.130990
    107          1           0        7.634026    0.303513   -2.019206
    108          1           0        9.130081    1.267067   -0.098746
    109          1           0        8.750813   -0.687554    0.670228
    110          1           0       10.099922   -0.314071   -1.800170
    111          1           0        9.372054   -2.655535   -1.613489
    112          1           0       10.903219   -2.661931   -1.266886
    113          1           0        9.899578   -2.578116    0.013359
    114          1           0       11.130446    0.856896   -0.012940
    115          1           0       11.235660   -0.857222    0.831216
    116          1           0       12.684533   -1.648247   -0.822302
    117          1           0       12.827508   -0.087324   -1.712243
    118          1           0       13.653247    1.077522    0.353394
    119          1           0       13.873616   -0.220736    1.213348
    120          1           0       15.207393    0.019310   -1.405957
    121          1           0       14.824855   -2.286057   -1.040604
    122          1           0       16.598251   -1.923315   -0.709249
    123          1           0       15.397564   -2.280234    0.690167
    124          1           0       16.042105    1.574832    0.585211
    125          1           0       16.233954    0.156963    1.332931
    126          1           0       18.059135   -0.445453   -0.008152
    127          1           0       17.590873    0.964733   -1.374500
    128          1           0       18.273829    2.461496    0.844951
    129          1           0       18.724897    0.851348    1.682259
    130          1           0       20.535397    0.570749   -0.013697
    131          1           0       19.777800    3.366908   -1.157450
    132          1           0       21.152107    2.280882   -1.541267
    133          1           0       19.768311    1.720819   -2.047525
    134          1           0       20.880880    1.899964    2.179052
    135          1           0       22.095296    2.381722    0.953112
    136          1           0       20.669144    3.315143    1.199352
    137          1           0       -7.315084    1.680164    0.396186
    138          1           0       -7.567321   -0.401828   -0.148214
 ---------------------------------------------------------------------

 SCF Done:  E(RB3LYP) =  -2732.95138835     A.U. after   18 cycles

 Excitation energies and oscillator strengths:

 Excited State   1:      Singlet-A      2.1183 eV  585.30 nm  f=0.0669  <S**2>=0.000
     235 -> 237       -0.16143
     235 -> 238        0.37524
     236 -> 237        0.55445
     236 -> 238        0.14230
 This state for optimization and/or second-order correction.
 Total Energy, E(TD-HF/TD-KS) =  -2732.87354176
 Copying the excited state density for this state as the 1-particle RhoCI density.

 The electronic state is 1-A.
 Alpha  occ. eigenvalues --  -19.18256 -19.17321 -19.12989 -19.12031 -19.11962
 Alpha  occ. eigenvalues --  -14.36613 -14.36114 -14.31599 -14.29411 -10.31780
 Alpha  occ. eigenvalues --  -10.31707 -10.27896 -10.26022 -10.25258 -10.24129
 Alpha  occ. eigenvalues --  -10.23745 -10.23387 -10.23274 -10.22926 -10.22511
 Alpha  occ. eigenvalues --  -10.21649 -10.21573 -10.21444 -10.21222 -10.21025
 Alpha  occ. eigenvalues --  -10.20816 -10.20796 -10.20706 -10.20639 -10.20616
 Alpha  occ. eigenvalues --  -10.20605 -10.20508 -10.20400 -10.20324 -10.20253
 Alpha  occ. eigenvalues --  -10.20242 -10.20176 -10.20096 -10.19981 -10.19892
 Alpha  occ. eigenvalues --  -10.19808 -10.19628 -10.19123 -10.19045 -10.19009
 Alpha  occ. eigenvalues --  -10.18898 -10.18893 -10.18804 -10.18638 -10.18601
 Alpha  occ. eigenvalues --  -10.18576 -10.18456 -10.18319 -10.18178 -10.18082
 Alpha  occ. eigenvalues --  -10.17989 -10.17946 -10.17907 -10.17482 -10.17363
 Alpha  occ. eigenvalues --  -10.17111 -10.16355 -10.16354 -10.15857  -1.10468
 Alpha  occ. eigenvalues --   -1.09734  -1.01489  -1.00806  -1.00587  -0.98964
 Alpha  occ. eigenvalues --   -0.98770  -0.94595  -0.91665  -0.84384  -0.82712
 Alpha  occ. eigenvalues --   -0.82439  -0.82186  -0.82058  -0.81811  -0.81095
 Alpha  occ. eigenvalues --   -0.80919  -0.79435  -0.79211  -0.78090  -0.77564
 Alpha  occ. eigenvalues --   -0.77026  -0.76148  -0.75779  -0.75036  -0.74274
 Alpha  occ. eigenvalues --   -0.73694  -0.73588  -0.72299  -0.72000  -0.70753
 Alpha  occ. eigenvalues --   -0.70180  -0.69783  -0.69024  -0.68730  -0.67616
 Alpha  occ. eigenvalues --   -0.67213  -0.66688  -0.66625  -0.65960  -0.65231
 Alpha  occ. eigenvalues --   -0.64108  -0.63401  -0.62397  -0.61839  -0.61530
 Alpha  occ. eigenvalues --   -0.60630  -0.58970  -0.58750  -0.58295  -0.57941
 Alpha  occ. eigenvalues --   -0.57770  -0.56882  -0.56486  -0.56132  -0.55950
 Alpha  occ. eigenvalues --   -0.55443  -0.55295  -0.55038  -0.54411  -0.53703
 Alpha  occ. eigenvalues --   -0.52428  -0.52123  -0.51629  -0.51138  -0.50668
 Alpha  occ. eigenvalues --   -0.50512  -0.49733  -0.49512  -0.49310  -0.48823
 Alpha  occ. eigenvalues --   -0.48316  -0.48038  -0.47937  -0.47778  -0.47452
 Alpha  occ. eigenvalues --   -0.47178  -0.46959  -0.46829  -0.46247  -0.45835
 Alpha  occ. eigenvalues --   -0.45755  -0.45579  -0.45198  -0.44988  -0.44792
 Alpha  occ. eigenvalues --   -0.44478  -0.44262  -0.44196  -0.43886  -0.43806
 Alpha  occ. eigenvalues --   -0.43723  -0.43137  -0.42864  -0.42565  -0.42439
 Alpha  occ. eigenvalues --   -0.42150  -0.41962  -0.41784  -0.41705  -0.41430
 Alpha  occ. eigenvalues --   -0.40988  -0.40880  -0.40635  -0.40498  -0.40373
 Alpha  occ. eigenvalues --   -0.39946  -0.39861  -0.39605  -0.39346  -0.39116
 Alpha  occ. eigenvalues --   -0.39077  -0.39030  -0.38817  -0.38546  -0.38458
 Alpha  occ. eigenvalues --   -0.38300  -0.38285  -0.38185  -0.37947  -0.37663
 Alpha  occ. eigenvalues --   -0.37360  -0.37011  -0.36890  -0.36628  -0.36562
 Alpha  occ. eigenvalues --   -0.36299  -0.36239  -0.36132  -0.35691  -0.35628
 Alpha  occ. eigenvalues --   -0.35498  -0.35356  -0.35169  -0.35082  -0.35001
 Alpha  occ. eigenvalues --   -0.34866  -0.34348  -0.34278  -0.34056  -0.33901
 Alpha  occ. eigenvalues --   -0.33640  -0.33512  -0.33039  -0.32502  -0.32486
 Alpha  occ. eigenvalues --   -0.31993  -0.31899  -0.31835  -0.31505  -0.31380
 Alpha  occ. eigenvalues --   -0.30694  -0.30513  -0.30381  -0.30142  -0.29646
 Alpha  occ. eigenvalues --   -0.29619  -0.29030  -0.28827  -0.28336  -0.28123
 Alpha  occ. eigenvalues --   -0.27398  -0.26842  -0.26718  -0.26425  -0.25999
 Alpha  occ. eigenvalues --   -0.24514  -0.23930  -0.23589  -0.20944  -0.19645
 Alpha  occ. eigenvalues --   -0.18884
 Alpha virt. eigenvalues --   -0.09483  -0.08516  -0.04581  -0.02080  -0.01364
 Alpha virt. eigenvalues --   -0.00063   0.00176   0.00914   0.02249   0.02689
 Alpha virt. eigenvalues --    0.03618   0.04241   0.04413   0.04781   0.04847

 Mulliken charges:
               1
     1  C    0.054239
     2  C   -0.096695
     3  C    0.055861
     4  C   -0.052609
     5  N    0.009257
     6  C   -0.122349
     7  C    0.090948
     8  C   -0.117454
     9  C   -0.100226
    10  C    0.130105
    11  C   -0.080476
    12  C   -0.010629
    13  C    0.219754
    14  O   -0.215630
    15  O   -0.288963
    16  N   -0.190778
    17  C    0.160931
    18  C   -0.098545
    19  C    0.067544
    20  C    0.089611
    21  C    0.083458
    22  C   -0.051784
    23  C   -0.042054
    24  N   -0.298020
    25  C    0.180906
    26  C   -0.149886
    27  C   -0.079488
    28  C    0.081028
    29  C    0.047547
    30  C    0.020085
    31  C    0.113800
    32  N    0.106177
    33  C    0.011255
    34  C   -0.131104
    35  C    0.017116
    36  C    0.019097
    37  C    0.061556
    38  C    0.086107
    39  O   -0.233430
    40  C   -0.072408
    41  C    0.190481
    42  O   -0.232269
    43  O   -0.281867
    44  C    0.172636
    45  C    0.223944
    46  C   -0.046866
    47  C   -0.138650
    48  C    0.053536
    49  C    0.063498
    50  C    0.019023
    51  C   -0.051306
    52  C   -0.080194
    53  C    0.248912
    54  C    0.034807
    55  C   -0.027943
    56  C    0.072710
    57  C    0.036668
    58  C   -0.018170
    59  C    0.137374
    60  C    0.007673
    61  C   -0.026123
    62  C   -0.038362
    63  C    0.078684
    64  C    0.023560
    65  H    0.022043
    66  H   -0.208785
    67  H   -0.034257
    68  H   -0.069500
    69  H    0.013259
    70  H    0.011718
    71  H   -0.026264
    72  H    0.021513
    73  H    0.054705
    74  H    0.019651
    75  H    0.036601
    76  H    0.063262
    77  H    0.035603
    78  H    0.019969
    79  H    0.012416
    80  H    0.005974
    81  H    0.038704
    82  H   -0.000841
    83  H    0.025447
    84  H    0.003681
    85  H    0.027797
    86  H   -0.004519
    87  H    0.024580
    88  H   -0.013747
    89  H   -0.003424
    90  H   -0.018846
    91  H    0.063176
    92  H    0.018485
    93  H    0.049924
    94  H    0.062021
    95  H    0.070067
    96  H    0.044307
    97  H    0.029182
    98  H    0.028128
    99  H    0.015511
   100  H   -0.034901
   101  H    0.010481
   102  H    0.040672
   103  H    0.028121
   104  H   -0.009238
   105  H   -0.005206
   106  H    0.013220
   107  H    0.019117
   108  H    0.012454
   109  H   -0.013063
   110  H   -0.043409
   111  H   -0.078109
   112  H   -0.023054
   113  H   -0.028766
   114  H    0.010322
   115  H   -0.033305
   116  H   -0.001274
   117  H    0.000837
   118  H   -0.031266
   119  H   -0.036567
   120  H   -0.074953
   121  H    0.014567
   122  H    0.013447
   123  H    0.019735
   124  H   -0.027042
   125  H   -0.066430
   126  H   -0.011283
   127  H    0.006707
   128  H   -0.002223
   129  H   -0.002775
   130  H   -0.028412
   131  H    0.021412
   132  H   -0.016965
   133  H   -0.011535
   134  H   -0.000154
   135  H    0.005305
   136  H   -0.009455
   137  H    0.168306
   138  H    0.071527
 Sum of Mulliken charges =   0.00000

 Dipole moment (field-independent basis, Debye):
    X=              3.0153    Y=              3.3212    Z=              0.8642  Tot=              4.5683
 Quadrupole moment (field-independent basis, Debye-Ang):
   XX=           -349.5235   YY=           -379.5001   ZZ=           -390.6683
   XY=            -25.6680   XZ=             11.2902   YZ=             -2.3768

 Normal termination of Gaussian 09 at Wed Jul 31 09:33:25 2019.
