 Gaussian 09, Revision D.01,
 Gaussian 09:  ES64L-G09RevD.01 24-Apr-2013

 --------------------------
 # td=(NStates=1) B3LYP/SVP
 --------------------------

 --
 TD
 --
 Symbolic Z-matrix:
 Charge =  0 Multiplicity = 1

                         Standard orientation:
 ---------------------------------------------------------------------
 Center     Atomic      Atomic             Coordinates (Angstroms)
 Number     Number       Type             X           Y           Z
 ---------------------------------------------------------------------
      1          6           0       -5.260605   -1.937693    0.553694
      2          6           0       -4.577575    2.694887    1.451098
      3          6           0       -9.109728    3.551859   -0.208947
      4          6           0       -9.860901   -1.106897   -1.101008
      5          7           0       -5.141465    0.489818    0.813000
      6          6           0       -4.532070   -0.679930    0.875818
      7          6           0       -3.105114   -0.756319    1.408598
      8          6           0       -2.868784    0.734855    1.892612
      9          6           0       -4.235756    1.363267    1.381050
     10          6           0       -2.899501    0.871416    3.335289
     11          6           0       -2.065424   -1.151988    0.295888
     12          6           0       -0.570906   -1.153175    0.672232
     13          6           0        0.354848   -1.465942   -0.409416
     14          8           0        0.100666   -2.086791   -1.400038
     15          8           0        1.675592   -1.093419   -0.029041
     16          7           0       -6.870107    2.844693    0.404931
     17          6           0       -5.742169    3.410475    1.102742
     18          6           0       -5.969697    4.897872    1.076362
     19          6           0       -7.233975    5.054565    0.526175
     20          6           0       -7.795916    3.791986    0.245726
     21          6           0       -5.054266    5.843840    1.727993
     22          6           0       -7.800586    6.376366    0.444881
     23          6           0       -8.622068    6.822734   -0.640936
     24          7           0       -9.143838    1.095663   -0.551599
     25          6           0       -9.783530    2.293983   -0.549045
     26          6           0      -11.079715    2.173316   -1.060439
     27          6           0      -11.309309    0.847830   -1.282479
     28          6           0      -10.102513    0.245207   -1.000840
     29          6           0      -12.061175    3.318576   -1.171625
     30          6           0      -12.479696    0.205700   -1.807952
     31          6           0      -12.517761   -0.334424   -3.267427
     32          7           0       -7.536499   -1.136505   -0.327699
     33          6           0       -8.671980   -1.784300   -0.769395
     34          6           0       -8.293961   -3.272867   -0.819733
     35          6           0       -6.996066   -3.304571   -0.304945
     36          6           0       -6.561007   -1.986526    0.019030
     37          6           0       -9.177880   -4.266437   -1.343514
     38          6           0       -5.985594   -4.190170    0.036441
     39          8           0       -5.997453   -5.372320   -0.026007
     40          6           0       -4.689812   -3.371681    0.571781
     41          6           0       -4.187117   -3.931077    1.801702
     42          8           0       -4.542566   -3.561148    2.965840
     43          8           0       -3.332133   -4.880254    1.730684
     44          6           0       -2.825314   -5.514536    2.865024
     45          6           0        2.662030   -1.395592   -1.016227
     46          6           0        4.045765   -1.014238   -0.470299
     47          6           0        4.972096   -0.426503   -1.117487
     48          6           0        4.817351    0.112562   -2.496002
     49          6           0        6.280173   -0.012295   -0.433905
     50          6           0        7.429171   -0.875511   -0.963708
     51          6           0        8.775461   -0.572204   -0.240904
     52          6           0       10.070271   -1.110365   -0.921958
     53          6           0       10.095779   -2.525637   -1.008821
     54          6           0       11.270422   -0.418787   -0.067549
     55          6           0       12.549814   -0.586803   -0.776107
     56          6           0       13.786673   -0.053228    0.055648
     57          6           0       15.282455   -0.078861   -0.460705
     58          6           0       15.765007   -1.518098   -0.756515
     59          6           0       16.111158    0.752875    0.446068
     60          6           0       17.617920    0.876793   -0.112436
     61          6           0       18.417622    1.815276    0.775869
     62          6           0       19.924234    2.064594    0.096613
     63          6           0       19.825858    3.048648   -1.196455
     64          6           0       20.837940    2.640152    1.145078
     65          1           0       -3.830538    3.478511    2.110051
     66          1           0       -9.688521    4.458297   -0.353161
     67          1           0      -10.490428   -2.138582   -1.181980
     68          1           0       -2.888645   -1.387848    2.364364
     69          1           0       -2.070874    1.321430    1.404148
     70          1           0       -2.074155    0.257323    3.638522
     71          1           0       -2.820236    1.899001    3.501703
     72          1           0       -3.730250    0.428846    3.986554
     73          1           0       -2.330524   -2.142028    0.062154
     74          1           0       -2.034697   -0.445650   -0.524194
     75          1           0       -0.166804   -0.186163    1.196516
     76          1           0       -0.388226   -2.128058    1.394220
     77          1           0       -3.999631    5.842801    1.204241
     78          1           0       -5.235330    6.858267    1.883813
     79          1           0       -4.645474    5.389565    2.745591
     80          1           0       -7.783186    7.373844    1.329706
     81          1           0       -8.836617    5.913852   -1.391878
     82          1           0       -8.961087    7.773318   -0.730435
     83          1           0      -12.351715    3.969459   -0.334251
     84          1           0      -11.722063    4.081938   -2.000200
     85          1           0      -13.218466    3.076908   -1.289896
     86          1           0      -13.033424   -0.654131   -1.125960
     87          1           0      -13.522644    0.823254   -1.868969
     88          1           0      -12.203347    0.607945   -3.917896
     89          1           0      -11.768773   -1.209840   -3.571342
     90          1           0      -13.418403   -0.705548   -3.501271
     91          1           0      -10.277121   -4.143505   -0.982324
     92          1           0       -9.282173   -4.372844   -2.602462
     93          1           0       -8.772486   -5.285423   -1.025551
     94          1           0       -3.931092   -3.704367   -0.239448
     95          1           0       -2.406291   -6.363109    2.383958
     96          1           0       -2.354129   -4.906114    3.508351
     97          1           0       -3.656487   -5.890182    3.561608
     98          1           0        2.643807   -2.645457   -0.925701
     99          1           0        2.368232   -0.957787   -2.010144
    100          1           0        4.305790   -1.395878    0.680488
    101          1           0        5.360463    1.104729   -2.885435
    102          1           0        4.918341   -0.708616   -3.518626
    103          1           0        3.600712    0.327604   -2.702056
    104          1           0        6.419064    1.039683   -0.698594
    105          1           0        6.121179   -0.189910    0.735739
    106          1           0        7.103423   -1.965810   -1.166713
    107          1           0        7.754644   -0.525595   -2.095387
    108          1           0        8.799459    0.577135   -0.024529
    109          1           0        8.656775   -0.828963    0.897551
    110          1           0       10.203477   -0.637182   -1.792279
    111          1           0        9.171185   -2.956414   -1.534494
    112          1           0       11.359090   -3.057916   -1.390505
    113          1           0       10.207707   -3.095512   -0.115504
    114          1           0       11.014008    0.542756    0.323440
    115          1           0       11.468267   -0.934850    0.866323
    116          1           0       12.789584   -1.716414   -1.141595
    117          1           0       12.428302   -0.103575   -1.784978
    118          1           0       13.648440    0.999452    0.325483
    119          1           0       13.815481   -0.717407    0.922507
    120          1           0       15.302693    0.650010   -1.502418
    121          1           0       15.078533   -2.147935   -1.358454
    122          1           0       16.778459   -1.726006   -1.403140
    123          1           0       15.825232   -2.157320    0.108669
    124          1           0       15.682087    1.647115    0.656425
    125          1           0       16.086283    0.284154    1.504940
    126          1           0       18.198125   -0.072895   -0.137502
    127          1           0       17.744799    1.227721   -1.087773
    128          1           0       17.975319    2.698868    0.880502
    129          1           0       18.690829    1.334982    1.775744
    130          1           0       20.485582    1.109300   -0.011810
    131          1           0       19.408729    4.025230   -1.080270
    132          1           0       20.852749    3.206831   -1.839225
    133          1           0       19.043741    2.613817   -1.906701
    134          1           0       20.824495    2.017943    2.155084
    135          1           0       21.844441    2.683825    0.774460
    136          1           0       20.521545    3.724783    1.409223
    137          1           0       -6.772577    1.798788    0.326386
    138          1           0       -7.411624   -0.146564   -0.325149
 ---------------------------------------------------------------------

 SCF Done:  E(RB3LYP) =  -2732.95645111     A.U. after   17 cycles

 Excitation energies and oscillator strengths:

 Excited State   1:      Singlet-A      2.0314 eV  610.34 nm  f=0.1126  <S**2>=0.000
     235 -> 237       -0.15414
     235 -> 238       -0.33655
     236 -> 237        0.57726
     236 -> 238       -0.16078
 This state for optimization and/or second-order correction.
 Total Energy, E(TD-HF/TD-KS) =  -2732.88179907
 Copying the excited state density for this state as the 1-particle RhoCI density.

 The electronic state is 1-A.
 Alpha  occ. eigenvalues --  -19.18293 -19.16900 -19.13554 -19.12318 -19.09809
 Alpha  occ. eigenvalues --  -14.37472 -14.37184 -14.34043 -14.29199 -10.31832
 Alpha  occ. eigenvalues --  -10.30651 -10.27525 -10.26146 -10.24751 -10.24596
 Alpha  occ. eigenvalues --  -10.24125 -10.24011 -10.23914 -10.23728 -10.23689
 Alpha  occ. eigenvalues --  -10.23113 -10.23016 -10.22818 -10.22518 -10.22167
 Alpha  occ. eigenvalues --  -10.21911 -10.21871 -10.21525 -10.21395 -10.21249
 Alpha  occ. eigenvalues --  -10.21199 -10.21158 -10.20969 -10.20961 -10.20844
 Alpha  occ. eigenvalues --  -10.20631 -10.20582 -10.20560 -10.20499 -10.20481
 Alpha  occ. eigenvalues --  -10.20418 -10.20271 -10.20179 -10.20029 -10.19961
 Alpha  occ. eigenvalues --  -10.19898 -10.19869 -10.19606 -10.19593 -10.19479
 Alpha  occ. eigenvalues --  -10.19159 -10.18976 -10.18750 -10.18718 -10.18630
 Alpha  occ. eigenvalues --  -10.18534 -10.18448 -10.18319 -10.18102 -10.18039
 Alpha  occ. eigenvalues --  -10.17672 -10.17645 -10.17577 -10.17405  -1.11857
 Alpha  occ. eigenvalues --   -1.08543  -1.04814  -1.01204  -0.99051  -0.98004
 Alpha  occ. eigenvalues --   -0.96551  -0.95802  -0.94667  -0.85133  -0.83047
 Alpha  occ. eigenvalues --   -0.82377  -0.82154  -0.81908  -0.81481  -0.80692
 Alpha  occ. eigenvalues --   -0.80433  -0.79747  -0.79278  -0.78866  -0.78470
 Alpha  occ. eigenvalues --   -0.77345  -0.76423  -0.75848  -0.74482  -0.74161
 Alpha  occ. eigenvalues --   -0.73758  -0.73062  -0.72511  -0.72089  -0.71110
 Alpha  occ. eigenvalues --   -0.70097  -0.69935  -0.69204  -0.67592  -0.67462
 Alpha  occ. eigenvalues --   -0.66683  -0.66533  -0.66075  -0.65806  -0.65450
 Alpha  occ. eigenvalues --   -0.64722  -0.63041  -0.62865  -0.62293  -0.61324
 Alpha  occ. eigenvalues --   -0.60490  -0.59055  -0.58898  -0.58491  -0.58123
 Alpha  occ. eigenvalues --   -0.57424  -0.56851  -0.56338  -0.56236  -0.55456
 Alpha  occ. eigenvalues --   -0.55377  -0.54478  -0.54071  -0.53854  -0.53447
 Alpha  occ. eigenvalues --   -0.52548  -0.51986  -0.51110  -0.50898  -0.50560
 Alpha  occ. eigenvalues --   -0.50022  -0.49533  -0.49012  -0.48941  -0.48400
 Alpha  occ. eigenvalues --   -0.47992  -0.47725  -0.47638  -0.47513  -0.47390
 Alpha  occ. eigenvalues --   -0.46803  -0.46473  -0.46271  -0.45782  -0.45752
 Alpha  occ. eigenvalues --   -0.45650  -0.45341  -0.45046  -0.44722  -0.44643
 Alpha  occ. eigenvalues --   -0.44612  -0.44236  -0.44103  -0.43957  -0.43532
 Alpha  occ. eigenvalues --   -0.43360  -0.42824  -0.42748  -0.42566  -0.42535
 Alpha  occ. eigenvalues --   -0.42285  -0.42190  -0.42014  -0.41915  -0.41537
 Alpha  occ. eigenvalues --   -0.41271  -0.41093  -0.40633  -0.40135  -0.39924
 Alpha  occ. eigenvalues --   -0.39874  -0.39798  -0.39649  -0.39405  -0.39247
 Alpha  occ. eigenvalues --   -0.39097  -0.39008  -0.38758  -0.38564  -0.38247
 Alpha  occ. eigenvalues --   -0.38111  -0.37892  -0.37710  -0.37552  -0.37471
 Alpha  occ. eigenvalues --   -0.37199  -0.37043  -0.36858  -0.36673  -0.36600
 Alpha  occ. eigenvalues --   -0.36286  -0.36181  -0.36082  -0.36039  -0.35831
 Alpha  occ. eigenvalues --   -0.35680  -0.35429  -0.35026  -0.34930  -0.34634
 Alpha  occ. eigenvalues --   -0.34585  -0.34461  -0.34316  -0.34167  -0.33782
 Alpha  occ. eigenvalues --   -0.33642  -0.33582  -0.32740  -0.32684  -0.32534
 Alpha  occ. eigenvalues --   -0.32120  -0.31815  -0.31257  -0.30791  -0.30393
 Alpha  occ. eigenvalues --   -0.30172  -0.29833  -0.29807  -0.29755  -0.29326
 Alpha  occ. eigenvalues --   -0.29302  -0.29265  -0.28770  -0.28567  -0.28298
 Alpha  occ. eigenvalues --   -0.27811  -0.27096  -0.26699  -0.26226  -0.25679
 Alpha  occ. eigenvalues --   -0.25291  -0.25022  -0.23869  -0.22655  -0.20091
 Alpha  occ. eigenvalues --   -0.19142
 Alpha virt. eigenvalues --   -0.10345  -0.08851  -0.04750  -0.02708  -0.01373
 Alpha virt. eigenvalues --   -0.00960  -0.00313  -0.00119   0.01204   0.01831
 Alpha virt. eigenvalues --    0.02786   0.03205   0.03389   0.03543   0.04324

 Mulliken charges:
               1
     1  C    0.018473
     2  C   -0.085416
     3  C   -0.083534
     4  C   -0.070594
     5  N   -0.172697
     6  C   -0.007859
     7  C   -0.073579
     8  C   -0.028071
     9  C   -0.013609
    10  C    0.114572
    11  C    0.113915
    12  C   -0.042817
    13  C    0.176756
    14  O   -0.204914
    15  O   -0.361886
    16  N   -0.088037
    17  C    0.020558
    18  C   -0.052326
    19  C    0.043782
    20  C    0.142954
    21  C    0.060617
    22  C   -0.157074
    23  C   -0.036376
    24  N   -0.221225
    25  C    0.044161
    26  C   -0.073120
    27  C    0.043849
    28  C    0.119862
    29  C    0.001290
    30  C   -0.080296
    31  C    0.002867
    32  N    0.008635
    33  C   -0.066859
    34  C   -0.050023
    35  C    0.066778
    36  C    0.048034
    37  C   -0.055159
    38  C   -0.026564
    39  O   -0.135871
    40  C   -0.070276
    41  C    0.165926
    42  O   -0.315663
    43  O   -0.230878
    44  C    0.242884
    45  C    0.217557
    46  C   -0.104498
    47  C   -0.080194
    48  C   -0.100479
    49  C    0.080976
    50  C   -0.058797
    51  C   -0.024504
    52  C    0.070724
    53  C   -0.010282
    54  C    0.040166
    55  C    0.006109
    56  C    0.023999
    57  C   -0.087047
    58  C    0.011282
    59  C    0.086072
    60  C    0.083529
    61  C    0.044426
    62  C   -0.106675
    63  C   -0.019167
    64  C    0.004377
    65  H    0.012115
    66  H   -0.029920
    67  H    0.016396
    68  H    0.041695
    69  H    0.012366
    70  H   -0.002855
    71  H   -0.006662
    72  H    0.040785
    73  H    0.002500
    74  H    0.009660
    75  H    0.053482
    76  H    0.060184
    77  H    0.026174
    78  H    0.006086
    79  H    0.037407
    80  H    0.056373
    81  H    0.056942
    82  H    0.001240
    83  H    0.018750
    84  H    0.030888
    85  H    0.016222
    86  H    0.011424
    87  H    0.010224
    88  H    0.027912
    89  H    0.017209
    90  H   -0.013200
    91  H    0.057170
    92  H    0.069859
    93  H    0.054691
    94  H    0.070964
    95  H    0.032002
    96  H   -0.005529
    97  H    0.024633
    98  H    0.035525
    99  H    0.038249
   100  H    0.025874
   101  H    0.052760
   102  H    0.046608
   103  H    0.030028
   104  H    0.008358
   105  H    0.017363
   106  H    0.031262
   107  H    0.008861
   108  H   -0.002208
   109  H   -0.005441
   110  H   -0.039601
   111  H    0.033676
   112  H    0.001419
   113  H    0.000443
   114  H   -0.020407
   115  H   -0.029845
   116  H    0.012942
   117  H   -0.015131
   118  H   -0.005673
   119  H   -0.007338
   120  H   -0.001407
   121  H    0.002357
   122  H    0.025860
   123  H   -0.005100
   124  H   -0.042642
   125  H   -0.016359
   126  H   -0.005953
   127  H   -0.031818
   128  H   -0.037722
   129  H    0.001975
   130  H    0.003772
   131  H    0.007513
   132  H    0.030503
   133  H    0.010020
   134  H    0.017184
   135  H    0.002067
   136  H    0.002928
   137  H    0.168389
   138  H    0.124760
 Sum of Mulliken charges =   0.00000

 Dipole moment (field-independent basis, Debye):
    X=              2.1505    Y=              4.0419    Z=              0.7909  Tot=              4.6461
 Quadrupole moment (field-independent basis, Debye-Ang):
   XX=           -390.2387   YY=           -379.7297   ZZ=           -399.9134
   XY=            -18.9757   XZ=             12.5142   YZ=              1.7220

 Normal termination of Gaussian 09 at Sun Aug  4 23:33:41 2019.
