 Gaussian 09, Revision D.01,
 Gaussian 09:  ES64L-G09RevD.01 24-Apr-2013

 --------------------------
 # td=(NStates=1) B3LYP/SVP
 --------------------------

 --
 TD
 --
 Symbolic Z-matrix:
 Charge =  0 Multiplicity = 1

                         Standard orientation:
 ---------------------------------------------------------------------
 Center     Atomic      Atomic             Coordinates (Angstroms)
 Number     Number       Type             X           Y           Z
 ---------------------------------------------------------------------
      1          6           0       -5.164770   -1.951874    0.562654
      2          6           0       -4.676173    2.858211    1.472657
      3          6           0       -9.222675    3.223254   -0.310461
      4          6           0       -9.707916   -1.449029   -1.071949
      5          7           0       -5.219235    0.452476    0.971157
      6          6           0       -4.498218   -0.690305    0.979581
      7          6           0       -3.085273   -0.649934    1.390260
      8          6           0       -3.074474    0.798246    1.893683
      9          6           0       -4.403853    1.394342    1.383949
     10          6           0       -2.999214    0.896021    3.434833
     11          6           0       -2.146025   -0.625836    0.001890
     12          6           0       -0.714354   -0.576767    0.429284
     13          6           0        0.389239   -0.762406   -0.689638
     14          8           0       -0.007015   -1.159200   -1.795691
     15          8           0        1.622809   -0.613278   -0.332517
     16          7           0       -6.954574    2.612461    0.554421
     17          6           0       -5.893000    3.366685    0.986534
     18          6           0       -6.187550    4.779372    0.991765
     19          6           0       -7.476195    4.908296    0.474927
     20          6           0       -7.965955    3.500029    0.194922
     21          6           0       -5.308718    5.934287    1.568695
     22          6           0       -8.155061    6.168308    0.341389
     23          6           0       -9.021345    6.659140   -0.631210
     24          7           0       -9.139470    0.731036   -0.448876
     25          6           0       -9.779254    1.969353   -0.498645
     26          6           0      -11.211939    1.782751   -0.895942
     27          6           0      -11.343402    0.412001   -1.134652
     28          6           0      -10.140701   -0.154380   -0.874636
     29          6           0      -12.162452    2.915933   -1.046833
     30          6           0      -12.649638   -0.219894   -1.605449
     31          6           0      -12.598642   -0.439491   -3.221733
     32          7           0       -7.447574   -1.354941   -0.320022
     33          6           0       -8.516877   -2.071332   -0.793182
     34          6           0       -8.086850   -3.437319   -0.715538
     35          6           0       -6.803287   -3.436058   -0.246429
     36          6           0       -6.463253   -2.112456    0.033693
     37          6           0       -8.816630   -4.537569   -1.174453
     38          6           0       -5.681519   -4.274547    0.012933
     39          8           0       -5.585488   -5.527710   -0.077390
     40          6           0       -4.476746   -3.304026    0.509490
     41          6           0       -4.015650   -3.846418    1.841758
     42          8           0       -4.271448   -3.490764    2.938399
     43          8           0       -2.990914   -4.798833    1.647327
     44          6           0       -2.454953   -5.473592    2.851070
     45          6           0        2.563585   -0.774653   -1.373531
     46          6           0        3.957582   -0.677111   -0.618971
     47          6           0        5.034959    0.129815   -1.019579
     48          6           0        4.905398    1.063501   -2.278395
     49          6           0        6.184077    0.149805   -0.208021
     50          6           0        7.473988   -0.210478   -1.067700
     51          6           0        8.824442   -0.259920   -0.107339
     52          6           0       10.048367   -0.788325   -0.875380
     53          6           0        9.824543   -2.313012   -1.183439
     54          6           0       11.238149   -0.462803    0.016669
     55          6           0       12.634278   -0.664872   -0.719696
     56          6           0       13.741721   -0.147187    0.209909
     57          6           0       15.230227   -0.285681   -0.462114
     58          6           0       15.636748   -1.710395   -0.392291
     59          6           0       16.177530    0.690816    0.353846
     60          6           0       17.659063    0.629462   -0.106411
     61          6           0       18.456423    1.662429    0.630145
     62          6           0       20.031365    1.629164    0.283765
     63          6           0       20.389559    1.895278   -1.178750
     64          6           0       20.767041    2.578639    1.180929
     65          1           0       -3.855103    3.438921    1.695805
     66          1           0       -9.856777    4.101794   -0.354420
     67          1           0      -10.506034   -2.183890   -1.450213
     68          1           0       -2.923129   -1.479461    2.187487
     69          1           0       -2.290991    1.606058    1.652769
     70          1           0       -2.196870    0.650257    3.941734
     71          1           0       -3.214678    2.010020    3.770348
     72          1           0       -4.047729    0.451947    3.817223
     73          1           0       -2.354563   -1.510378   -0.514813
     74          1           0       -2.501492    0.247286   -0.561652
     75          1           0       -0.382005    0.338840    0.944473
     76          1           0       -0.500952   -1.550523    1.094398
     77          1           0       -4.067194    5.794929    1.338827
     78          1           0       -5.647192    6.930805    1.234274
     79          1           0       -5.435822    5.694197    2.565327
     80          1           0       -8.001018    6.953732    1.162512
     81          1           0       -9.539379    6.094628   -1.501140
     82          1           0       -9.314602    7.692514   -0.694828
     83          1           0      -12.339917    3.407750   -0.164449
     84          1           0      -11.828134    3.655093   -1.720466
     85          1           0      -13.141183    2.657721   -1.476882
     86          1           0      -12.775622   -1.173610   -1.110266
     87          1           0      -13.523180    0.378323   -1.102327
     88          1           0      -12.300390    0.659087   -3.360320
     89          1           0      -11.712654   -1.055471   -3.483131
     90          1           0      -13.528212   -0.786214   -3.823474
     91          1           0       -9.585655   -4.713117   -0.260417
     92          1           0       -9.293404   -4.493008   -2.092631
     93          1           0       -8.282269   -5.540391   -1.232626
     94          1           0       -3.807221   -3.484931   -0.221085
     95          1           0       -1.593659   -5.986145    2.441756
     96          1           0       -2.031682   -4.799733    3.581083
     97          1           0       -3.288809   -6.173479    3.118320
     98          1           0        2.396330   -1.786618   -1.976947
     99          1           0        2.303348   -0.023715   -2.248461
    100          1           0        4.030849   -1.096219    0.264782
    101          1           0        5.366777    1.955697   -2.265987
    102          1           0        5.606053    0.784965   -3.115913
    103          1           0        3.908516    1.039090   -2.713639
    104          1           0        6.356603    1.135876    0.106175
    105          1           0        6.007320   -0.528195    0.666159
    106          1           0        7.349976   -1.090347   -1.712896
    107          1           0        7.524722    0.742324   -1.709798
    108          1           0        9.037898    0.805675    0.324773
    109          1           0        8.544652   -0.818829    0.811886
    110          1           0       10.131054   -0.313648   -1.864062
    111          1           0        9.006639   -2.476432   -1.745716
    112          1           0       10.743715   -2.701048   -1.777916
    113          1           0        9.827637   -2.990426   -0.415917
    114          1           0       10.944604    0.535534    0.471639
    115          1           0       11.106035   -1.010203    0.992648
    116          1           0       12.810877   -1.693106   -1.134840
    117          1           0       12.700566    0.060132   -1.573614
    118          1           0       13.426865    0.907684    0.471608
    119          1           0       13.641425   -0.561258    1.154626
    120          1           0       15.099308    0.012786   -1.723378
    121          1           0       14.846144   -2.547582   -0.760176
    122          1           0       16.621171   -1.807599   -1.192799
    123          1           0       15.882189   -2.146188    0.645202
    124          1           0       15.882258    1.799244    0.243224
    125          1           0       16.196670    0.425928    1.481291
    126          1           0       18.053242   -0.494126    0.292470
    127          1           0       17.703641    0.736633   -1.157595
    128          1           0       18.072185    2.647777    0.501110
    129          1           0       18.177213    1.528457    1.669259
    130          1           0       20.192287    0.654389    0.501649
    131          1           0       20.189789    3.142691   -1.463687
    132          1           0       21.345976    1.850848   -1.641961
    133          1           0       19.828196    1.220642   -1.965068
    134          1           0       20.806701    2.342250    2.269147
    135          1           0       21.940266    2.757379    0.990066
    136          1           0       20.442378    3.429006    1.089804
    137          1           0       -7.069239    1.570648    0.470203
    138          1           0       -7.727208   -0.327434   -0.189526
 ---------------------------------------------------------------------

 SCF Done:  E(RB3LYP) =  -2733.07081255     A.U. after   17 cycles

 Excitation energies and oscillator strengths:

 Excited State   1:      Singlet-A      2.0618 eV  601.34 nm  f=0.1278  <S**2>=0.000
     235 -> 238        0.34010
     236 -> 237        0.61488
 This state for optimization and/or second-order correction.
 Total Energy, E(TD-HF/TD-KS) =  -2732.99504285
 Copying the excited state density for this state as the 1-particle RhoCI density.

 The electronic state is 1-A.
 Alpha  occ. eigenvalues --  -19.19555 -19.15106 -19.12262 -19.11566 -19.11253
 Alpha  occ. eigenvalues --  -14.37626 -14.35720 -14.32818 -14.30163 -10.31278
 Alpha  occ. eigenvalues --  -10.30785 -10.27516 -10.26726 -10.24497 -10.24118
 Alpha  occ. eigenvalues --  -10.23637 -10.23620 -10.23498 -10.22557 -10.22302
 Alpha  occ. eigenvalues --  -10.22032 -10.21827 -10.21641 -10.21459 -10.21317
 Alpha  occ. eigenvalues --  -10.21255 -10.21226 -10.21215 -10.21007 -10.20894
 Alpha  occ. eigenvalues --  -10.20680 -10.20675 -10.20605 -10.20553 -10.20491
 Alpha  occ. eigenvalues --  -10.20419 -10.20232 -10.20190 -10.20178 -10.20128
 Alpha  occ. eigenvalues --  -10.19845 -10.19802 -10.19748 -10.19736 -10.19583
 Alpha  occ. eigenvalues --  -10.19298 -10.19158 -10.19132 -10.19123 -10.18968
 Alpha  occ. eigenvalues --  -10.18959 -10.18833 -10.18800 -10.18796 -10.18662
 Alpha  occ. eigenvalues --  -10.18581 -10.18542 -10.18055 -10.17969 -10.17841
 Alpha  occ. eigenvalues --  -10.17781 -10.17649 -10.16835 -10.16651  -1.12091
 Alpha  occ. eigenvalues --   -1.07563  -1.00395  -0.99400  -0.99268  -0.98645
 Alpha  occ. eigenvalues --   -0.97791  -0.96205  -0.92641  -0.84800  -0.82652
 Alpha  occ. eigenvalues --   -0.81920  -0.81631  -0.81322  -0.80932  -0.80697
 Alpha  occ. eigenvalues --   -0.80613  -0.79188  -0.79003  -0.78656  -0.77343
 Alpha  occ. eigenvalues --   -0.76124  -0.75831  -0.75611  -0.74722  -0.74124
 Alpha  occ. eigenvalues --   -0.73026  -0.72817  -0.72232  -0.71674  -0.70651
 Alpha  occ. eigenvalues --   -0.70304  -0.69524  -0.69262  -0.68238  -0.67992
 Alpha  occ. eigenvalues --   -0.67609  -0.67448  -0.65874  -0.65404  -0.65216
 Alpha  occ. eigenvalues --   -0.64299  -0.63309  -0.62604  -0.61997  -0.61291
 Alpha  occ. eigenvalues --   -0.60726  -0.58876  -0.58320  -0.57981  -0.57560
 Alpha  occ. eigenvalues --   -0.57219  -0.56863  -0.56827  -0.56336  -0.56256
 Alpha  occ. eigenvalues --   -0.55272  -0.53976  -0.53890  -0.53790  -0.53567
 Alpha  occ. eigenvalues --   -0.53333  -0.51817  -0.51209  -0.50757  -0.50332
 Alpha  occ. eigenvalues --   -0.49980  -0.49368  -0.48790  -0.48492  -0.48055
 Alpha  occ. eigenvalues --   -0.47935  -0.47355  -0.47201  -0.47063  -0.46672
 Alpha  occ. eigenvalues --   -0.46370  -0.46192  -0.46174  -0.46004  -0.45681
 Alpha  occ. eigenvalues --   -0.45466  -0.45281  -0.45058  -0.44658  -0.44393
 Alpha  occ. eigenvalues --   -0.44201  -0.44091  -0.44052  -0.43698  -0.43635
 Alpha  occ. eigenvalues --   -0.43590  -0.43331  -0.43245  -0.42834  -0.42474
 Alpha  occ. eigenvalues --   -0.42248  -0.42032  -0.41959  -0.41638  -0.41399
 Alpha  occ. eigenvalues --   -0.41131  -0.40875  -0.40833  -0.40759  -0.40635
 Alpha  occ. eigenvalues --   -0.40148  -0.40008  -0.39613  -0.39380  -0.39253
 Alpha  occ. eigenvalues --   -0.39169  -0.39009  -0.38705  -0.38535  -0.38493
 Alpha  occ. eigenvalues --   -0.38438  -0.38172  -0.37998  -0.37722  -0.37609
 Alpha  occ. eigenvalues --   -0.37456  -0.37385  -0.36896  -0.36689  -0.36530
 Alpha  occ. eigenvalues --   -0.36513  -0.36280  -0.36109  -0.35887  -0.35647
 Alpha  occ. eigenvalues --   -0.35555  -0.35328  -0.35262  -0.34744  -0.34615
 Alpha  occ. eigenvalues --   -0.34501  -0.34337  -0.34242  -0.34038  -0.33939
 Alpha  occ. eigenvalues --   -0.33694  -0.33053  -0.32939  -0.32750  -0.32531
 Alpha  occ. eigenvalues --   -0.32200  -0.32120  -0.32072  -0.32011  -0.31676
 Alpha  occ. eigenvalues --   -0.31470  -0.31111  -0.30691  -0.30522  -0.30220
 Alpha  occ. eigenvalues --   -0.29727  -0.29100  -0.28456  -0.28209  -0.27679
 Alpha  occ. eigenvalues --   -0.27382  -0.27351  -0.26349  -0.26083  -0.25697
 Alpha  occ. eigenvalues --   -0.24338  -0.24227  -0.23432  -0.22537  -0.19700
 Alpha  occ. eigenvalues --   -0.18668
 Alpha virt. eigenvalues --   -0.09744  -0.08094  -0.04731  -0.02487  -0.00423
 Alpha virt. eigenvalues --    0.00086   0.00552   0.00927   0.02047   0.03479
 Alpha virt. eigenvalues --    0.03660   0.04199   0.04551   0.04577   0.04889

 Mulliken charges:
               1
     1  C   -0.020670
     2  C   -0.057977
     3  C   -0.107400
     4  C   -0.097020
     5  N   -0.125629
     6  C   -0.066052
     7  C   -0.055378
     8  C   -0.071440
     9  C   -0.033330
    10  C    0.058732
    11  C    0.130918
    12  C    0.017661
    13  C    0.143555
    14  O   -0.279365
    15  O   -0.231049
    16  N   -0.084428
    17  C    0.151255
    18  C   -0.143855
    19  C    0.066139
    20  C    0.100467
    21  C    0.081749
    22  C   -0.112313
    23  C   -0.074358
    24  N   -0.324862
    25  C    0.108264
    26  C   -0.156567
    27  C   -0.125125
    28  C    0.122005
    29  C    0.184009
    30  C    0.052988
    31  C   -0.033950
    32  N    0.021102
    33  C    0.016396
    34  C   -0.103106
    35  C    0.083906
    36  C    0.052663
    37  C    0.047026
    38  C   -0.005940
    39  O   -0.216301
    40  C    0.033253
    41  C    0.204583
    42  O   -0.188703
    43  O   -0.382174
    44  C    0.199329
    45  C    0.163394
    46  C   -0.020834
    47  C   -0.146577
    48  C    0.128700
    49  C    0.147484
    50  C   -0.061971
    51  C   -0.011671
    52  C   -0.047542
    53  C    0.093355
    54  C    0.015651
    55  C    0.053802
    56  C    0.046392
    57  C   -0.077999
    58  C   -0.062441
    59  C   -0.011936
    60  C   -0.002761
    61  C    0.033476
    62  C    0.047618
    63  C   -0.049576
    64  C    0.109377
    65  H   -0.056332
    66  H   -0.028485
    67  H   -0.010460
    68  H    0.060415
    69  H    0.007612
    70  H   -0.009479
    71  H    0.000837
    72  H    0.028600
    73  H    0.000956
    74  H    0.018747
    75  H    0.022903
    76  H    0.046887
    77  H    0.047930
    78  H    0.043145
    79  H    0.026480
    80  H    0.032833
    81  H    0.042994
    82  H    0.023171
    83  H   -0.003925
    84  H   -0.000360
    85  H   -0.000213
    86  H   -0.010506
    87  H    0.024024
    88  H    0.029839
    89  H    0.024539
    90  H    0.043743
    91  H    0.044701
    92  H    0.015521
    93  H    0.038684
    94  H    0.011384
    95  H    0.020657
    96  H    0.028136
    97  H    0.051718
    98  H    0.053244
    99  H    0.041054
   100  H   -0.063285
   101  H   -0.028616
   102  H    0.003104
   103  H    0.004886
   104  H   -0.013139
   105  H    0.000801
   106  H    0.024107
   107  H    0.008836
   108  H    0.001247
   109  H    0.001783
   110  H   -0.009658
   111  H   -0.027003
   112  H   -0.002446
   113  H   -0.021560
   114  H   -0.015576
   115  H   -0.017636
   116  H    0.014480
   117  H   -0.001109
   118  H   -0.013638
   119  H   -0.034972
   120  H    0.020785
   121  H    0.028497
   122  H    0.036569
   123  H    0.025724
   124  H    0.011294
   125  H    0.012764
   126  H    0.017758
   127  H   -0.001993
   128  H   -0.030524
   129  H   -0.024548
   130  H   -0.038336
   131  H    0.003214
   132  H    0.006696
   133  H    0.018301
   134  H    0.000684
   135  H    0.001067
   136  H   -0.073181
   137  H    0.176428
   138  H    0.162252
 Sum of Mulliken charges =   0.00000

 Dipole moment (field-independent basis, Debye):
    X=              2.8232    Y=              5.8717    Z=              1.0276  Tot=              6.5958
 Quadrupole moment (field-independent basis, Debye-Ang):
   XX=           -353.9277   YY=           -383.5730   ZZ=           -394.8245
   XY=            -31.3398   XZ=             12.8935   YZ=              0.9823

 Normal termination of Gaussian 09 at Sun Aug  4 17:38:49 2019.
