 Gaussian 09, Revision D.01,
 Gaussian 09:  ES64L-G09RevD.01 24-Apr-2013

 --------------------------
 # td=(NStates=1) B3LYP/SVP
 --------------------------

 --
 TD
 --
 Symbolic Z-matrix:
 Charge =  0 Multiplicity = 1

                         Standard orientation:
 ---------------------------------------------------------------------
 Center     Atomic      Atomic             Coordinates (Angstroms)
 Number     Number       Type             X           Y           Z
 ---------------------------------------------------------------------
      1          6           0       -5.025950   -1.892331    0.522868
      2          6           0       -4.835102    2.711925    1.283424
      3          6           0       -9.446758    3.288638   -0.168477
      4          6           0       -9.747666   -1.603262   -0.791938
      5          7           0       -5.139781    0.391214    0.860365
      6          6           0       -4.458332   -0.738119    0.819854
      7          6           0       -2.999672   -0.551629    1.277073
      8          6           0       -2.945908    0.988837    1.797121
      9          6           0       -4.427974    1.304601    1.325935
     10          6           0       -2.898969    0.898905    3.362498
     11          6           0       -1.980014   -0.772479    0.029727
     12          6           0       -0.606501   -0.779621    0.576314
     13          6           0        0.357953   -0.956042   -0.575647
     14          8           0        0.027900   -1.160805   -1.774501
     15          8           0        1.634644   -0.678683   -0.301733
     16          7           0       -7.141048    2.660719    0.431720
     17          6           0       -6.042590    3.239910    1.042065
     18          6           0       -6.378619    4.752311    1.011340
     19          6           0       -7.593265    4.940582    0.528686
     20          6           0       -8.048766    3.523630    0.126545
     21          6           0       -5.423224    5.746787    1.546812
     22          6           0       -8.313289    6.249049    0.376592
     23          6           0       -9.063852    6.571926   -0.615232
     24          7           0       -9.211048    0.812045   -0.411759
     25          6           0       -9.975116    2.030495   -0.531566
     26          6           0      -11.368697    1.777754   -0.962405
     27          6           0      -11.484140    0.405620   -0.994080
     28          6           0      -10.138385   -0.237212   -0.755167
     29          6           0      -12.406745    2.822274   -1.017659
     30          6           0      -12.720628   -0.272529   -1.514601
     31          6           0      -12.817414   -0.571857   -3.010229
     32          7           0       -7.426871   -1.326952   -0.140907
     33          6           0       -8.507762   -2.096674   -0.556011
     34          6           0       -8.178185   -3.536226   -0.547037
     35          6           0       -6.786654   -3.474770   -0.158246
     36          6           0       -6.385547   -2.133081    0.155990
     37          6           0       -9.052522   -4.609222   -0.950069
     38          6           0       -5.640105   -4.287673    0.020032
     39          8           0       -5.445484   -5.532595   -0.132952
     40          6           0       -4.374697   -3.297618    0.390362
     41          6           0       -3.755152   -3.873159    1.689817
     42          8           0       -4.038953   -3.461851    2.756610
     43          8           0       -2.954888   -4.807782    1.476747
     44          6           0       -2.190624   -5.525124    2.593681
     45          6           0        2.648492   -0.830707   -1.336333
     46          6           0        4.001031   -0.517831   -0.843368
     47          6           0        4.917327    0.421111   -1.167144
     48          6           0        4.797223    1.334054   -2.373402
     49          6           0        6.285170    0.511192   -0.348635
     50          6           0        7.497250   -0.019459   -1.214962
     51          6           0        8.769105   -0.080305   -0.279580
     52          6           0        9.995278   -0.627971   -0.943992
     53          6           0       10.018592   -2.171275   -1.135841
     54          6           0       11.219485   -0.238727   -0.015180
     55          6           0       12.607311   -0.456832   -0.695576
     56          6           0       13.772413    0.106668    0.026898
     57          6           0       15.229135   -0.177844   -0.418156
     58          6           0       15.525733   -1.648699   -0.624950
     59          6           0       16.310121    0.492705    0.491978
     60          6           0       17.670973    0.729814   -0.208832
     61          6           0       18.630414    1.403047    0.823812
     62          6           0       20.109017    1.462881    0.448802
     63          6           0       20.289282    1.886724   -1.052997
     64          6           0       20.969970    2.161501    1.458014
     65          1           0       -4.064500    3.383544    1.617225
     66          1           0       -9.955735    4.157752   -0.188955
     67          1           0      -10.566719   -2.432052   -0.753806
     68          1           0       -2.747894   -1.150783    2.015675
     69          1           0       -2.162178    1.514853    1.336201
     70          1           0       -1.917814    0.510290    3.561205
     71          1           0       -2.841530    1.956762    3.701330
     72          1           0       -3.459348    0.162366    3.883012
     73          1           0       -2.098818   -1.754425   -0.312483
     74          1           0       -2.332966   -0.018167   -0.544782
     75          1           0       -0.199658    0.123142    1.141490
     76          1           0       -0.376160   -1.547970    1.325628
     77          1           0       -4.440410    5.777681    0.898248
     78          1           0       -5.692125    6.815761    1.713135
     79          1           0       -4.963662    5.814892    2.614556
     80          1           0       -8.211330    6.904487    1.161364
     81          1           0       -9.325386    5.852874   -1.432134
     82          1           0       -9.933314    7.464210   -0.747971
     83          1           0      -12.410553    3.491501   -0.259852
     84          1           0      -12.452106    3.469688   -1.906902
     85          1           0      -13.408421    2.525148   -1.217640
     86          1           0      -12.855552   -1.426480   -1.170536
     87          1           0      -13.620476    0.413034   -1.227048
     88          1           0      -12.403843    0.398430   -3.620074
     89          1           0      -12.138944   -1.363093   -3.378580
     90          1           0      -14.011006   -0.565402   -3.283328
     91          1           0       -9.957847   -4.676867   -0.443393
     92          1           0       -8.948299   -4.655683   -1.977706
     93          1           0       -8.535661   -5.540473   -0.605906
     94          1           0       -3.509337   -3.436085   -0.257300
     95          1           0       -1.610495   -6.198011    2.230943
     96          1           0       -1.731251   -4.661943    3.101729
     97          1           0       -2.935182   -5.779858    3.340312
     98          1           0        2.665564   -1.920667   -1.639808
     99          1           0        2.505030   -0.075929   -2.242004
    100          1           0        4.088091   -1.028838    0.225029
    101          1           0        5.340611    2.417660   -2.125558
    102          1           0        5.479382    1.001396   -3.317142
    103          1           0        3.850868    1.520491   -2.830819
    104          1           0        6.527559    1.532553   -0.108610
    105          1           0        6.185400   -0.090135    0.565339
    106          1           0        7.365776   -1.075868   -1.744196
    107          1           0        7.719550    0.449701   -2.197814
    108          1           0        8.959630    0.719374    0.039048
    109          1           0        8.485227   -0.796098    0.524430
    110          1           0       10.162780   -0.075887   -1.855789
    111          1           0        9.162019   -2.325472   -1.802018
    112          1           0       10.875943   -2.510661   -1.615091
    113          1           0        9.712259   -2.656356   -0.174894
    114          1           0       11.075834    0.815870    0.144580
    115          1           0       11.163580   -0.658764    0.882972
    116          1           0       12.713707   -1.475325   -1.031721
    117          1           0       12.652927   -0.015003   -1.726132
    118          1           0       13.680737    1.342250    0.044289
    119          1           0       13.659018   -0.146100    1.211595
    120          1           0       15.172749    0.210159   -1.299890
    121          1           0       14.882736   -2.127383   -1.485202
    122          1           0       16.489219   -1.957401   -0.887553
    123          1           0       15.346985   -2.443670    0.221598
    124          1           0       15.963615    1.498121    0.887280
    125          1           0       16.321296   -0.240649    1.408376
    126          1           0       18.130232   -0.180907   -0.697118
    127          1           0       17.651916    1.518925   -1.097620
    128          1           0       18.265780    2.426724    1.091074
    129          1           0       18.467226    0.824016    1.779381
    130          1           0       20.423074    0.464990    0.455213
    131          1           0       19.908862    2.977818   -1.218262
    132          1           0       21.280659    1.822929   -1.275801
    133          1           0       19.822374    1.382912   -1.776808
    134          1           0       20.815950    1.661760    2.475061
    135          1           0       22.048922    2.022581    1.149055
    136          1           0       20.632634    3.142135    1.551034
    137          1           0       -7.256076    1.536703    0.419945
    138          1           0       -7.550325   -0.350506   -0.121989
 ---------------------------------------------------------------------

 SCF Done:  E(RB3LYP) =  -2733.04055841     A.U. after   17 cycles

 Excitation energies and oscillator strengths:

 Excited State   1:      Singlet-A      2.1195 eV  584.98 nm  f=0.2073  <S**2>=0.000
     235 -> 238       -0.23154
     236 -> 237        0.65517
     236 -> 238       -0.10370
 This state for optimization and/or second-order correction.
 Total Energy, E(TD-HF/TD-KS) =  -2732.96266959
 Copying the excited state density for this state as the 1-particle RhoCI density.

 The electronic state is 1-A.
 Alpha  occ. eigenvalues --  -19.18018 -19.17251 -19.11242 -19.10542 -19.09685
 Alpha  occ. eigenvalues --  -14.38093 -14.36930 -14.32014 -14.30360 -10.31441
 Alpha  occ. eigenvalues --  -10.29409 -10.26803 -10.26023 -10.25126 -10.24394
 Alpha  occ. eigenvalues --  -10.24031 -10.23601 -10.23150 -10.22593 -10.21963
 Alpha  occ. eigenvalues --  -10.21783 -10.21640 -10.21570 -10.21559 -10.21430
 Alpha  occ. eigenvalues --  -10.21339 -10.21111 -10.21087 -10.20923 -10.20846
 Alpha  occ. eigenvalues --  -10.20651 -10.20365 -10.20332 -10.20324 -10.20321
 Alpha  occ. eigenvalues --  -10.20264 -10.19964 -10.19882 -10.19769 -10.19660
 Alpha  occ. eigenvalues --  -10.19514 -10.19448 -10.19425 -10.19070 -10.19053
 Alpha  occ. eigenvalues --  -10.18979 -10.18907 -10.18889 -10.18763 -10.18673
 Alpha  occ. eigenvalues --  -10.18572 -10.18533 -10.18358 -10.18263 -10.17957
 Alpha  occ. eigenvalues --  -10.17924 -10.17861 -10.17839 -10.17829 -10.17762
 Alpha  occ. eigenvalues --  -10.17477 -10.16825 -10.16546 -10.16461  -1.10984
 Alpha  occ. eigenvalues --   -1.08848  -1.00114  -0.99427  -0.98696  -0.97859
 Alpha  occ. eigenvalues --   -0.97671  -0.97455  -0.89564  -0.83939  -0.82491
 Alpha  occ. eigenvalues --   -0.82425  -0.81991  -0.81359  -0.81294  -0.80814
 Alpha  occ. eigenvalues --   -0.80250  -0.79941  -0.78913  -0.78329  -0.77685
 Alpha  occ. eigenvalues --   -0.76912  -0.76438  -0.76076  -0.75138  -0.74756
 Alpha  occ. eigenvalues --   -0.74200  -0.73460  -0.73175  -0.71841  -0.70943
 Alpha  occ. eigenvalues --   -0.70212  -0.69641  -0.68682  -0.68573  -0.68440
 Alpha  occ. eigenvalues --   -0.68041  -0.66890  -0.66118  -0.65849  -0.65411
 Alpha  occ. eigenvalues --   -0.64142  -0.63318  -0.62820  -0.61750  -0.61278
 Alpha  occ. eigenvalues --   -0.59858  -0.59595  -0.59335  -0.58504  -0.57617
 Alpha  occ. eigenvalues --   -0.57514  -0.56799  -0.56278  -0.56077  -0.55743
 Alpha  occ. eigenvalues --   -0.55628  -0.55286  -0.54955  -0.54633  -0.52616
 Alpha  occ. eigenvalues --   -0.52308  -0.51895  -0.51430  -0.50874  -0.50586
 Alpha  occ. eigenvalues --   -0.50290  -0.49403  -0.49196  -0.49033  -0.48794
 Alpha  occ. eigenvalues --   -0.48372  -0.47827  -0.47226  -0.47141  -0.47050
 Alpha  occ. eigenvalues --   -0.47003  -0.46822  -0.46595  -0.46425  -0.45988
 Alpha  occ. eigenvalues --   -0.45691  -0.45251  -0.45033  -0.44890  -0.44687
 Alpha  occ. eigenvalues --   -0.44525  -0.44463  -0.44334  -0.43930  -0.43773
 Alpha  occ. eigenvalues --   -0.43431  -0.43171  -0.43048  -0.42842  -0.42710
 Alpha  occ. eigenvalues --   -0.42657  -0.42560  -0.42027  -0.41651  -0.41608
 Alpha  occ. eigenvalues --   -0.41521  -0.40998  -0.40942  -0.40499  -0.40315
 Alpha  occ. eigenvalues --   -0.40183  -0.39908  -0.39708  -0.39614  -0.39198
 Alpha  occ. eigenvalues --   -0.39052  -0.38861  -0.38699  -0.38624  -0.38580
 Alpha  occ. eigenvalues --   -0.38385  -0.37875  -0.37870  -0.37578  -0.37278
 Alpha  occ. eigenvalues --   -0.37211  -0.36972  -0.36854  -0.36558  -0.36422
 Alpha  occ. eigenvalues --   -0.36356  -0.36279  -0.36122  -0.36009  -0.35655
 Alpha  occ. eigenvalues --   -0.35580  -0.35089  -0.35039  -0.34971  -0.34919
 Alpha  occ. eigenvalues --   -0.34557  -0.34542  -0.33882  -0.33728  -0.33534
 Alpha  occ. eigenvalues --   -0.33301  -0.33159  -0.33091  -0.32486  -0.32201
 Alpha  occ. eigenvalues --   -0.32044  -0.32030  -0.31664  -0.31431  -0.30740
 Alpha  occ. eigenvalues --   -0.30666  -0.30563  -0.30428  -0.30140  -0.30041
 Alpha  occ. eigenvalues --   -0.29926  -0.29601  -0.28598  -0.28018  -0.27454
 Alpha  occ. eigenvalues --   -0.26856  -0.26640  -0.26507  -0.25776  -0.25601
 Alpha  occ. eigenvalues --   -0.25483  -0.25023  -0.23398  -0.22262  -0.20339
 Alpha  occ. eigenvalues --   -0.17914
 Alpha virt. eigenvalues --   -0.09439  -0.07362  -0.04211  -0.01643  -0.00987
 Alpha virt. eigenvalues --   -0.00482   0.00697   0.02386   0.03443   0.03914
 Alpha virt. eigenvalues --    0.04058   0.04287   0.04551   0.04698   0.05167

 Mulliken charges:
               1
     1  C    0.156838
     2  C   -0.032159
     3  C   -0.025754
     4  C   -0.102536
     5  N   -0.050507
     6  C   -0.137331
     7  C    0.001419
     8  C   -0.075902
     9  C   -0.060308
    10  C    0.106455
    11  C    0.167659
    12  C    0.020599
    13  C    0.178094
    14  O   -0.287985
    15  O   -0.304303
    16  N   -0.049360
    17  C    0.112275
    18  C   -0.037120
    19  C   -0.008185
    20  C    0.026888
    21  C   -0.023327
    22  C    0.033767
    23  C   -0.091452
    24  N   -0.370729
    25  C    0.120220
    26  C   -0.087134
    27  C   -0.054356
    28  C    0.092944
    29  C    0.165192
    30  C   -0.010428
    31  C   -0.051794
    32  N    0.007624
    33  C    0.044979
    34  C   -0.173795
    35  C    0.066910
    36  C    0.027928
    37  C    0.199279
    38  C    0.041446
    39  O   -0.239953
    40  C   -0.094986
    41  C    0.114134
    42  O   -0.229431
    43  O   -0.265345
    44  C    0.279807
    45  C    0.270982
    46  C   -0.145096
    47  C   -0.095440
    48  C   -0.020765
    49  C    0.122831
    50  C   -0.057555
    51  C    0.208854
    52  C   -0.122665
    53  C    0.096625
    54  C    0.093674
    55  C    0.071693
    56  C   -0.064514
    57  C    0.094374
    58  C   -0.012218
    59  C    0.003294
    60  C   -0.020832
    61  C   -0.010100
    62  C   -0.054372
    63  C    0.081513
    64  C    0.060505
    65  H   -0.034934
    66  H   -0.085865
    67  H    0.015777
    68  H   -0.063205
    69  H   -0.004920
    70  H   -0.015015
    71  H    0.013239
    72  H    0.034919
    73  H    0.004114
    74  H   -0.011217
    75  H    0.032098
    76  H    0.024342
    77  H    0.039289
    78  H    0.007565
    79  H    0.030245
    80  H   -0.017537
    81  H    0.035797
    82  H    0.050138
    83  H   -0.002409
    84  H   -0.008738
    85  H   -0.026553
    86  H    0.015810
    87  H    0.022957
    88  H    0.007007
    89  H    0.029078
    90  H    0.036832
    91  H    0.018228
    92  H    0.021775
    93  H    0.022104
    94  H    0.039457
    95  H    0.008690
    96  H    0.023913
    97  H    0.039985
    98  H    0.035527
    99  H    0.035360
   100  H    0.007155
   101  H    0.029935
   102  H    0.044064
   103  H    0.023281
   104  H    0.002637
   105  H    0.005196
   106  H    0.002199
   107  H   -0.006336
   108  H   -0.128861
   109  H   -0.011703
   110  H   -0.026509
   111  H   -0.013437
   112  H    0.001694
   113  H    0.009611
   114  H   -0.026358
   115  H   -0.047449
   116  H   -0.020969
   117  H   -0.026065
   118  H    0.003948
   119  H   -0.005593
   120  H   -0.072091
   121  H    0.007185
   122  H   -0.016407
   123  H    0.004728
   124  H    0.002386
   125  H    0.017181
   126  H    0.012255
   127  H    0.015558
   128  H   -0.008914
   129  H   -0.010540
   130  H   -0.031263
   131  H    0.001457
   132  H   -0.026446
   133  H   -0.023906
   134  H    0.009788
   135  H    0.017136
   136  H   -0.008337
   137  H    0.221573
   138  H    0.097298
 Sum of Mulliken charges =   0.00000

 Dipole moment (field-independent basis, Debye):
    X=              3.5683    Y=              4.3404    Z=              1.8518  Tot=              5.9161
 Quadrupole moment (field-independent basis, Debye-Ang):
   XX=           -355.5772   YY=           -377.4067   ZZ=           -395.0607
   XY=            -33.1304   XZ=             -2.8974   YZ=             -3.3654

 Normal termination of Gaussian 09 at Sun Aug  4 14:36:51 2019.
