 Gaussian 09, Revision D.01,
 Gaussian 09:  ES64L-G09RevD.01 24-Apr-2013

 --------------------------
 # td=(NStates=1) B3LYP/SVP
 --------------------------

 --
 TD
 --
 Symbolic Z-matrix:
 Charge =  0 Multiplicity = 1

                         Standard orientation:
 ---------------------------------------------------------------------
 Center     Atomic      Atomic             Coordinates (Angstroms)
 Number     Number       Type             X           Y           Z
 ---------------------------------------------------------------------
      1          6           0       -5.112782   -1.926475    0.359757
      2          6           0       -4.732532    2.647469    1.639602
      3          6           0       -9.137999    3.448129   -0.236876
      4          6           0       -9.803304   -1.310428   -1.005730
      5          7           0       -5.241716    0.447669    1.007521
      6          6           0       -4.535523   -0.812238    0.837894
      7          6           0       -3.021803   -0.655875    1.314702
      8          6           0       -3.184924    0.738114    2.067067
      9          6           0       -4.488546    1.320512    1.513110
     10          6           0       -3.064247    0.783650    3.532653
     11          6           0       -1.935306   -0.733595    0.213827
     12          6           0       -0.557810   -0.812864    0.620500
     13          6           0        0.330138   -1.062531   -0.521989
     14          8           0       -0.009522   -1.419296   -1.622609
     15          8           0        1.683223   -0.974153   -0.071313
     16          7           0       -7.016576    2.757529    0.691106
     17          6           0       -5.886249    3.358652    1.221043
     18          6           0       -6.146907    4.724280    1.138115
     19          6           0       -7.416632    5.043140    0.460964
     20          6           0       -7.919920    3.620771    0.343677
     21          6           0       -5.220669    5.793980    1.706535
     22          6           0       -8.027434    6.230286    0.451042
     23          6           0       -8.919053    6.676151   -0.563113
     24          7           0       -9.083345    0.990147   -0.607727
     25          6           0       -9.699885    2.137886   -0.631530
     26          6           0      -11.139087    1.989950   -1.193646
     27          6           0      -11.363045    0.590556   -1.358620
     28          6           0      -10.026237    0.020344   -1.063196
     29          6           0      -12.142810    3.103923   -1.380912
     30          6           0      -12.529034   -0.187361   -1.825614
     31          6           0      -12.459508   -0.280122   -3.366207
     32          7           0       -7.500573   -1.209614   -0.289227
     33          6           0       -8.626167   -2.025532   -0.641201
     34          6           0       -8.157045   -3.482758   -0.707830
     35          6           0       -6.873981   -3.374737   -0.349750
     36          6           0       -6.488975   -2.011075   -0.020165
     37          6           0       -9.044086   -4.656953   -1.074331
     38          6           0       -5.765345   -4.271147   -0.051267
     39          8           0       -5.616970   -5.486134   -0.122891
     40          6           0       -4.623098   -3.355511    0.427680
     41          6           0       -3.938782   -3.814110    1.791530
     42          8           0       -4.442624   -3.482460    2.789876
     43          8           0       -3.044337   -4.754684    1.420933
     44          6           0       -2.613662   -5.409574    2.691896
     45          6           0        2.642060   -1.144929   -1.211879
     46          6           0        3.961762   -0.819075   -0.618904
     47          6           0        4.968099   -0.045747   -1.062835
     48          6           0        4.958399    0.713097   -2.390938
     49          6           0        6.242931    0.188638   -0.231645
     50          6           0        7.413438   -0.479626   -0.858176
     51          6           0        8.768694   -0.385637   -0.045220
     52          6           0       10.031787   -0.878653   -0.673047
     53          6           0       10.014004   -2.414138   -0.754851
     54          6           0       11.194513   -0.243186    0.060490
     55          6           0       12.568154   -0.450033   -0.515733
     56          6           0       13.772559    0.152968    0.210121
     57          6           0       15.206319   -0.201278   -0.302823
     58          6           0       15.673328   -1.768874   -0.209306
     59          6           0       16.184236    0.795961    0.310348
     60          6           0       17.636999    0.663660   -0.183667
     61          6           0       18.457714    1.836252    0.341197
     62          6           0       19.933630    1.672512   -0.004219
     63          6           0       20.265873    2.018798   -1.523434
     64          6           0       20.835532    2.696408    0.817472
     65          1           0       -3.729629    3.354803    1.815193
     66          1           0       -9.746083    4.281900   -0.439494
     67          1           0      -10.774484   -1.986676   -1.474443
     68          1           0       -2.719104   -1.395027    2.090269
     69          1           0       -2.225248    1.289755    1.776214
     70          1           0       -2.062105    0.271986    4.054120
     71          1           0       -3.193589    1.681984    4.032171
     72          1           0       -3.970786    0.182855    3.974410
     73          1           0       -2.267676   -1.670997   -0.388945
     74          1           0       -2.167581   -0.004302   -0.565214
     75          1           0       -0.452140    0.117070    1.027166
     76          1           0       -0.370241   -1.560653    1.534327
     77          1           0       -4.258774    5.807248    1.214979
     78          1           0       -5.714001    6.812977    1.515850
     79          1           0       -5.037700    5.390587    2.802512
     80          1           0       -7.657538    6.804683    1.428458
     81          1           0       -9.138169    6.159164   -1.398049
     82          1           0       -9.347802    7.637487   -0.580271
     83          1           0      -12.461781    3.843889   -0.560403
     84          1           0      -11.667380    3.589711   -2.194228
     85          1           0      -12.917628    2.753670   -1.992112
     86          1           0      -12.693785   -1.100653   -1.357156
     87          1           0      -13.400039    0.399051   -1.675456
     88          1           0      -12.340632    0.725532   -3.857232
     89          1           0      -11.550358   -0.869805   -3.738713
     90          1           0      -13.580869   -0.672990   -3.607984
     91          1           0      -10.032064   -4.376802   -0.482649
     92          1           0       -9.156042   -4.531510   -2.110221
     93          1           0       -8.309855   -5.343471   -0.972011
     94          1           0       -3.915954   -3.559094   -0.417318
     95          1           0       -1.579760   -5.816551    2.321024
     96          1           0       -2.591109   -4.685557    3.758467
     97          1           0       -3.307159   -6.417703    2.923536
     98          1           0        2.513136   -2.152774   -1.529990
     99          1           0        2.292650   -0.567258   -2.129659
    100          1           0        4.248055   -1.302389    0.513396
    101          1           0        4.845716    1.900846   -2.196993
    102          1           0        5.754377    0.496957   -3.133544
    103          1           0        4.052533    0.385651   -3.114701
    104          1           0        6.345069    1.421925   -0.150118
    105          1           0        5.875283   -0.015555    0.818278
    106          1           0        7.206239   -1.528188   -1.149702
    107          1           0        7.492721    0.000431   -1.863806
    108          1           0        8.958419    0.650991    0.219071
    109          1           0        8.507197   -0.871114    0.962676
    110          1           0        9.994263   -0.641778   -1.884751
    111          1           0        8.825745   -2.935046   -1.144243
    112          1           0       10.733459   -2.931145   -1.346246
    113          1           0       10.115790   -2.945877    0.370526
    114          1           0       11.103435    0.930952   -0.024256
    115          1           0       11.128757   -0.377102    1.091365
    116          1           0       12.704577   -1.631395   -0.475762
    117          1           0       12.436446   -0.069754   -1.687927
    118          1           0       13.753321    1.136692    0.290990
    119          1           0       13.760222   -0.352775    1.198808
    120          1           0       15.200348   -0.073282   -1.489640
    121          1           0       14.790320   -2.360264   -0.530262
    122          1           0       16.492438   -1.848694   -0.921067
    123          1           0       15.860377   -2.101427    0.816072
    124          1           0       15.826928    1.798211    0.061926
    125          1           0       16.183457    0.643218    1.474376
    126          1           0       18.273936   -0.323614    0.191642
    127          1           0       17.593846    0.721436   -1.351210
    128          1           0       18.001016    2.770429    0.336452
    129          1           0       18.215788    1.994357    1.604696
    130          1           0       20.402692    0.720916    0.161783
    131          1           0       20.018184    3.253951   -1.792151
    132          1           0       21.342095    1.744852   -1.808463
    133          1           0       19.661288    1.441282   -2.171910
    134          1           0       20.628907    2.517425    1.982278
    135          1           0       21.878080    2.343526    0.612696
    136          1           0       20.593808    3.829158    0.458932
    137          1           0       -7.045025    1.829190    0.525208
    138          1           0       -7.638207   -0.293987    0.029314
 ---------------------------------------------------------------------

 SCF Done:  E(RB3LYP) =  -2732.98416363     A.U. after   17 cycles

 Excitation energies and oscillator strengths:

 Excited State   1:      Singlet-A      2.0111 eV  616.50 nm  f=0.1747  <S**2>=0.000
     235 -> 238        0.25526
     236 -> 237        0.65296
 This state for optimization and/or second-order correction.
 Total Energy, E(TD-HF/TD-KS) =  -2732.91025735
 Copying the excited state density for this state as the 1-particle RhoCI density.

 The electronic state is 1-A.
 Alpha  occ. eigenvalues --  -19.19714 -19.16763 -19.13813 -19.13784 -19.11541
 Alpha  occ. eigenvalues --  -14.37246 -14.36459 -14.31886 -14.30197 -10.32064
 Alpha  occ. eigenvalues --  -10.31794 -10.27961 -10.27059 -10.24771 -10.23850
 Alpha  occ. eigenvalues --  -10.23596 -10.23584 -10.23346 -10.23000 -10.22018
 Alpha  occ. eigenvalues --  -10.22006 -10.21984 -10.21735 -10.21424 -10.20947
 Alpha  occ. eigenvalues --  -10.20937 -10.20914 -10.20689 -10.20654 -10.20643
 Alpha  occ. eigenvalues --  -10.20586 -10.20491 -10.20375 -10.20334 -10.20195
 Alpha  occ. eigenvalues --  -10.20131 -10.20093 -10.20085 -10.20060 -10.19953
 Alpha  occ. eigenvalues --  -10.19933 -10.19906 -10.19874 -10.19827 -10.19803
 Alpha  occ. eigenvalues --  -10.19641 -10.19626 -10.19608 -10.19543 -10.19439
 Alpha  occ. eigenvalues --  -10.19394 -10.19154 -10.19093 -10.19065 -10.19042
 Alpha  occ. eigenvalues --  -10.18991 -10.18931 -10.18743 -10.18636 -10.18625
 Alpha  occ. eigenvalues --  -10.18570 -10.18387 -10.18148 -10.17623  -1.10547
 Alpha  occ. eigenvalues --   -1.07414  -1.03668  -1.01514  -1.00239  -0.99883
 Alpha  occ. eigenvalues --   -0.98389  -0.94457  -0.92597  -0.84621  -0.82920
 Alpha  occ. eigenvalues --   -0.82570  -0.82330  -0.81547  -0.81354  -0.80739
 Alpha  occ. eigenvalues --   -0.80704  -0.80025  -0.78965  -0.78233  -0.77835
 Alpha  occ. eigenvalues --   -0.76501  -0.76097  -0.74967  -0.74880  -0.74532
 Alpha  occ. eigenvalues --   -0.73338  -0.72434  -0.72213  -0.71288  -0.70571
 Alpha  occ. eigenvalues --   -0.70037  -0.69052  -0.68501  -0.67567  -0.67159
 Alpha  occ. eigenvalues --   -0.66761  -0.66478  -0.66340  -0.65357  -0.64988
 Alpha  occ. eigenvalues --   -0.64756  -0.63000  -0.62371  -0.61676  -0.61527
 Alpha  occ. eigenvalues --   -0.60482  -0.58625  -0.58426  -0.57614  -0.56673
 Alpha  occ. eigenvalues --   -0.56270  -0.55820  -0.55647  -0.55569  -0.55216
 Alpha  occ. eigenvalues --   -0.55164  -0.54784  -0.54073  -0.53586  -0.53095
 Alpha  occ. eigenvalues --   -0.52799  -0.51620  -0.50999  -0.50479  -0.50085
 Alpha  occ. eigenvalues --   -0.49563  -0.49456  -0.49080  -0.48430  -0.48380
 Alpha  occ. eigenvalues --   -0.48002  -0.47914  -0.47413  -0.47293  -0.46917
 Alpha  occ. eigenvalues --   -0.46790  -0.46589  -0.46009  -0.45796  -0.45659
 Alpha  occ. eigenvalues --   -0.45415  -0.45392  -0.45040  -0.44960  -0.44876
 Alpha  occ. eigenvalues --   -0.44497  -0.44221  -0.43815  -0.43545  -0.43432
 Alpha  occ. eigenvalues --   -0.43248  -0.42958  -0.42719  -0.42657  -0.42120
 Alpha  occ. eigenvalues --   -0.42108  -0.41785  -0.41646  -0.41407  -0.41227
 Alpha  occ. eigenvalues --   -0.41037  -0.40936  -0.40872  -0.40535  -0.40216
 Alpha  occ. eigenvalues --   -0.39895  -0.39722  -0.39545  -0.39419  -0.39272
 Alpha  occ. eigenvalues --   -0.39015  -0.38801  -0.38706  -0.38469  -0.38277
 Alpha  occ. eigenvalues --   -0.38166  -0.38105  -0.37680  -0.37533  -0.37388
 Alpha  occ. eigenvalues --   -0.37294  -0.37201  -0.36901  -0.36802  -0.36510
 Alpha  occ. eigenvalues --   -0.36320  -0.36177  -0.36023  -0.35650  -0.35606
 Alpha  occ. eigenvalues --   -0.35475  -0.34962  -0.34933  -0.34833  -0.34726
 Alpha  occ. eigenvalues --   -0.34644  -0.34243  -0.34094  -0.33893  -0.33722
 Alpha  occ. eigenvalues --   -0.33653  -0.33139  -0.32781  -0.32533  -0.32518
 Alpha  occ. eigenvalues --   -0.31850  -0.31764  -0.31653  -0.31399  -0.30933
 Alpha  occ. eigenvalues --   -0.30747  -0.30310  -0.30136  -0.30009  -0.29964
 Alpha  occ. eigenvalues --   -0.29502  -0.29188  -0.28964  -0.28575  -0.28409
 Alpha  occ. eigenvalues --   -0.27771  -0.27191  -0.26974  -0.26354  -0.26116
 Alpha  occ. eigenvalues --   -0.25144  -0.24498  -0.23176  -0.22215  -0.19590
 Alpha  occ. eigenvalues --   -0.18704
 Alpha virt. eigenvalues --   -0.10187  -0.07481  -0.04352  -0.02716  -0.01328
 Alpha virt. eigenvalues --    0.00025   0.00142   0.00995   0.01664   0.03048
 Alpha virt. eigenvalues --    0.03486   0.03669   0.03763   0.04046   0.04445

 Mulliken charges:
               1
     1  C    0.021026
     2  C   -0.128880
     3  C   -0.071439
     4  C   -0.127882
     5  N   -0.162495
     6  C   -0.065205
     7  C   -0.026981
     8  C   -0.049093
     9  C    0.000938
    10  C    0.031589
    11  C    0.019667
    12  C    0.117103
    13  C    0.199946
    14  O   -0.213773
    15  O   -0.384829
    16  N    0.076013
    17  C    0.108072
    18  C   -0.186806
    19  C    0.038355
    20  C    0.111574
    21  C    0.069638
    22  C   -0.136225
    23  C    0.029402
    24  N   -0.225687
    25  C    0.017778
    26  C   -0.206781
    27  C   -0.099481
    28  C    0.057407
    29  C    0.178305
    30  C    0.156050
    31  C   -0.051726
    32  N    0.018815
    33  C    0.021236
    34  C   -0.191540
    35  C   -0.055061
    36  C    0.069527
    37  C    0.221440
    38  C    0.066095
    39  O   -0.189419
    40  C   -0.024108
    41  C    0.208328
    42  O   -0.163221
    43  O   -0.283692
    44  C    0.029756
    45  C    0.288642
    46  C   -0.083535
    47  C   -0.163917
    48  C   -0.017635
    49  C    0.024065
    50  C    0.044042
    51  C    0.065266
    52  C   -0.058273
    53  C   -0.073630
    54  C    0.044404
    55  C   -0.031814
    56  C    0.144982
    57  C   -0.152716
    58  C    0.028578
    59  C    0.025580
    60  C   -0.005987
    61  C    0.017518
    62  C   -0.048764
    63  C   -0.027435
    64  C   -0.032831
    65  H    0.028634
    66  H   -0.055351
    67  H    0.027568
    68  H   -0.003815
    69  H   -0.007284
    70  H    0.026426
    71  H   -0.006113
    72  H    0.014806
    73  H    0.013224
    74  H   -0.001940
    75  H   -0.012117
    76  H    0.057093
    77  H    0.024703
    78  H    0.026312
    79  H    0.047122
    80  H    0.051910
    81  H    0.008289
    82  H    0.015479
    83  H    0.055752
    84  H   -0.013029
    85  H   -0.038021
    86  H   -0.007688
    87  H   -0.021543
    88  H    0.018647
    89  H    0.031332
    90  H    0.027759
    91  H    0.070233
    92  H    0.008708
    93  H    0.001115
    94  H    0.051100
    95  H    0.060175
    96  H    0.098188
    97  H    0.078113
    98  H    0.009067
    99  H    0.034602
   100  H    0.028233
   101  H    0.048774
   102  H    0.037347
   103  H    0.010964
   104  H    0.012880
   105  H    0.002064
   106  H    0.000321
   107  H   -0.008204
   108  H   -0.020100
   109  H    0.002193
   110  H    0.013265
   111  H    0.025967
   112  H    0.023283
   113  H    0.012414
   114  H   -0.001694
   115  H   -0.023758
   116  H    0.009344
   117  H    0.010851
   118  H   -0.052940
   119  H   -0.010630
   120  H   -0.006637
   121  H    0.005186
   122  H    0.025059
   123  H    0.009369
   124  H   -0.001136
   125  H    0.010885
   126  H    0.030218
   127  H    0.020281
   128  H   -0.034663
   129  H   -0.026543
   130  H   -0.004662
   131  H    0.023815
   132  H    0.021688
   133  H   -0.002541
   134  H    0.023988
   135  H    0.014025
   136  H    0.034820
   137  H    0.079493
   138  H    0.127049
 Sum of Mulliken charges =   0.00000

 Dipole moment (field-independent basis, Debye):
    X=              1.5559    Y=              3.9947    Z=              0.4520  Tot=              4.3107
 Quadrupole moment (field-independent basis, Debye-Ang):
   XX=           -352.5907   YY=           -387.9122   ZZ=           -393.5325
   XY=            -29.1710   XZ=              8.9787   YZ=             -4.9275

 Normal termination of Gaussian 09 at Sat Aug  3 08:07:07 2019.
