 Gaussian 09, Revision D.01,
 Gaussian 09:  ES64L-G09RevD.01 24-Apr-2013

 --------------------------
 # td=(NStates=1) B3LYP/SVP
 --------------------------

 --
 TD
 --
 Symbolic Z-matrix:
 Charge =  0 Multiplicity = 1

                         Standard orientation:
 ---------------------------------------------------------------------
 Center     Atomic      Atomic             Coordinates (Angstroms)
 Number     Number       Type             X           Y           Z
 ---------------------------------------------------------------------
      1          6           0       -5.077438   -1.896457    0.385756
      2          6           0       -4.617604    2.734546    1.441816
      3          6           0       -9.000137    3.413908   -0.453930
      4          6           0       -9.840481   -1.390782   -0.967918
      5          7           0       -5.103752    0.391555    0.880980
      6          6           0       -4.530115   -0.769464    0.908376
      7          6           0       -3.076775   -0.640139    1.281892
      8          6           0       -3.082804    0.747697    1.866894
      9          6           0       -4.343752    1.365547    1.346166
     10          6           0       -2.759731    0.849336    3.467869
     11          6           0       -2.020497   -0.828843    0.218780
     12          6           0       -0.622651   -0.744299    0.652827
     13          6           0        0.278576   -1.260579   -0.464435
     14          8           0       -0.027617   -1.563195   -1.549064
     15          8           0        1.633750   -0.827403   -0.230540
     16          7           0       -6.864158    2.759822    0.423462
     17          6           0       -5.786982    3.437031    1.087354
     18          6           0       -6.138326    4.688150    1.152819
     19          6           0       -7.414299    4.978832    0.631376
     20          6           0       -7.875341    3.610354    0.200623
     21          6           0       -5.095288    5.682782    1.701636
     22          6           0       -8.005148    6.285368    0.538926
     23          6           0       -8.754293    6.870795   -0.422354
     24          7           0       -9.073655    1.009753   -0.596341
     25          6           0       -9.740319    2.209904   -0.694424
     26          6           0      -11.112687    2.104445   -1.093062
     27          6           0      -11.326228    0.740135   -1.378692
     28          6           0      -10.106408    0.076375   -0.942050
     29          6           0      -12.129083    3.125826   -1.163329
     30          6           0      -12.540599   -0.015602   -1.758357
     31          6           0      -12.575886   -0.299168   -3.340849
     32          7           0       -7.463635   -1.121812   -0.349562
     33          6           0       -8.582610   -1.867915   -0.669704
     34          6           0       -8.200257   -3.313538   -0.664865
     35          6           0       -6.894592   -3.328124   -0.309395
     36          6           0       -6.437435   -1.959928    0.040097
     37          6           0       -9.057992   -4.560993   -1.046667
     38          6           0       -5.757511   -4.282336    0.081500
     39          8           0       -5.769427   -5.461216    0.067029
     40          6           0       -4.557430   -3.346028    0.452410
     41          6           0       -4.043989   -3.947166    1.779996
     42          8           0       -4.407302   -3.586285    2.872942
     43          8           0       -3.110113   -4.834987    1.477399
     44          6           0       -2.517594   -5.535831    2.574964
     45          6           0        2.641434   -1.414684   -1.094440
     46          6           0        4.016535   -0.910555   -0.486703
     47          6           0        4.919341   -0.183503   -0.982745
     48          6           0        4.738319    0.636758   -2.335805
     49          6           0        6.203441   -0.132709   -0.242225
     50          6           0        7.466685   -0.616366   -0.969015
     51          6           0        8.771847   -0.330751   -0.184130
     52          6           0       10.025679   -0.921106   -0.812041
     53          6           0       10.128022   -2.303396   -1.321306
     54          6           0       11.224432   -0.526394    0.085266
     55          6           0       12.607606   -0.532636   -0.731826
     56          6           0       13.788560    0.012209    0.183010
     57          6           0       15.194266   -0.281796   -0.349004
     58          6           0       15.638509   -1.740989   -0.302008
     59          6           0       16.136329    0.658234    0.460521
     60          6           0       17.497178    0.846184   -0.168009
     61          6           0       18.402672    1.613572    0.649020
     62          6           0       19.809991    1.955106    0.025583
     63          6           0       19.750332    2.525941   -1.439895
     64          6           0       20.761188    2.777067    0.944017
     65          1           0       -3.921333    3.387532    2.146238
     66          1           0       -9.627985    4.347230   -0.488997
     67          1           0      -10.730009   -2.033772   -1.449210
     68          1           0       -2.756036   -1.377779    2.216019
     69          1           0       -2.156988    1.263515    1.443625
     70          1           0       -1.953721    0.244958    3.582355
     71          1           0       -2.906813    1.816283    3.805513
     72          1           0       -3.609985    0.135913    4.086044
     73          1           0       -2.067001   -1.638360   -0.611119
     74          1           0       -2.338309    0.156203   -0.373288
     75          1           0       -0.324677    0.122008    1.108604
     76          1           0       -0.307672   -1.385850    1.393842
     77          1           0       -4.371950    6.139210    0.970314
     78          1           0       -5.290179    6.673579    2.260120
     79          1           0       -4.599929    5.223853    2.679348
     80          1           0       -7.631917    6.841402    1.352140
     81          1           0       -9.076811    6.325764   -1.356910
     82          1           0       -9.168052    7.933021   -0.446680
     83          1           0      -12.548648    3.332135   -0.076229
     84          1           0      -11.831134    3.954579   -1.663645
     85          1           0      -12.921198    2.611243   -1.607932
     86          1           0      -12.619674   -0.895394   -1.296018
     87          1           0      -13.725593    0.561651   -1.569671
     88          1           0      -12.579537    0.853620   -3.685150
     89          1           0      -11.671438   -0.688229   -3.820121
     90          1           0      -13.510667   -0.848482   -3.578432
     91          1           0       -9.929631   -4.656839   -0.323420
     92          1           0       -9.359109   -4.718989   -2.139737
     93          1           0       -8.437359   -5.478658   -0.686335
     94          1           0       -3.712715   -3.612609   -0.179040
     95          1           0       -1.985394   -6.298562    2.048958
     96          1           0       -2.011685   -4.732583    3.221224
     97          1           0       -3.259700   -6.108702    3.092531
     98          1           0        2.705491   -2.382674   -1.053244
     99          1           0        2.192063   -0.780464   -1.976566
    100          1           0        4.299775   -1.540258    0.291771
    101          1           0        4.956073    1.777681   -1.834236
    102          1           0        5.647328    0.668814   -3.017679
    103          1           0        3.749013    0.312732   -2.602208
    104          1           0        6.368285    0.881580    0.298716
    105          1           0        6.169734   -0.601276    0.780003
    106          1           0        7.307528   -1.671962   -1.078826
    107          1           0        7.601569   -0.026927   -1.912666
    108          1           0        8.758308    0.714546    0.016014
    109          1           0        8.630325   -0.880849    0.867700
    110          1           0       10.240533   -0.162316   -1.772440
    111          1           0        9.456232   -2.668222   -2.120998
    112          1           0       11.117719   -2.509079   -1.656191
    113          1           0       10.192347   -2.917405   -0.410315
    114          1           0       10.980343    0.539522    0.375830
    115          1           0       11.292399   -1.277844    0.900259
    116          1           0       12.828854   -1.700013   -0.876967
    117          1           0       12.437090    0.137730   -1.774529
    118          1           0       13.662146    1.006449    0.486874
    119          1           0       13.682685   -0.315506    1.136177
    120          1           0       15.022041    0.138038   -1.296538
    121          1           0       14.879948   -2.414254   -0.664038
    122          1           0       16.652626   -1.641216   -0.668468
    123          1           0       15.510152   -2.211024    0.746583
    124          1           0       15.558145    1.547233    0.381066
    125          1           0       16.157773    0.182759    1.330028
    126          1           0       18.115712   -0.120243   -0.135469
    127          1           0       17.233861    1.340697   -1.224162
    128          1           0       17.888054    2.802484    0.851551
    129          1           0       18.409494    1.120581    1.575399
    130          1           0       20.321870    0.900791   -0.129059
    131          1           0       19.174297    3.452041   -1.224005
    132          1           0       20.761829    2.868584   -1.952954
    133          1           0       19.235370    1.808652   -2.144777
    134          1           0       20.743426    2.442016    1.952335
    135          1           0       21.785640    2.924144    0.576976
    136          1           0       20.341445    3.820808    1.050886
    137          1           0       -6.762482    1.678470    0.235382
    138          1           0       -7.652052   -0.168400   -0.215943
 ---------------------------------------------------------------------

 SCF Done:  E(RB3LYP) =  -2732.98645091     A.U. after   17 cycles

 Excitation energies and oscillator strengths:

 Excited State   1:      Singlet-A      2.0337 eV  609.66 nm  f=0.1095  <S**2>=0.000
     235 -> 237        0.12961
     235 -> 238       -0.34493
     236 -> 237        0.58905
     236 -> 238        0.11461
 This state for optimization and/or second-order correction.
 Total Energy, E(TD-HF/TD-KS) =  -2732.91171515
 Copying the excited state density for this state as the 1-particle RhoCI density.

 The electronic state is 1-A.
 Alpha  occ. eigenvalues --  -19.18606 -19.15097 -19.14129 -19.13300 -19.12384
 Alpha  occ. eigenvalues --  -14.36991 -14.36206 -14.31843 -14.29770 -10.31718
 Alpha  occ. eigenvalues --  -10.31575 -10.28543 -10.25102 -10.24223 -10.24004
 Alpha  occ. eigenvalues --  -10.23660 -10.22850 -10.22809 -10.22623 -10.22420
 Alpha  occ. eigenvalues --  -10.21806 -10.21633 -10.21619 -10.21178 -10.21082
 Alpha  occ. eigenvalues --  -10.21004 -10.20999 -10.20929 -10.20843 -10.20797
 Alpha  occ. eigenvalues --  -10.20791 -10.20559 -10.20556 -10.20514 -10.20436
 Alpha  occ. eigenvalues --  -10.20280 -10.20229 -10.20087 -10.20033 -10.19732
 Alpha  occ. eigenvalues --  -10.19698 -10.19647 -10.19574 -10.19432 -10.19308
 Alpha  occ. eigenvalues --  -10.19147 -10.19095 -10.19044 -10.19022 -10.18994
 Alpha  occ. eigenvalues --  -10.18940 -10.18922 -10.18908 -10.18498 -10.18442
 Alpha  occ. eigenvalues --  -10.18240 -10.18012 -10.17807 -10.17778 -10.17709
 Alpha  occ. eigenvalues --  -10.17533 -10.16951 -10.16442 -10.16403  -1.10670
 Alpha  occ. eigenvalues --   -1.09476  -1.05473  -1.01327  -1.00216  -0.98136
 Alpha  occ. eigenvalues --   -0.97486  -0.96837  -0.91470  -0.84551  -0.82909
 Alpha  occ. eigenvalues --   -0.82750  -0.82488  -0.81727  -0.81202  -0.81092
 Alpha  occ. eigenvalues --   -0.79917  -0.79563  -0.79255  -0.78372  -0.77790
 Alpha  occ. eigenvalues --   -0.77015  -0.76077  -0.75883  -0.74950  -0.74801
 Alpha  occ. eigenvalues --   -0.73906  -0.72561  -0.72076  -0.71404  -0.69964
 Alpha  occ. eigenvalues --   -0.69629  -0.69204  -0.68464  -0.68336  -0.68140
 Alpha  occ. eigenvalues --   -0.67513  -0.67196  -0.66802  -0.65734  -0.65431
 Alpha  occ. eigenvalues --   -0.64488  -0.63540  -0.62610  -0.61583  -0.61123
 Alpha  occ. eigenvalues --   -0.60692  -0.58472  -0.58344  -0.57792  -0.57483
 Alpha  occ. eigenvalues --   -0.56843  -0.56311  -0.56248  -0.55792  -0.55296
 Alpha  occ. eigenvalues --   -0.55008  -0.54045  -0.53744  -0.53525  -0.53389
 Alpha  occ. eigenvalues --   -0.52187  -0.51811  -0.51380  -0.51036  -0.50946
 Alpha  occ. eigenvalues --   -0.50036  -0.49949  -0.49671  -0.49545  -0.49068
 Alpha  occ. eigenvalues --   -0.48664  -0.48472  -0.47901  -0.47410  -0.47291
 Alpha  occ. eigenvalues --   -0.46987  -0.46784  -0.46609  -0.46273  -0.46065
 Alpha  occ. eigenvalues --   -0.45375  -0.45245  -0.45071  -0.44895  -0.44738
 Alpha  occ. eigenvalues --   -0.44626  -0.44461  -0.44418  -0.44151  -0.43997
 Alpha  occ. eigenvalues --   -0.43539  -0.43317  -0.43162  -0.42816  -0.42653
 Alpha  occ. eigenvalues --   -0.42404  -0.42298  -0.41978  -0.41887  -0.41606
 Alpha  occ. eigenvalues --   -0.41529  -0.40965  -0.40853  -0.40644  -0.40593
 Alpha  occ. eigenvalues --   -0.40427  -0.40093  -0.39909  -0.39794  -0.39713
 Alpha  occ. eigenvalues --   -0.39551  -0.39442  -0.39120  -0.38915  -0.38588
 Alpha  occ. eigenvalues --   -0.38063  -0.38012  -0.37874  -0.37458  -0.37417
 Alpha  occ. eigenvalues --   -0.37077  -0.36996  -0.36765  -0.36535  -0.36497
 Alpha  occ. eigenvalues --   -0.36261  -0.36121  -0.36085  -0.35946  -0.35804
 Alpha  occ. eigenvalues --   -0.35343  -0.35189  -0.35121  -0.34599  -0.34480
 Alpha  occ. eigenvalues --   -0.34451  -0.34202  -0.34073  -0.34029  -0.33051
 Alpha  occ. eigenvalues --   -0.32878  -0.32713  -0.32523  -0.32421  -0.32238
 Alpha  occ. eigenvalues --   -0.32181  -0.31774  -0.31764  -0.31522  -0.31419
 Alpha  occ. eigenvalues --   -0.31049  -0.30739  -0.30423  -0.29546  -0.29101
 Alpha  occ. eigenvalues --   -0.28965  -0.28899  -0.28637  -0.28194  -0.27798
 Alpha  occ. eigenvalues --   -0.27605  -0.27366  -0.27147  -0.26790  -0.25962
 Alpha  occ. eigenvalues --   -0.25527  -0.25373  -0.23837  -0.21790  -0.19947
 Alpha  occ. eigenvalues --   -0.18773
 Alpha virt. eigenvalues --   -0.09884  -0.08666  -0.04133  -0.01658  -0.01329
 Alpha virt. eigenvalues --    0.00605   0.00806   0.01610   0.02240   0.03163
 Alpha virt. eigenvalues --    0.03562   0.03799   0.04390   0.04526   0.04859

 Mulliken charges:
               1
     1  C    0.031853
     2  C   -0.082718
     3  C   -0.103812
     4  C   -0.107410
     5  N   -0.113293
     6  C   -0.033593
     7  C   -0.081412
     8  C   -0.096348
     9  C    0.026557
    10  C    0.097159
    11  C   -0.004716
    12  C    0.158393
    13  C    0.150182
    14  O   -0.168991
    15  O   -0.402239
    16  N   -0.138029
    17  C    0.082817
    18  C   -0.041323
    19  C    0.016874
    20  C    0.129247
    21  C   -0.028023
    22  C   -0.014702
    23  C   -0.061852
    24  N   -0.306528
    25  C    0.057483
    26  C   -0.167652
    27  C   -0.046035
    28  C    0.023099
    29  C    0.188414
    30  C    0.008129
    31  C   -0.039926
    32  N   -0.001514
    33  C    0.090102
    34  C   -0.151135
    35  C   -0.039730
    36  C    0.089799
    37  C    0.031216
    38  C    0.092000
    39  O   -0.125576
    40  C   -0.025449
    41  C    0.162976
    42  O   -0.220289
    43  O   -0.294011
    44  C    0.201632
    45  C    0.299682
    46  C   -0.084623
    47  C   -0.089178
    48  C    0.052844
    49  C    0.015002
    50  C    0.055857
    51  C    0.011660
    52  C   -0.111718
    53  C    0.119279
    54  C   -0.004253
    55  C   -0.049414
    56  C    0.088378
    57  C   -0.054783
    58  C    0.081915
    59  C    0.094243
    60  C    0.018369
    61  C    0.001404
    62  C   -0.106393
    63  C   -0.029400
    64  C    0.066949
    65  H    0.011335
    66  H   -0.013040
    67  H    0.040473
    68  H    0.016646
    69  H    0.010014
    70  H   -0.006683
    71  H    0.011760
    72  H    0.022406
    73  H    0.054922
    74  H    0.019976
    75  H    0.000246
    76  H   -0.021169
    77  H    0.044431
    78  H    0.012714
    79  H    0.034140
    80  H   -0.013828
    81  H    0.037593
    82  H    0.043587
    83  H    0.031255
    84  H   -0.000872
    85  H   -0.025774
    86  H   -0.021588
    87  H    0.025154
    88  H    0.022369
    89  H    0.028932
    90  H    0.028055
    91  H    0.032577
    92  H    0.059624
    93  H    0.045331
    94  H    0.039856
    95  H    0.026408
    96  H    0.053268
    97  H    0.025408
    98  H   -0.025316
    99  H    0.057332
   100  H   -0.038303
   101  H    0.028849
   102  H    0.038529
   103  H    0.020918
   104  H   -0.009059
   105  H   -0.020481
   106  H   -0.000903
   107  H    0.002594
   108  H   -0.010725
   109  H   -0.011633
   110  H   -0.017499
   111  H    0.025952
   112  H   -0.020855
   113  H   -0.021877
   114  H    0.006893
   115  H    0.004832
   116  H    0.026388
   117  H    0.033130
   118  H   -0.049261
   119  H   -0.069221
   120  H   -0.036190
   121  H   -0.008565
   122  H    0.023901
   123  H   -0.008001
   124  H   -0.015835
   125  H   -0.053524
   126  H    0.003095
   127  H    0.019048
   128  H   -0.017352
   129  H   -0.014313
   130  H   -0.005747
   131  H    0.009288
   132  H    0.028505
   133  H    0.034564
   134  H   -0.005614
   135  H    0.014152
   136  H   -0.005373
   137  H    0.190815
   138  H    0.103887
 Sum of Mulliken charges =   0.00000

 Dipole moment (field-independent basis, Debye):
    X=              2.8057    Y=              1.4851    Z=              1.2786  Tot=              3.4223
 Quadrupole moment (field-independent basis, Debye-Ang):
   XX=           -370.4104   YY=           -373.4065   ZZ=           -397.9885
   XY=            -23.0162   XZ=             14.2075   YZ=             -0.1131

 Normal termination of Gaussian 09 at Sat Aug  3 11:21:04 2019.
