 Gaussian 09, Revision D.01,
 Gaussian 09:  ES64L-G09RevD.01 24-Apr-2013

 --------------------------
 # td=(NStates=1) B3LYP/SVP
 --------------------------

 --
 TD
 --
 Symbolic Z-matrix:
 Charge =  0 Multiplicity = 1

                         Standard orientation:
 ---------------------------------------------------------------------
 Center     Atomic      Atomic             Coordinates (Angstroms)
 Number     Number       Type             X           Y           Z
 ---------------------------------------------------------------------
      1          6           0       -4.988369   -1.844744    0.503239
      2          6           0       -4.872540    2.791468    1.627552
      3          6           0       -9.360094    3.288437   -0.248345
      4          6           0       -9.689974   -1.535704   -1.112267
      5          7           0       -5.226663    0.479177    0.910733
      6          6           0       -4.449944   -0.657367    0.837478
      7          6           0       -3.068218   -0.369637    1.364475
      8          6           0       -3.138119    0.978185    2.054959
      9          6           0       -4.495930    1.413163    1.485380
     10          6           0       -3.034095    0.953647    3.638402
     11          6           0       -2.043323   -0.589278    0.255744
     12          6           0       -0.588293   -0.585916    0.708887
     13          6           0        0.358218   -0.980841   -0.429477
     14          8           0        0.054050   -1.451717   -1.469675
     15          8           0        1.686586   -0.609905   -0.125845
     16          7           0       -7.095768    2.806343    0.515861
     17          6           0       -6.025098    3.394440    1.125508
     18          6           0       -6.382033    4.855379    1.134374
     19          6           0       -7.611243    4.968331    0.567095
     20          6           0       -8.076275    3.682623    0.144592
     21          6           0       -5.570586    5.887014    1.643193
     22          6           0       -8.353641    6.281700    0.164338
     23          6           0       -9.107683    6.478218   -0.982914
     24          7           0       -9.115820    0.839321   -0.654611
     25          6           0       -9.867656    2.001267   -0.626640
     26          6           0      -11.253289    1.783106   -1.005851
     27          6           0      -11.330828    0.409045   -1.395060
     28          6           0      -10.029110   -0.189563   -1.020151
     29          6           0      -12.238139    2.902407   -1.199373
     30          6           0      -12.490576   -0.341687   -1.876924
     31          6           0      -12.484052   -0.679861   -3.401970
     32          7           0       -7.357830   -1.292687   -0.323906
     33          6           0       -8.362794   -2.058539   -0.800740
     34          6           0       -7.954534   -3.426227   -0.801423
     35          6           0       -6.778914   -3.437464   -0.250367
     36          6           0       -6.342008   -2.046598    0.039107
     37          6           0       -8.930722   -4.613766   -1.208769
     38          6           0       -5.575565   -4.268429   -0.047373
     39          8           0       -5.490964   -5.445126   -0.216921
     40          6           0       -4.402568   -3.301124    0.426325
     41          6           0       -3.913215   -3.736880    1.813268
     42          8           0       -4.223684   -3.409901    2.836878
     43          8           0       -3.120808   -4.823064    1.533212
     44          6           0       -2.572873   -5.453876    2.702419
     45          6           0        2.636660   -1.156296   -1.090005
     46          6           0        4.040960   -0.834504   -0.369107
     47          6           0        4.926688   -0.040565   -0.849361
     48          6           0        4.836602    0.848571   -2.078973
     49          6           0        6.229786    0.209525   -0.204935
     50          6           0        7.556870   -0.395326   -0.840092
     51          6           0        8.738835   -0.227320   -0.070560
     52          6           0       10.093114   -0.821208   -0.586276
     53          6           0       10.100002   -2.437766   -0.637837
     54          6           0       11.312631   -0.304079    0.093490
     55          6           0       12.612565   -0.680057   -0.420206
     56          6           0       13.788253   -0.035430    0.312699
     57          6           0       15.164305   -0.108531   -0.280733
     58          6           0       15.702732   -1.652606   -0.565194
     59          6           0       16.261811    0.695300    0.398397
     60          6           0       17.585875    0.856054   -0.314411
     61          6           0       18.537023    1.781012    0.402492
     62          6           0       20.042301    1.681858   -0.232344
     63          6           0       20.199743    2.186613   -1.676929
     64          6           0       20.936858    2.488156    0.736362
     65          1           0       -4.058135    3.418251    2.291097
     66          1           0       -9.992794    4.016373   -0.221389
     67          1           0      -10.357832   -2.354091   -1.336371
     68          1           0       -2.969751   -1.215053    2.023336
     69          1           0       -2.330487    1.508594    1.524925
     70          1           0       -2.276055    0.418252    4.052658
     71          1           0       -3.015550    2.050222    3.835409
     72          1           0       -4.229491    0.737678    3.772085
     73          1           0       -2.325764   -1.622952   -0.314100
     74          1           0       -2.172646    0.093337   -0.415595
     75          1           0       -0.339524    0.460700    0.753004
     76          1           0       -0.564108   -1.496816    1.266715
     77          1           0       -4.612420    5.759139    1.010339
     78          1           0       -5.933763    6.964699    1.820379
     79          1           0       -5.227978    5.569767    2.719507
     80          1           0       -8.187656    6.921229    0.978323
     81          1           0       -8.944332    5.703342   -1.652887
     82          1           0       -9.775899    7.391411   -1.172389
     83          1           0      -12.426298    3.546444   -0.259477
     84          1           0      -12.099398    3.741000   -1.962365
     85          1           0      -13.384171    2.611402   -1.212637
     86          1           0      -12.673535   -1.396613   -1.396076
     87          1           0      -13.410928    0.275488   -1.645530
     88          1           0      -12.573215    0.212877   -3.791071
     89          1           0      -11.511352   -1.093590   -3.845545
     90          1           0      -13.361123   -1.302673   -3.605546
     91          1           0       -9.802122   -4.780568   -0.494819
     92          1           0       -9.071258   -4.454794   -2.337345
     93          1           0       -8.352097   -5.448404   -0.948657
     94          1           0       -3.638850   -3.291428   -0.354507
     95          1           0       -1.920310   -6.343755    2.259128
     96          1           0       -2.128470   -4.714592    3.568406
     97          1           0       -3.388488   -6.086660    3.155445
     98          1           0        2.490198   -2.236478   -1.157936
     99          1           0        2.669215   -0.688847   -2.077476
    100          1           0        4.140636   -1.215553    0.721468
    101          1           0        5.313809    1.984424   -1.830453
    102          1           0        5.512837    0.416646   -2.826041
    103          1           0        3.702461    1.076816   -2.300048
    104          1           0        6.575823    1.221268   -0.158594
    105          1           0        6.092384   -0.404305    0.897666
    106          1           0        7.252700   -1.613304   -1.003422
    107          1           0        7.552764    0.266675   -1.849021
    108          1           0        8.923490    0.798780   -0.108193
    109          1           0        8.482957   -0.628856    1.173759
    110          1           0       10.391898   -0.573202   -1.672661
    111          1           0        9.270252   -2.727984   -1.297898
    112          1           0       10.934625   -2.736120   -1.168434
    113          1           0       10.026004   -2.780540    0.396048
    114          1           0       11.166464    0.877903    0.091100
    115          1           0       11.251640   -0.684987    1.275834
    116          1           0       12.551257   -1.794365   -0.322109
    117          1           0       12.737843   -0.398340   -1.575533
    118          1           0       13.312303    0.965685    0.673433
    119          1           0       13.570201   -0.630295    1.269942
    120          1           0       14.955447    0.193168   -1.443336
    121          1           0       14.875318   -2.246880   -1.228610
    122          1           0       16.570594   -1.737831   -1.019321
    123          1           0       15.685246   -1.945040    0.449979
    124          1           0       15.802261    1.715642    0.477018
    125          1           0       16.385967    0.261315    1.555793
    126          1           0       18.074125   -0.191539   -0.412993
    127          1           0       17.501513    1.237161   -1.458635
    128          1           0       18.057846    2.777386    0.629369
    129          1           0       18.730975    1.244932    1.463821
    130          1           0       20.223412    0.569490   -0.068904
    131          1           0       19.883656    3.207448   -1.922066
    132          1           0       21.205556    1.929114   -2.023996
    133          1           0       19.509853    1.601746   -2.391361
    134          1           0       20.905854    1.890347    1.782344
    135          1           0       21.930962    2.423693    0.221791
    136          1           0       20.393382    3.494835    0.915092
    137          1           0       -7.221236    1.653278    0.766232
    138          1           0       -7.682725   -0.304861   -0.436835
 ---------------------------------------------------------------------

 SCF Done:  E(RB3LYP) =  -2732.98910054     A.U. after   17 cycles

 Excitation energies and oscillator strengths:

 Excited State   1:      Singlet-A      2.1517 eV  576.22 nm  f=0.1629  <S**2>=0.000
     235 -> 237        0.10870
     235 -> 238       -0.29970
     236 -> 237        0.62171
 This state for optimization and/or second-order correction.
 Total Energy, E(TD-HF/TD-KS) =  -2732.91002712
 Copying the excited state density for this state as the 1-particle RhoCI density.

 The electronic state is 1-A.
 Alpha  occ. eigenvalues --  -19.17202 -19.16660 -19.13938 -19.13404 -19.12324
 Alpha  occ. eigenvalues --  -14.37262 -14.36793 -14.32330 -14.30476 -10.31416
 Alpha  occ. eigenvalues --  -10.31096 -10.27818 -10.25788 -10.25034 -10.24361
 Alpha  occ. eigenvalues --  -10.23555 -10.23412 -10.23187 -10.22259 -10.22215
 Alpha  occ. eigenvalues --  -10.21857 -10.21494 -10.21426 -10.21269 -10.21212
 Alpha  occ. eigenvalues --  -10.21138 -10.20949 -10.20795 -10.20640 -10.20630
 Alpha  occ. eigenvalues --  -10.20565 -10.20507 -10.20503 -10.20503 -10.20365
 Alpha  occ. eigenvalues --  -10.20360 -10.20213 -10.20190 -10.20165 -10.20053
 Alpha  occ. eigenvalues --  -10.19985 -10.19937 -10.19765 -10.19762 -10.19752
 Alpha  occ. eigenvalues --  -10.19677 -10.19488 -10.19452 -10.19423 -10.19311
 Alpha  occ. eigenvalues --  -10.19299 -10.19292 -10.19141 -10.19118 -10.19026
 Alpha  occ. eigenvalues --  -10.19003 -10.18979 -10.18743 -10.18722 -10.18573
 Alpha  occ. eigenvalues --  -10.18148 -10.17745 -10.17329 -10.17278  -1.12323
 Alpha  occ. eigenvalues --   -1.08921  -1.03982  -1.02889  -1.00922  -0.99930
 Alpha  occ. eigenvalues --   -0.97866  -0.95282  -0.91505  -0.83952  -0.83126
 Alpha  occ. eigenvalues --   -0.82429  -0.82101  -0.81628  -0.81041  -0.80633
 Alpha  occ. eigenvalues --   -0.80305  -0.79161  -0.78863  -0.78583  -0.77962
 Alpha  occ. eigenvalues --   -0.77370  -0.76331  -0.75192  -0.74618  -0.74291
 Alpha  occ. eigenvalues --   -0.73066  -0.72703  -0.72290  -0.71488  -0.70293
 Alpha  occ. eigenvalues --   -0.70190  -0.68893  -0.68404  -0.67412  -0.67184
 Alpha  occ. eigenvalues --   -0.67079  -0.66972  -0.66260  -0.65727  -0.65458
 Alpha  occ. eigenvalues --   -0.64359  -0.63245  -0.62534  -0.61450  -0.61376
 Alpha  occ. eigenvalues --   -0.61079  -0.59126  -0.58212  -0.57453  -0.57342
 Alpha  occ. eigenvalues --   -0.55668  -0.55281  -0.54726  -0.54694  -0.54540
 Alpha  occ. eigenvalues --   -0.54286  -0.54263  -0.53672  -0.52697  -0.52619
 Alpha  occ. eigenvalues --   -0.52207  -0.52083  -0.51869  -0.51276  -0.50963
 Alpha  occ. eigenvalues --   -0.50156  -0.49067  -0.49035  -0.48960  -0.48335
 Alpha  occ. eigenvalues --   -0.48231  -0.48024  -0.47609  -0.47467  -0.47276
 Alpha  occ. eigenvalues --   -0.46950  -0.46370  -0.46064  -0.45845  -0.45712
 Alpha  occ. eigenvalues --   -0.45554  -0.45414  -0.44963  -0.44874  -0.44720
 Alpha  occ. eigenvalues --   -0.44464  -0.44261  -0.44050  -0.43832  -0.43801
 Alpha  occ. eigenvalues --   -0.43635  -0.43288  -0.43104  -0.43010  -0.42562
 Alpha  occ. eigenvalues --   -0.42411  -0.42234  -0.42068  -0.42024  -0.41703
 Alpha  occ. eigenvalues --   -0.41559  -0.41193  -0.40902  -0.40708  -0.40617
 Alpha  occ. eigenvalues --   -0.40376  -0.40199  -0.39966  -0.39719  -0.39399
 Alpha  occ. eigenvalues --   -0.39222  -0.39155  -0.38860  -0.38705  -0.38472
 Alpha  occ. eigenvalues --   -0.38324  -0.38030  -0.38014  -0.37894  -0.37387
 Alpha  occ. eigenvalues --   -0.37208  -0.36803  -0.36708  -0.36621  -0.36523
 Alpha  occ. eigenvalues --   -0.36450  -0.36188  -0.36031  -0.35977  -0.35910
 Alpha  occ. eigenvalues --   -0.35561  -0.35516  -0.35233  -0.35085  -0.35030
 Alpha  occ. eigenvalues --   -0.34685  -0.33889  -0.33815  -0.33762  -0.33220
 Alpha  occ. eigenvalues --   -0.33134  -0.33063  -0.32613  -0.32569  -0.32377
 Alpha  occ. eigenvalues --   -0.31893  -0.31468  -0.31414  -0.31032  -0.30914
 Alpha  occ. eigenvalues --   -0.30482  -0.30198  -0.30161  -0.30103  -0.29942
 Alpha  occ. eigenvalues --   -0.29368  -0.29294  -0.29250  -0.28283  -0.27789
 Alpha  occ. eigenvalues --   -0.27771  -0.27585  -0.27357  -0.27091  -0.26115
 Alpha  occ. eigenvalues --   -0.25230  -0.24995  -0.24046  -0.22126  -0.19776
 Alpha  occ. eigenvalues --   -0.18910
 Alpha virt. eigenvalues --   -0.09823  -0.07533  -0.03883  -0.02244  -0.00287
 Alpha virt. eigenvalues --    0.00283   0.00658   0.01628   0.02054   0.03366
 Alpha virt. eigenvalues --    0.03518   0.03741   0.03909   0.04414   0.04769

 Mulliken charges:
               1
     1  C    0.019292
     2  C   -0.114662
     3  C    0.004446
     4  C   -0.031481
     5  N   -0.145142
     6  C   -0.125946
     7  C    0.029668
     8  C   -0.006410
     9  C   -0.101363
    10  C    0.101666
    11  C   -0.007854
    12  C    0.228404
    13  C    0.095528
    14  O   -0.190807
    15  O   -0.362070
    16  N   -0.130054
    17  C    0.118115
    18  C   -0.075409
    19  C   -0.049354
    20  C    0.081278
    21  C    0.016775
    22  C   -0.001053
    23  C    0.007578
    24  N   -0.299077
    25  C    0.081420
    26  C   -0.082959
    27  C   -0.048846
    28  C    0.115716
    29  C    0.001667
    30  C   -0.011169
    31  C    0.053664
    32  N    0.054774
    33  C   -0.076543
    34  C   -0.206356
    35  C    0.020735
    36  C    0.022435
    37  C    0.111908
    38  C    0.068577
    39  O   -0.136153
    40  C   -0.057722
    41  C    0.183266
    42  O   -0.110086
    43  O   -0.320009
    44  C    0.106466
    45  C    0.271122
    46  C   -0.127599
    47  C   -0.060868
    48  C   -0.011416
    49  C    0.022979
    50  C   -0.079593
    51  C    0.103527
    52  C   -0.110941
    53  C    0.060511
    54  C   -0.050923
    55  C   -0.013980
    56  C    0.036317
    57  C   -0.086144
    58  C    0.034805
    59  C    0.034135
    60  C   -0.010625
    61  C   -0.043092
    62  C   -0.127465
    63  C    0.033290
    64  C    0.013891
    65  H    0.021343
    66  H   -0.119249
    67  H   -0.022071
    68  H   -0.026262
    69  H   -0.018610
    70  H    0.021782
    71  H    0.007889
    72  H    0.049322
    73  H    0.035546
    74  H   -0.064591
    75  H    0.029367
    76  H    0.021087
    77  H    0.044749
    78  H    0.043060
    79  H    0.032889
    80  H   -0.019977
    81  H    0.022400
    82  H    0.053466
    83  H    0.014116
    84  H    0.041843
    85  H    0.015698
    86  H    0.016853
    87  H    0.006564
    88  H   -0.028516
    89  H    0.026740
    90  H    0.013345
    91  H    0.045099
    92  H    0.053595
    93  H    0.007909
    94  H    0.061123
    95  H    0.047844
    96  H    0.062450
    97  H    0.029081
    98  H    0.021095
    99  H    0.021671
   100  H    0.015097
   101  H    0.032472
   102  H    0.043581
   103  H    0.049985
   104  H   -0.012832
   105  H    0.002949
   106  H    0.021770
   107  H    0.011599
   108  H   -0.031574
   109  H    0.020947
   110  H   -0.009322
   111  H    0.003876
   112  H   -0.005553
   113  H    0.011959
   114  H    0.001518
   115  H    0.000620
   116  H    0.014657
   117  H   -0.002920
   118  H    0.003343
   119  H   -0.016885
   120  H    0.004161
   121  H    0.026239
   122  H   -0.011093
   123  H    0.000297
   124  H   -0.002663
   125  H    0.019343
   126  H    0.004506
   127  H    0.015293
   128  H    0.010535
   129  H    0.000314
   130  H    0.008701
   131  H    0.016684
   132  H    0.012482
   133  H    0.005596
   134  H    0.020298
   135  H    0.020455
   136  H    0.029698
   137  H    0.230361
   138  H    0.144074
 Sum of Mulliken charges =   0.00000

 Dipole moment (field-independent basis, Debye):
    X=              1.5168    Y=              4.3230    Z=              0.8801  Tot=              4.6651
 Quadrupole moment (field-independent basis, Debye-Ang):
   XX=           -356.4273   YY=           -383.7967   ZZ=           -395.5385
   XY=            -23.1230   XZ=             -5.8487   YZ=             -1.5428

 Normal termination of Gaussian 09 at Fri Jul 26 10:14:41 2019.
