 Gaussian 09, Revision D.01,
 Gaussian 09:  ES64L-G09RevD.01 24-Apr-2013

 --------------------------
 # td=(NStates=1) B3LYP/SVP
 --------------------------

 --
 TD
 --
 Symbolic Z-matrix:
 Charge =  0 Multiplicity = 1

                         Standard orientation:
 ---------------------------------------------------------------------
 Center     Atomic      Atomic             Coordinates (Angstroms)
 Number     Number       Type             X           Y           Z
 ---------------------------------------------------------------------
      1          6           0       -4.965012   -1.962010    0.480122
      2          6           0       -4.856344    2.744370    1.384420
      3          6           0       -9.477520    3.366210   -0.230431
      4          6           0       -9.770263   -1.530881   -0.823092
      5          7           0       -5.163081    0.390707    0.809171
      6          6           0       -4.550378   -0.754245    0.811246
      7          6           0       -3.114595   -0.568314    1.205179
      8          6           0       -3.126919    0.857940    1.817114
      9          6           0       -4.497680    1.436695    1.301769
     10          6           0       -2.966824    0.998732    3.358488
     11          6           0       -2.077869   -0.706149    0.152843
     12          6           0       -0.575817   -0.631707    0.551434
     13          6           0        0.465153   -0.911232   -0.597607
     14          8           0       -0.005745   -1.119353   -1.707274
     15          8           0        1.666545   -0.724904   -0.154679
     16          7           0       -7.259812    2.688021    0.498275
     17          6           0       -6.076696    3.338727    1.033723
     18          6           0       -6.356279    4.778081    1.001113
     19          6           0       -7.621115    5.041856    0.518671
     20          6           0       -8.183950    3.631352    0.130456
     21          6           0       -5.401556    5.804987    1.467830
     22          6           0       -8.246758    6.316062    0.238742
     23          6           0       -9.077952    6.703929   -0.677316
     24          7           0       -9.245604    0.829027   -0.484444
     25          6           0       -9.940635    1.986994   -0.466724
     26          6           0      -11.333378    1.753107   -0.953341
     27          6           0      -11.386473    0.406835   -1.151797
     28          6           0      -10.049279   -0.142881   -0.840747
     29          6           0      -12.398043    2.854002   -1.233566
     30          6           0      -12.601234   -0.442974   -1.589220
     31          6           0      -12.618833   -0.642371   -3.108613
     32          7           0       -7.379354   -1.319442   -0.121523
     33          6           0       -8.469775   -2.042668   -0.665124
     34          6           0       -8.119609   -3.404511   -0.535784
     35          6           0       -6.692362   -3.370924   -0.323192
     36          6           0       -6.305296   -2.064672    0.009715
     37          6           0       -8.865589   -4.658611   -0.909370
     38          6           0       -5.676390   -4.328883    0.128523
     39          8           0       -5.729821   -5.558054    0.046331
     40          6           0       -4.457411   -3.350431    0.426831
     41          6           0       -3.871801   -3.775755    1.806340
     42          8           0       -4.133143   -3.398673    2.803151
     43          8           0       -2.888859   -4.754329    1.508094
     44          6           0       -2.514568   -5.504664    2.720034
     45          6           0        2.767123   -1.006142   -1.170149
     46          6           0        4.032693   -0.789065   -0.455843
     47          6           0        4.903303    0.181171   -0.932833
     48          6           0        4.808873    1.015491   -2.023654
     49          6           0        6.278127    0.170901   -0.199645
     50          6           0        7.434329   -0.413920   -0.915055
     51          6           0        8.809806   -0.264093   -0.295673
     52          6           0       10.070888   -0.617584   -0.936161
     53          6           0       10.192876   -2.088692   -1.363704
     54          6           0       11.324323   -0.215639   -0.094911
     55          6           0       12.742025   -0.540059   -0.718522
     56          6           0       13.807342   -0.022663    0.129199
     57          6           0       15.193428   -0.054400   -0.583732
     58          6           0       15.496452   -1.485639   -1.050254
     59          6           0       16.291353    0.563965    0.323276
     60          6           0       17.664635    0.746695   -0.162736
     61          6           0       18.565708    1.474566    0.739541
     62          6           0       20.120204    1.459498    0.285583
     63          6           0       20.370011    2.322802   -1.040204
     64          6           0       20.973053    2.138080    1.497548
     65          1           0       -4.249477    3.488602    1.607627
     66          1           0      -10.215045    4.192311   -0.074104
     67          1           0      -10.533195   -2.294103   -1.502946
     68          1           0       -2.943560   -1.288447    1.936939
     69          1           0       -2.352731    1.382508    1.260636
     70          1           0       -1.981427    0.609775    3.477217
     71          1           0       -2.740754    2.111402    3.663933
     72          1           0       -3.593988    0.402438    4.000225
     73          1           0       -2.265305   -1.695727   -0.371996
     74          1           0       -2.213230    0.008531   -0.757873
     75          1           0       -0.424946    0.329263    1.191870
     76          1           0       -0.427828   -1.470685    1.287496
     77          1           0       -4.477618    5.816968    0.838075
     78          1           0       -5.898918    6.793400    1.185926
     79          1           0       -5.030024    5.702191    2.627900
     80          1           0       -7.978311    7.025538    1.031879
     81          1           0       -9.408852    6.086726   -1.501679
     82          1           0       -9.459750    7.786486   -0.834441
     83          1           0      -12.583431    3.487369   -0.245906
     84          1           0      -12.082092    3.483212   -2.035861
     85          1           0      -13.360428    2.319224   -1.448266
     86          1           0      -12.365066   -1.432461   -1.124048
     87          1           0      -13.690382    0.045791   -1.280099
     88          1           0      -12.529006    0.407123   -3.624912
     89          1           0      -11.757806   -1.267780   -3.434369
     90          1           0      -13.634417   -0.908047   -3.702568
     91          1           0       -9.898209   -4.635595   -0.209070
     92          1           0       -9.156884   -4.411321   -2.131707
     93          1           0       -8.301583   -5.532699   -0.525149
     94          1           0       -3.777660   -3.355826   -0.426294
     95          1           0       -2.000966   -6.530310    2.257398
     96          1           0       -1.511603   -4.676596    3.191263
     97          1           0       -3.590777   -5.585954    3.313458
     98          1           0        2.468707   -2.064421   -1.557855
     99          1           0        2.651735   -0.255429   -2.042649
    100          1           0        4.461655   -1.501090    0.466977
    101          1           0        5.411601    1.896206   -1.914267
    102          1           0        5.204457    0.221056   -2.767135
    103          1           0        3.786614    1.072806   -2.205034
    104          1           0        6.583961    1.188139    0.102637
    105          1           0        6.217913   -0.422150    0.739338
    106          1           0        7.221860   -1.462898   -1.429669
    107          1           0        7.490576    0.012241   -1.954322
    108          1           0        8.850884    0.787188    0.009336
    109          1           0        8.694206   -0.770536    0.917940
    110          1           0       10.237066   -0.073699   -1.708640
    111          1           0        9.184441   -2.165835   -2.195171
    112          1           0       11.064431   -2.188033   -1.932834
    113          1           0        9.844399   -2.700959   -0.509561
    114          1           0       11.225957    0.688004    0.058136
    115          1           0       11.151948   -0.769183    0.933189
    116          1           0       13.000391   -1.657896   -1.142472
    117          1           0       12.647718   -0.113149   -1.684472
    118          1           0       13.478571    0.948797    0.635175
    119          1           0       14.008137   -0.571594    1.156265
    120          1           0       15.250871    0.508470   -1.419414
    121          1           0       14.849578   -1.820906   -2.023803
    122          1           0       16.771531   -1.491893   -1.509568
    123          1           0       15.395554   -2.313713   -0.203371
    124          1           0       15.999578    1.645245    0.611339
    125          1           0       16.362509    0.074253    1.254567
    126          1           0       18.056688   -0.267495   -0.297978
    127          1           0       17.600982    1.220133   -1.210256
    128          1           0       18.217367    2.596035    1.062341
    129          1           0       18.713841    0.983756    1.848683
    130          1           0       20.210144    0.403161    0.268814
    131          1           0       19.924598    3.299612   -0.866137
    132          1           0       21.407431    2.405484   -1.291184
    133          1           0       19.755145    1.739229   -1.793630
    134          1           0       20.701127    1.339022    2.575784
    135          1           0       22.139640    2.061068    1.475806
    136          1           0       20.762794    3.271314    1.747480
    137          1           0       -7.160424    1.744855    0.401387
    138          1           0       -7.752785   -0.371800    0.053896
 ---------------------------------------------------------------------

 SCF Done:  E(RB3LYP) =  -2732.90647124     A.U. after   16 cycles

 Excitation energies and oscillator strengths:

 Excited State   1:      Singlet-A      2.0829 eV  595.25 nm  f=0.1618  <S**2>=0.000
     235 -> 238       -0.30522
     236 -> 237        0.63377
 This state for optimization and/or second-order correction.
 Total Energy, E(TD-HF/TD-KS) =  -2732.82992646
 Copying the excited state density for this state as the 1-particle RhoCI density.

 The electronic state is 1-A.
 Alpha  occ. eigenvalues --  -19.18536 -19.15408 -19.14437 -19.11889 -19.11611
 Alpha  occ. eigenvalues --  -14.36975 -14.36284 -14.30958 -14.30099 -10.31195
 Alpha  occ. eigenvalues --  -10.30915 -10.27796 -10.27389 -10.26884 -10.24673
 Alpha  occ. eigenvalues --  -10.24633 -10.22749 -10.22562 -10.22367 -10.22137
 Alpha  occ. eigenvalues --  -10.22116 -10.21863 -10.21842 -10.21781 -10.21693
 Alpha  occ. eigenvalues --  -10.21633 -10.21504 -10.21356 -10.21201 -10.21166
 Alpha  occ. eigenvalues --  -10.21021 -10.20890 -10.20599 -10.20472 -10.20437
 Alpha  occ. eigenvalues --  -10.20433 -10.20389 -10.20308 -10.20308 -10.20158
 Alpha  occ. eigenvalues --  -10.20052 -10.20050 -10.20005 -10.19955 -10.19729
 Alpha  occ. eigenvalues --  -10.19484 -10.19457 -10.19371 -10.19313 -10.19265
 Alpha  occ. eigenvalues --  -10.18974 -10.18947 -10.18872 -10.18799 -10.18672
 Alpha  occ. eigenvalues --  -10.18507 -10.18345 -10.18277 -10.18027 -10.17759
 Alpha  occ. eigenvalues --  -10.17726 -10.17680 -10.17595 -10.17364  -1.12992
 Alpha  occ. eigenvalues --   -1.09547  -1.01230  -1.00816  -1.00135  -0.98439
 Alpha  occ. eigenvalues --   -0.96808  -0.95261  -0.94436  -0.85342  -0.85215
 Alpha  occ. eigenvalues --   -0.83309  -0.82925  -0.82154  -0.81380  -0.80202
 Alpha  occ. eigenvalues --   -0.79621  -0.79486  -0.78827  -0.78336  -0.77895
 Alpha  occ. eigenvalues --   -0.77327  -0.76325  -0.75700  -0.75400  -0.74482
 Alpha  occ. eigenvalues --   -0.73458  -0.72918  -0.72619  -0.71546  -0.70345
 Alpha  occ. eigenvalues --   -0.69607  -0.68682  -0.68069  -0.67371  -0.67253
 Alpha  occ. eigenvalues --   -0.66401  -0.66363  -0.65874  -0.65216  -0.65012
 Alpha  occ. eigenvalues --   -0.63846  -0.63288  -0.62099  -0.61592  -0.60727
 Alpha  occ. eigenvalues --   -0.59846  -0.59321  -0.58814  -0.58035  -0.57645
 Alpha  occ. eigenvalues --   -0.57120  -0.56590  -0.55972  -0.55743  -0.55510
 Alpha  occ. eigenvalues --   -0.54858  -0.54514  -0.53176  -0.52731  -0.52577
 Alpha  occ. eigenvalues --   -0.52448  -0.52023  -0.51615  -0.51390  -0.51063
 Alpha  occ. eigenvalues --   -0.49939  -0.49428  -0.49053  -0.48800  -0.48491
 Alpha  occ. eigenvalues --   -0.47895  -0.47848  -0.47595  -0.47355  -0.47044
 Alpha  occ. eigenvalues --   -0.46731  -0.46429  -0.46084  -0.45892  -0.45732
 Alpha  occ. eigenvalues --   -0.45537  -0.45326  -0.44852  -0.44782  -0.44623
 Alpha  occ. eigenvalues --   -0.44374  -0.44242  -0.44011  -0.43806  -0.43521
 Alpha  occ. eigenvalues --   -0.43226  -0.43095  -0.43013  -0.42783  -0.42596
 Alpha  occ. eigenvalues --   -0.42474  -0.42114  -0.41690  -0.41547  -0.41364
 Alpha  occ. eigenvalues --   -0.41174  -0.41043  -0.40649  -0.40524  -0.40292
 Alpha  occ. eigenvalues --   -0.40134  -0.39934  -0.39848  -0.39753  -0.39361
 Alpha  occ. eigenvalues --   -0.39221  -0.38999  -0.38938  -0.38865  -0.38514
 Alpha  occ. eigenvalues --   -0.38375  -0.38306  -0.37916  -0.37620  -0.37518
 Alpha  occ. eigenvalues --   -0.37291  -0.37058  -0.36842  -0.36674  -0.36624
 Alpha  occ. eigenvalues --   -0.36580  -0.36459  -0.36193  -0.35939  -0.35739
 Alpha  occ. eigenvalues --   -0.35500  -0.35388  -0.35261  -0.34768  -0.34678
 Alpha  occ. eigenvalues --   -0.34477  -0.34258  -0.34055  -0.33828  -0.33690
 Alpha  occ. eigenvalues --   -0.33609  -0.33224  -0.32811  -0.32179  -0.32119
 Alpha  occ. eigenvalues --   -0.31789  -0.31702  -0.31504  -0.30995  -0.30815
 Alpha  occ. eigenvalues --   -0.30749  -0.30683  -0.30225  -0.29743  -0.29657
 Alpha  occ. eigenvalues --   -0.29473  -0.29173  -0.28719  -0.28343  -0.28256
 Alpha  occ. eigenvalues --   -0.27085  -0.26696  -0.26333  -0.25073  -0.24838
 Alpha  occ. eigenvalues --   -0.24631  -0.24488  -0.23993  -0.22945  -0.20136
 Alpha  occ. eigenvalues --   -0.19058
 Alpha virt. eigenvalues --   -0.10282  -0.08025  -0.03773  -0.02110  -0.01680
 Alpha virt. eigenvalues --    0.00606   0.01175   0.01793   0.02393   0.02415
 Alpha virt. eigenvalues --    0.02928   0.03091   0.03334   0.03645   0.04246

 Mulliken charges:
               1
     1  C   -0.018802
     2  C    0.033163
     3  C   -0.110350
     4  C   -0.105385
     5  N   -0.099509
     6  C   -0.123578
     7  C    0.013595
     8  C   -0.050509
     9  C    0.036368
    10  C    0.108962
    11  C    0.026232
    12  C   -0.024112
    13  C    0.189254
    14  O   -0.255972
    15  O   -0.279822
    16  N   -0.055897
    17  C    0.054721
    18  C   -0.113987
    19  C    0.026208
    20  C    0.123154
    21  C    0.039971
    22  C   -0.026208
    23  C   -0.062697
    24  N   -0.197758
    25  C    0.030999
    26  C   -0.166299
    27  C   -0.084791
    28  C    0.033510
    29  C    0.089926
    30  C    0.030759
    31  C   -0.049853
    32  N   -0.026084
    33  C    0.028243
    34  C   -0.124188
    35  C   -0.058217
    36  C    0.076592
    37  C   -0.000139
    38  C    0.094790
    39  O   -0.201096
    40  C    0.007584
    41  C    0.175776
    42  O   -0.079793
    43  O   -0.367341
    44  C    0.040027
    45  C    0.191288
    46  C   -0.075354
    47  C   -0.227901
    48  C    0.170577
    49  C    0.085364
    50  C   -0.004192
    51  C   -0.007263
    52  C    0.035617
    53  C    0.032103
    54  C    0.080251
    55  C    0.030323
    56  C    0.008981
    57  C    0.049380
    58  C   -0.124290
    59  C    0.019604
    60  C    0.087577
    61  C   -0.096914
    62  C   -0.070689
    63  C    0.049449
    64  C   -0.097320
    65  H   -0.104121
    66  H    0.016823
    67  H    0.056342
    68  H   -0.042759
    69  H   -0.014033
    70  H   -0.014234
    71  H    0.016293
    72  H    0.028244
    73  H    0.001389
    74  H    0.011628
    75  H    0.036687
    76  H    0.016616
    77  H    0.032256
    78  H    0.018562
    79  H    0.061276
    80  H    0.014512
    81  H    0.021275
    82  H    0.042540
    83  H    0.034203
    84  H    0.027078
    85  H    0.014659
    86  H    0.016943
    87  H    0.032335
    88  H    0.011024
    89  H    0.020476
    90  H    0.025447
    91  H    0.041404
    92  H    0.078853
    93  H    0.061217
    94  H    0.067838
    95  H    0.078182
    96  H    0.051344
    97  H    0.085759
    98  H    0.054738
    99  H    0.040018
   100  H    0.042221
   101  H    0.029722
   102  H    0.059441
   103  H    0.004557
   104  H   -0.005986
   105  H   -0.003710
   106  H   -0.000184
   107  H   -0.029258
   108  H   -0.017888
   109  H   -0.007636
   110  H   -0.079175
   111  H   -0.002062
   112  H    0.011595
   113  H    0.024959
   114  H   -0.086518
   115  H   -0.001497
   116  H    0.023701
   117  H   -0.026436
   118  H   -0.004175
   119  H    0.002650
   120  H   -0.045262
   121  H    0.046699
   122  H    0.025982
   123  H    0.041657
   124  H   -0.010085
   125  H   -0.031562
   126  H   -0.012340
   127  H    0.002209
   128  H    0.009134
   129  H    0.009406
   130  H   -0.002301
   131  H    0.011174
   132  H    0.017377
   133  H    0.020678
   134  H    0.011530
   135  H    0.032656
   136  H    0.041717
   137  H    0.099025
   138  H    0.143135
 Sum of Mulliken charges =   0.00000

 Dipole moment (field-independent basis, Debye):
    X=              4.6816    Y=              6.5645    Z=             -0.3296  Tot=              8.0696
 Quadrupole moment (field-independent basis, Debye-Ang):
   XX=           -359.6203   YY=           -384.7854   ZZ=           -397.6887
   XY=            -28.0426   XZ=             -8.9479   YZ=             -3.2107

 Normal termination of Gaussian 09 at Sat Aug  3 15:33:18 2019.
