 Gaussian 09, Revision D.01,
 Gaussian 09:  ES64L-G09RevD.01 24-Apr-2013

 --------------------------
 # td=(NStates=1) B3LYP/SVP
 --------------------------

 --
 TD
 --
 Symbolic Z-matrix:
 Charge =  0 Multiplicity = 1

                         Standard orientation:
 ---------------------------------------------------------------------
 Center     Atomic      Atomic             Coordinates (Angstroms)
 Number     Number       Type             X           Y           Z
 ---------------------------------------------------------------------
      1          6           0       -5.072952   -1.938273    0.538957
      2          6           0       -4.845996    2.834392    1.406773
      3          6           0       -9.484376    3.244136   -0.287361
      4          6           0       -9.769531   -1.595037   -1.033975
      5          7           0       -5.210254    0.441146    0.813743
      6          6           0       -4.504366   -0.667376    0.879502
      7          6           0       -3.033436   -0.474780    1.293383
      8          6           0       -3.183039    0.989389    1.791036
      9          6           0       -4.413100    1.455608    1.220513
     10          6           0       -2.980507    0.899744    3.391978
     11          6           0       -2.135040   -0.675216    0.122544
     12          6           0       -0.679326   -0.718597    0.535804
     13          6           0        0.256397   -0.813554   -0.640674
     14          8           0        0.017940   -1.018808   -1.791980
     15          8           0        1.549786   -0.794338   -0.140616
     16          7           0       -7.140863    2.750615    0.374949
     17          6           0       -6.048922    3.385982    0.887614
     18          6           0       -6.381680    4.845812    0.888449
     19          6           0       -7.635191    4.953473    0.400812
     20          6           0       -8.106683    3.662400    0.108898
     21          6           0       -5.375724    5.852477    1.460494
     22          6           0       -8.492202    6.186987    0.418042
     23          6           0       -9.302961    6.455907   -0.504521
     24          7           0       -9.224441    0.867265   -0.579009
     25          6           0      -10.026842    1.996538   -0.568176
     26          6           0      -11.393596    1.717267   -0.994410
     27          6           0      -11.452207    0.376124   -1.108779
     28          6           0      -10.133165   -0.210070   -0.873597
     29          6           0      -12.351006    2.845194   -1.310411
     30          6           0      -12.649757   -0.355616   -1.665352
     31          6           0      -12.685828   -0.713502   -3.086551
     32          7           0       -7.456091   -1.366018   -0.167380
     33          6           0       -8.505335   -2.105744   -0.636488
     34          6           0       -8.107180   -3.441071   -0.635634
     35          6           0       -6.753200   -3.422420   -0.253939
     36          6           0       -6.399553   -2.031816    0.150075
     37          6           0       -8.907605   -4.625865   -0.953195
     38          6           0       -5.577977   -4.325663   -0.073672
     39          8           0       -5.542027   -5.508128    0.014627
     40          6           0       -4.489697   -3.321249    0.504312
     41          6           0       -3.823547   -3.717103    1.914937
     42          8           0       -4.267278   -3.305992    3.012138
     43          8           0       -2.797266   -4.554679    1.785867
     44          6           0       -2.275008   -5.175006    3.008864
     45          6           0        2.584152   -0.939591   -1.154976
     46          6           0        3.984399   -0.793379   -0.555839
     47          6           0        4.927561    0.061858   -0.901935
     48          6           0        4.934733    0.900074   -2.244787
     49          6           0        6.232377    0.159566   -0.111901
     50          6           0        7.493310   -0.261389   -1.080623
     51          6           0        8.750949   -0.402808   -0.215279
     52          6           0       10.157218   -0.821696   -1.002729
     53          6           0       10.236071   -2.357344   -1.512098
     54          6           0       11.392532   -0.333310   -0.119671
     55          6           0       12.845385   -0.579702   -0.660625
     56          6           0       13.943342    0.016955    0.188354
     57          6           0       15.318033   -0.168798   -0.509742
     58          6           0       15.563335   -1.658241   -0.894350
     59          6           0       16.393147    0.434354    0.498464
     60          6           0       17.780821    0.656536   -0.161853
     61          6           0       18.706200    1.468715    0.731705
     62          6           0       20.163668    1.701074    0.282791
     63          6           0       20.313945    2.364245   -1.171238
     64          6           0       20.902105    2.570357    1.397906
     65          1           0       -4.035074    3.621662    1.685194
     66          1           0      -10.370622    4.097312   -0.332695
     67          1           0      -10.429530   -2.251336   -1.515587
     68          1           0       -2.665617   -1.182834    2.061559
     69          1           0       -2.467460    1.483618    1.373077
     70          1           0       -1.976509    0.629348    3.757713
     71          1           0       -3.361466    2.015072    3.924822
     72          1           0       -3.776693    0.261893    3.981026
     73          1           0       -2.274195   -1.625451   -0.623152
     74          1           0       -2.241363    0.098807   -0.624822
     75          1           0       -0.297634    0.093934    1.178273
     76          1           0       -0.530648   -1.660374    1.285294
     77          1           0       -4.376442    5.827296    0.864947
     78          1           0       -5.684186    6.799709    1.216601
     79          1           0       -5.145969    5.555051    2.567965
     80          1           0       -8.225628    6.871495    1.267183
     81          1           0       -9.749897    5.690804   -1.427936
     82          1           0      -10.124478    7.372381   -0.374421
     83          1           0      -12.515068    3.482045   -0.348296
     84          1           0      -12.272546    3.359609   -2.278033
     85          1           0      -13.428209    2.308572   -1.228409
     86          1           0      -12.596147   -1.416322   -1.188766
     87          1           0      -13.684522    0.092538   -1.329863
     88          1           0      -12.778431    0.131897   -3.808161
     89          1           0      -11.810164   -1.324362   -3.316428
     90          1           0      -13.652361   -1.276713   -3.427076
     91          1           0       -9.932547   -4.723369   -0.382263
     92          1           0       -9.079159   -4.659903   -1.947626
     93          1           0       -8.462940   -5.510876   -0.536503
     94          1           0       -3.645615   -3.542045   -0.327455
     95          1           0       -1.484815   -5.790569    2.713480
     96          1           0       -1.906028   -4.287673    3.591722
     97          1           0       -3.227063   -5.662189    3.508177
     98          1           0        2.306213   -1.887246   -1.337005
     99          1           0        2.406035   -0.122366   -2.033884
    100          1           0        4.299348   -1.473344    0.336115
    101          1           0        5.589882    1.891604   -2.181572
    102          1           0        5.370617    0.075993   -3.046713
    103          1           0        3.835583    1.122578   -2.511489
    104          1           0        6.307309    1.179336    0.361192
    105          1           0        6.246289   -0.655925    0.768158
    106          1           0        7.068982   -1.212023   -1.447564
    107          1           0        7.867604    0.690002   -2.002357
    108          1           0        8.966465    0.661977    0.147964
    109          1           0        8.775194   -1.017752    0.724956
    110          1           0       10.227961   -0.151967   -2.028587
    111          1           0        9.330777   -2.596098   -1.863733
    112          1           0       11.211960   -2.493064   -2.239538
    113          1           0       10.641132   -2.862554   -0.505660
    114          1           0       11.250478    0.760923    0.136778
    115          1           0       11.552993   -0.919145    0.799595
    116          1           0       13.041658   -1.649936   -0.843514
    117          1           0       12.797313   -0.291507   -1.735732
    118          1           0       13.794059    1.161898    0.374592
    119          1           0       13.844904   -0.378594    1.283496
    120          1           0       15.116796    0.408332   -1.434517
    121          1           0       14.826485   -2.269908   -1.690500
    122          1           0       16.443000   -1.821226   -1.467454
    123          1           0       15.613018   -2.228561    0.228263
    124          1           0       16.069203    1.437429    0.828927
    125          1           0       16.421997   -0.023842    1.420649
    126          1           0       18.046589   -0.430192   -0.604780
    127          1           0       17.843269    1.198881   -1.088399
    128          1           0       18.277105    2.387893    0.910836
    129          1           0       18.759972    1.014913    1.721882
    130          1           0       20.681265    0.657871    0.220579
    131          1           0       19.848386    3.444258   -1.030940
    132          1           0       21.459826    2.305566   -1.370205
    133          1           0       19.559147    1.852128   -1.863284
    134          1           0       21.150062    2.060186    2.364786
    135          1           0       21.947680    2.743596    1.022076
    136          1           0       20.530754    3.493592    1.637233
    137          1           0       -7.474221    1.795789    0.388612
    138          1           0       -7.530620   -0.479693   -0.032170
 ---------------------------------------------------------------------

 SCF Done:  E(RB3LYP) =  -2733.03150739     A.U. after   17 cycles

 Excitation energies and oscillator strengths:

 Excited State   1:      Singlet-A      2.0235 eV  612.71 nm  f=0.1382  <S**2>=0.000
     235 -> 238        0.32566
     236 -> 237        0.62032
 This state for optimization and/or second-order correction.
 Total Energy, E(TD-HF/TD-KS) =  -2732.95714350
 Copying the excited state density for this state as the 1-particle RhoCI density.

 The electronic state is 1-A.
 Alpha  occ. eigenvalues --  -19.18441 -19.16270 -19.13143 -19.12594 -19.12085
 Alpha  occ. eigenvalues --  -14.37106 -14.36546 -14.32396 -14.30118 -10.32148
 Alpha  occ. eigenvalues --  -10.31408 -10.27965 -10.25827 -10.24650 -10.23974
 Alpha  occ. eigenvalues --  -10.23703 -10.23139 -10.23057 -10.23013 -10.22934
 Alpha  occ. eigenvalues --  -10.22335 -10.22261 -10.22033 -10.22032 -10.21655
 Alpha  occ. eigenvalues --  -10.21294 -10.21277 -10.21206 -10.21150 -10.20877
 Alpha  occ. eigenvalues --  -10.20802 -10.20797 -10.20735 -10.20676 -10.20653
 Alpha  occ. eigenvalues --  -10.20591 -10.20580 -10.20436 -10.20328 -10.20318
 Alpha  occ. eigenvalues --  -10.20152 -10.20103 -10.20051 -10.19959 -10.19935
 Alpha  occ. eigenvalues --  -10.19933 -10.19901 -10.19796 -10.19741 -10.19686
 Alpha  occ. eigenvalues --  -10.19268 -10.19227 -10.19210 -10.18783 -10.18750
 Alpha  occ. eigenvalues --  -10.18572 -10.18540 -10.18527 -10.18492 -10.18479
 Alpha  occ. eigenvalues --  -10.18230 -10.17739 -10.17649 -10.17130  -1.08890
 Alpha  occ. eigenvalues --   -1.08762  -1.04372  -1.01183  -1.00703  -0.98955
 Alpha  occ. eigenvalues --   -0.98585  -0.96118  -0.91497  -0.84220  -0.82367
 Alpha  occ. eigenvalues --   -0.82168  -0.81949  -0.81378  -0.81168  -0.79833
 Alpha  occ. eigenvalues --   -0.79472  -0.79104  -0.78482  -0.77954  -0.77410
 Alpha  occ. eigenvalues --   -0.76364  -0.75434  -0.74955  -0.74532  -0.73779
 Alpha  occ. eigenvalues --   -0.73291  -0.72765  -0.72034  -0.71338  -0.70716
 Alpha  occ. eigenvalues --   -0.70113  -0.69298  -0.68261  -0.67396  -0.67046
 Alpha  occ. eigenvalues --   -0.66666  -0.66488  -0.65997  -0.65950  -0.64815
 Alpha  occ. eigenvalues --   -0.64113  -0.62612  -0.62117  -0.61165  -0.60746
 Alpha  occ. eigenvalues --   -0.60386  -0.58975  -0.58642  -0.57920  -0.57559
 Alpha  occ. eigenvalues --   -0.56823  -0.56747  -0.56156  -0.55398  -0.55355
 Alpha  occ. eigenvalues --   -0.54433  -0.54406  -0.53280  -0.52946  -0.52867
 Alpha  occ. eigenvalues --   -0.52541  -0.51369  -0.50934  -0.50458  -0.50204
 Alpha  occ. eigenvalues --   -0.49801  -0.48953  -0.48693  -0.48610  -0.47767
 Alpha  occ. eigenvalues --   -0.47574  -0.47275  -0.46931  -0.46800  -0.46399
 Alpha  occ. eigenvalues --   -0.46297  -0.46177  -0.46000  -0.45672  -0.45412
 Alpha  occ. eigenvalues --   -0.45275  -0.45148  -0.44971  -0.44839  -0.44359
 Alpha  occ. eigenvalues --   -0.44158  -0.44058  -0.44030  -0.43940  -0.43604
 Alpha  occ. eigenvalues --   -0.43368  -0.43293  -0.43203  -0.42798  -0.42429
 Alpha  occ. eigenvalues --   -0.42326  -0.42186  -0.41892  -0.41431  -0.41180
 Alpha  occ. eigenvalues --   -0.41073  -0.40738  -0.40462  -0.40261  -0.40205
 Alpha  occ. eigenvalues --   -0.40192  -0.39846  -0.39702  -0.39331  -0.39140
 Alpha  occ. eigenvalues --   -0.38933  -0.38665  -0.38641  -0.38348  -0.38291
 Alpha  occ. eigenvalues --   -0.38133  -0.37924  -0.37822  -0.37683  -0.37544
 Alpha  occ. eigenvalues --   -0.37279  -0.37214  -0.37027  -0.36824  -0.36606
 Alpha  occ. eigenvalues --   -0.36274  -0.36119  -0.36010  -0.35961  -0.35551
 Alpha  occ. eigenvalues --   -0.35513  -0.35281  -0.35124  -0.34974  -0.34660
 Alpha  occ. eigenvalues --   -0.34205  -0.33959  -0.33108  -0.33041  -0.32987
 Alpha  occ. eigenvalues --   -0.32719  -0.32665  -0.32313  -0.32094  -0.31956
 Alpha  occ. eigenvalues --   -0.31926  -0.31537  -0.31414  -0.31374  -0.30747
 Alpha  occ. eigenvalues --   -0.30735  -0.30686  -0.30529  -0.30330  -0.30251
 Alpha  occ. eigenvalues --   -0.29673  -0.29312  -0.28707  -0.27858  -0.27723
 Alpha  occ. eigenvalues --   -0.27581  -0.27359  -0.26702  -0.26309  -0.26190
 Alpha  occ. eigenvalues --   -0.25270  -0.25240  -0.24560  -0.22921  -0.19449
 Alpha  occ. eigenvalues --   -0.18732
 Alpha virt. eigenvalues --   -0.10138  -0.07628  -0.04362  -0.01558  -0.00653
 Alpha virt. eigenvalues --   -0.00355  -0.00039   0.00339   0.02138   0.02198
 Alpha virt. eigenvalues --    0.03671   0.03777   0.03894   0.04390   0.04583

 Mulliken charges:
               1
     1  C    0.025211
     2  C   -0.093874
     3  C   -0.092307
     4  C   -0.057022
     5  N   -0.124304
     6  C   -0.061295
     7  C   -0.073235
     8  C    0.191046
     9  C   -0.040907
    10  C   -0.032509
    11  C    0.025561
    12  C   -0.028458
    13  C    0.191494
    14  O   -0.210609
    15  O   -0.369518
    16  N   -0.000446
    17  C    0.084659
    18  C   -0.159121
    19  C   -0.003815
    20  C    0.028171
    21  C    0.103233
    22  C    0.010644
    23  C   -0.116973
    24  N   -0.308530
    25  C    0.027917
    26  C   -0.105271
    27  C   -0.070809
    28  C    0.084291
    29  C    0.049280
    30  C    0.016629
    31  C    0.005839
    32  N    0.173965
    33  C    0.067309
    34  C   -0.157053
    35  C   -0.104134
    36  C    0.037784
    37  C    0.137186
    38  C    0.112382
    39  O   -0.138981
    40  C   -0.105373
    41  C    0.219994
    42  O   -0.272948
    43  O   -0.300333
    44  C    0.177320
    45  C    0.328001
    46  C   -0.092280
    47  C   -0.155241
    48  C   -0.021891
    49  C    0.011299
    50  C   -0.046593
    51  C    0.014126
    52  C   -0.129330
    53  C    0.018712
    54  C    0.015902
    55  C    0.008498
    56  C   -0.012088
    57  C   -0.046163
    58  C   -0.042684
    59  C    0.086056
    60  C    0.026153
    61  C    0.080646
    62  C   -0.120205
    63  C   -0.039909
    64  C    0.040427
    65  H    0.012944
    66  H    0.027680
    67  H   -0.035882
    68  H    0.011479
    69  H   -0.087910
    70  H    0.035734
    71  H    0.014989
    72  H    0.052666
    73  H    0.044152
    74  H   -0.004159
    75  H    0.028472
    76  H    0.050233
    77  H    0.032931
    78  H   -0.010437
    79  H    0.059906
    80  H    0.021972
    81  H    0.071490
    82  H    0.035814
    83  H    0.039610
    84  H    0.055284
    85  H    0.007582
    86  H   -0.000735
    87  H    0.019583
    88  H    0.003169
    89  H    0.009347
    90  H    0.014011
    91  H    0.024958
    92  H    0.007665
    93  H    0.024376
    94  H    0.066621
    95  H    0.032738
    96  H    0.041143
    97  H    0.070258
    98  H   -0.036803
    99  H    0.047449
   100  H    0.005625
   101  H    0.048020
   102  H    0.064934
   103  H    0.036359
   104  H    0.027859
   105  H    0.021158
   106  H    0.024902
   107  H    0.042249
   108  H    0.003951
   109  H    0.009880
   110  H    0.001137
   111  H    0.000538
   112  H    0.039321
   113  H    0.025527
   114  H    0.005719
   115  H   -0.007232
   116  H   -0.004686
   117  H   -0.022913
   118  H    0.002917
   119  H   -0.000954
   120  H   -0.000844
   121  H    0.033634
   122  H    0.007710
   123  H    0.029681
   124  H   -0.023992
   125  H   -0.029665
   126  H   -0.001642
   127  H   -0.023760
   128  H   -0.034182
   129  H   -0.016802
   130  H    0.005588
   131  H    0.019849
   132  H    0.047280
   133  H    0.034649
   134  H    0.007956
   135  H   -0.007189
   136  H   -0.009277
   137  H    0.144233
   138  H    0.038606
 Sum of Mulliken charges =   0.00000

 Dipole moment (field-independent basis, Debye):
    X=              2.7850    Y=              3.2605    Z=              1.1306  Tot=              4.4346
 Quadrupole moment (field-independent basis, Debye-Ang):
   XX=           -356.1357   YY=           -382.9301   ZZ=           -396.8959
   XY=            -16.9308   XZ=             13.1213   YZ=              2.2929

 Normal termination of Gaussian 09 at Sun Aug  4 13:58:45 2019.
