 Gaussian 09, Revision D.01,
 Gaussian 09:  ES64L-G09RevD.01 24-Apr-2013

 --------------------------
 # td=(NStates=1) B3LYP/SVP
 --------------------------

 --
 TD
 --
 Symbolic Z-matrix:
 Charge =  0 Multiplicity = 1

                         Standard orientation:
 ---------------------------------------------------------------------
 Center     Atomic      Atomic             Coordinates (Angstroms)
 Number     Number       Type             X           Y           Z
 ---------------------------------------------------------------------
      1          6           0       -5.179512   -1.860910    0.499551
      2          6           0       -4.769357    2.854748    1.300126
      3          6           0       -9.284501    3.301097   -0.336872
      4          6           0       -9.802254   -1.578435   -0.831767
      5          7           0       -5.128780    0.476063    0.715103
      6          6           0       -4.428091   -0.690722    0.791071
      7          6           0       -2.963926   -0.477362    1.198028
      8          6           0       -3.067278    0.942325    1.834911
      9          6           0       -4.384746    1.471397    1.236713
     10          6           0       -3.168447    0.877329    3.429398
     11          6           0       -2.017376   -0.738751    0.107930
     12          6           0       -0.536069   -0.792319    0.518467
     13          6           0        0.379521   -1.122591   -0.628229
     14          8           0       -0.115569   -1.414800   -1.727416
     15          8           0        1.687363   -0.878725   -0.240327
     16          7           0       -7.033406    2.809853    0.390989
     17          6           0       -5.940787    3.480766    0.989972
     18          6           0       -6.270314    4.830979    1.061869
     19          6           0       -7.531005    5.096421    0.519423
     20          6           0       -8.032265    3.716359    0.122574
     21          6           0       -5.366411    5.889845    1.663910
     22          6           0       -8.142292    6.405026    0.264715
     23          6           0       -9.106941    6.851139   -0.573642
     24          7           0       -9.195408    0.862429   -0.419315
     25          6           0       -9.818878    1.997866   -0.482483
     26          6           0      -11.214409    1.893741   -1.082454
     27          6           0      -11.401706    0.490857   -1.249727
     28          6           0      -10.164609   -0.144273   -0.777533
     29          6           0      -12.213863    2.939540   -1.241300
     30          6           0      -12.675326   -0.292513   -1.665172
     31          6           0      -12.583061   -0.561601   -3.162375
     32          7           0       -7.560063   -1.134721   -0.152371
     33          6           0       -8.595620   -2.045878   -0.608534
     34          6           0       -8.175888   -3.471035   -0.540628
     35          6           0       -6.833826   -3.328526   -0.241031
     36          6           0       -6.514220   -1.986309    0.098750
     37          6           0       -8.931348   -4.723594   -0.992735
     38          6           0       -5.639667   -4.209591    0.035385
     39          8           0       -5.606403   -5.460845   -0.051194
     40          6           0       -4.529334   -3.316314    0.594805
     41          6           0       -3.922342   -3.827590    1.989138
     42          8           0       -4.266873   -3.410031    2.997322
     43          8           0       -3.074705   -4.759221    1.708458
     44          6           0       -2.517276   -5.381935    2.824286
     45          6           0        2.660522   -1.315274   -1.275537
     46          6           0        4.016735   -0.981379   -0.715330
     47          6           0        4.992829   -0.108876   -1.099214
     48          6           0        4.864316    0.532169   -2.479043
     49          6           0        6.199858    0.108645   -0.310336
     50          6           0        7.425590   -0.526584   -0.992074
     51          6           0        8.753557   -0.420388   -0.103540
     52          6           0       10.132907   -0.764129   -0.827752
     53          6           0       10.102775   -2.284128   -1.152032
     54          6           0       11.337870   -0.366062   -0.107538
     55          6           0       12.652858   -0.564438   -0.669719
     56          6           0       13.840668    0.095109    0.093816
     57          6           0       15.276170   -0.222737   -0.462329
     58          6           0       15.722404   -1.696516   -0.517958
     59          6           0       16.236057    0.692473    0.437422
     60          6           0       17.707896    0.770534   -0.227913
     61          6           0       18.548834    1.794843    0.655002
     62          6           0       20.041130    1.812958    0.232813
     63          6           0       20.268800    2.497505   -1.146701
     64          6           0       20.867851    2.439053    1.347034
     65          1           0       -4.061295    3.582311    1.893517
     66          1           0       -9.893798    4.198249   -0.670598
     67          1           0      -10.660368   -2.208573   -1.157970
     68          1           0       -2.823287   -1.036697    2.106104
     69          1           0       -2.185740    1.605721    1.725753
     70          1           0       -2.181734    0.354055    3.891063
     71          1           0       -3.377035    1.941830    3.820082
     72          1           0       -3.952582    0.307516    3.735674
     73          1           0       -2.461324   -1.546156   -0.456558
     74          1           0       -2.161562    0.065021   -0.748542
     75          1           0       -0.111388    0.220875    0.958756
     76          1           0       -0.262910   -1.652884    1.230002
     77          1           0       -4.642240    6.021793    0.869815
     78          1           0       -5.990867    6.745941    1.969411
     79          1           0       -5.012504    5.512976    2.648532
     80          1           0       -7.913082    7.194954    0.950037
     81          1           0       -9.350640    6.296334   -1.379167
     82          1           0       -9.383057    7.829441   -0.624892
     83          1           0      -12.301680    3.492470   -0.258058
     84          1           0      -11.757040    3.753720   -2.026370
     85          1           0      -13.217811    2.587586   -1.546084
     86          1           0      -12.825374   -1.162004   -1.222113
     87          1           0      -13.607555    0.380255   -1.387816
     88          1           0      -12.531702    0.395827   -3.640196
     89          1           0      -11.687069   -0.996629   -3.538539
     90          1           0      -13.386500   -1.304601   -3.522155
     91          1           0       -9.823268   -4.922680   -0.141962
     92          1           0       -9.378884   -4.556895   -1.786334
     93          1           0       -8.288793   -5.573663   -1.195105
     94          1           0       -3.666694   -3.432153   -0.288452
     95          1           0       -1.942004   -5.931855    2.380596
     96          1           0       -2.061392   -4.624747    3.583722
     97          1           0       -3.288715   -6.248533    3.221297
     98          1           0        2.530496   -2.443855   -1.316541
     99          1           0        2.335020   -0.942111   -2.244023
    100          1           0        4.121444   -1.429404    0.133272
    101          1           0        5.085081    1.352091   -2.285256
    102          1           0        5.643875    0.011285   -3.171956
    103          1           0        3.981369    0.359922   -2.926787
    104          1           0        6.353678    1.169480   -0.150260
    105          1           0        5.921154   -0.370435    0.693006
    106          1           0        7.254536   -1.629335   -1.395341
    107          1           0        7.560871    0.069104   -2.047191
    108          1           0        8.901640    0.588571    0.240452
    109          1           0        8.449070   -1.055904    0.749779
    110          1           0       10.201423   -0.223017   -1.760225
    111          1           0        9.190314   -2.878296   -1.626986
    112          1           0       10.953594   -2.749246   -1.636327
    113          1           0       10.047511   -2.518437   -0.057833
    114          1           0       11.110213    0.680917    0.109620
    115          1           0       11.484381   -0.840477    1.052180
    116          1           0       12.776758   -1.654625   -0.689696
    117          1           0       12.587923   -0.269704   -1.727804
    118          1           0       13.682106    1.271514    0.069032
    119          1           0       13.820440   -0.233112    1.206811
    120          1           0       15.481745    0.170207   -1.404966
    121          1           0       15.211396   -2.129420   -1.486919
    122          1           0       16.716964   -1.879656   -0.791826
    123          1           0       15.436877   -2.352569    0.407283
    124          1           0       15.763458    1.721818    0.690065
    125          1           0       16.296980    0.359131    1.454930
    126          1           0       18.354639   -0.235669   -0.266124
    127          1           0       17.537740    0.929129   -1.314549
    128          1           0       18.167901    2.718229    0.531919
    129          1           0       18.252322    1.405482    1.630856
    130          1           0       20.430174    0.691240    0.137959
    131          1           0       20.162169    3.565783   -1.098425
    132          1           0       21.367265    2.580676   -1.317192
    133          1           0       19.837338    2.016503   -2.008277
    134          1           0       20.713540    2.078515    2.394331
    135          1           0       22.082575    2.100726    1.214452
    136          1           0       20.868701    3.499977    1.434534
    137          1           0       -7.171763    1.794129    0.120157
    138          1           0       -7.717137   -0.186117   -0.248834
 ---------------------------------------------------------------------

 SCF Done:  E(RB3LYP) =  -2733.04374682     A.U. after   17 cycles

 Excitation energies and oscillator strengths:

 Excited State   1:      Singlet-A      2.0007 eV  619.70 nm  f=0.1006  <S**2>=0.000
     235 -> 238        0.34050
     236 -> 237        0.61676
 This state for optimization and/or second-order correction.
 Total Energy, E(TD-HF/TD-KS) =  -2732.97022210
 Copying the excited state density for this state as the 1-particle RhoCI density.

 The electronic state is 1-A.
 Alpha  occ. eigenvalues --  -19.19011 -19.18236 -19.13157 -19.12930 -19.11633
 Alpha  occ. eigenvalues --  -14.36296 -14.35991 -14.31927 -14.29934 -10.31773
 Alpha  occ. eigenvalues --  -10.31767 -10.27618 -10.25284 -10.24724 -10.23612
 Alpha  occ. eigenvalues --  -10.23385 -10.23120 -10.22983 -10.22862 -10.22860
 Alpha  occ. eigenvalues --  -10.21941 -10.21930 -10.21707 -10.21564 -10.21347
 Alpha  occ. eigenvalues --  -10.21141 -10.21094 -10.20466 -10.20442 -10.20371
 Alpha  occ. eigenvalues --  -10.20207 -10.20204 -10.20170 -10.20167 -10.19936
 Alpha  occ. eigenvalues --  -10.19888 -10.19839 -10.19808 -10.19784 -10.19781
 Alpha  occ. eigenvalues --  -10.19733 -10.19686 -10.19499 -10.19496 -10.19474
 Alpha  occ. eigenvalues --  -10.19394 -10.19384 -10.19111 -10.19031 -10.18971
 Alpha  occ. eigenvalues --  -10.18919 -10.18854 -10.18686 -10.18685 -10.18612
 Alpha  occ. eigenvalues --  -10.18535 -10.18387 -10.17981 -10.17927 -10.17787
 Alpha  occ. eigenvalues --  -10.17529 -10.17510 -10.17403 -10.16738  -1.13712
 Alpha  occ. eigenvalues --   -1.07346  -1.05154  -1.00037  -0.99923  -0.96797
 Alpha  occ. eigenvalues --   -0.96457  -0.93984  -0.92318  -0.83690  -0.83462
 Alpha  occ. eigenvalues --   -0.82583  -0.81626  -0.81166  -0.80594  -0.80307
 Alpha  occ. eigenvalues --   -0.79737  -0.79002  -0.78845  -0.78094  -0.77400
 Alpha  occ. eigenvalues --   -0.76940  -0.76191  -0.75949  -0.74754  -0.74668
 Alpha  occ. eigenvalues --   -0.73836  -0.73309  -0.72414  -0.72196  -0.71135
 Alpha  occ. eigenvalues --   -0.70405  -0.69569  -0.68964  -0.68530  -0.67602
 Alpha  occ. eigenvalues --   -0.67119  -0.66518  -0.65990  -0.65188  -0.64969
 Alpha  occ. eigenvalues --   -0.63713  -0.62982  -0.62381  -0.61648  -0.61521
 Alpha  occ. eigenvalues --   -0.60710  -0.58652  -0.58496  -0.57373  -0.57094
 Alpha  occ. eigenvalues --   -0.56434  -0.56324  -0.56043  -0.55855  -0.55330
 Alpha  occ. eigenvalues --   -0.55199  -0.54903  -0.54584  -0.54125  -0.53598
 Alpha  occ. eigenvalues --   -0.53111  -0.51790  -0.51223  -0.51104  -0.50342
 Alpha  occ. eigenvalues --   -0.49910  -0.49538  -0.48800  -0.48658  -0.48581
 Alpha  occ. eigenvalues --   -0.48367  -0.48010  -0.47784  -0.47524  -0.47112
 Alpha  occ. eigenvalues --   -0.47030  -0.46299  -0.45991  -0.45580  -0.45482
 Alpha  occ. eigenvalues --   -0.45346  -0.45122  -0.45032  -0.44926  -0.44865
 Alpha  occ. eigenvalues --   -0.44549  -0.44332  -0.44180  -0.43695  -0.43436
 Alpha  occ. eigenvalues --   -0.43374  -0.43129  -0.42791  -0.42672  -0.42508
 Alpha  occ. eigenvalues --   -0.42093  -0.41999  -0.41845  -0.41441  -0.41202
 Alpha  occ. eigenvalues --   -0.41111  -0.41020  -0.40912  -0.40631  -0.40471
 Alpha  occ. eigenvalues --   -0.40284  -0.39858  -0.39558  -0.39538  -0.39260
 Alpha  occ. eigenvalues --   -0.39079  -0.38898  -0.38664  -0.38388  -0.38348
 Alpha  occ. eigenvalues --   -0.38265  -0.38045  -0.37847  -0.37626  -0.37369
 Alpha  occ. eigenvalues --   -0.37352  -0.37204  -0.37051  -0.36847  -0.36692
 Alpha  occ. eigenvalues --   -0.36540  -0.36517  -0.36121  -0.35872  -0.35529
 Alpha  occ. eigenvalues --   -0.35365  -0.35275  -0.34936  -0.34860  -0.34759
 Alpha  occ. eigenvalues --   -0.34600  -0.34370  -0.34247  -0.34209  -0.34142
 Alpha  occ. eigenvalues --   -0.33892  -0.33628  -0.33243  -0.33019  -0.32210
 Alpha  occ. eigenvalues --   -0.32200  -0.32137  -0.31830  -0.31710  -0.31474
 Alpha  occ. eigenvalues --   -0.31464  -0.31299  -0.31212  -0.30933  -0.30792
 Alpha  occ. eigenvalues --   -0.30383  -0.29770  -0.28704  -0.28130  -0.27880
 Alpha  occ. eigenvalues --   -0.27771  -0.27005  -0.26743  -0.26398  -0.25551
 Alpha  occ. eigenvalues --   -0.24682  -0.24379  -0.23726  -0.21808  -0.19547
 Alpha  occ. eigenvalues --   -0.18061
 Alpha virt. eigenvalues --   -0.09287  -0.08243  -0.04360  -0.01720  -0.00826
 Alpha virt. eigenvalues --   -0.00374   0.00406   0.01690   0.02533   0.03669
 Alpha virt. eigenvalues --    0.04202   0.04271   0.04466   0.04660   0.04817

 Mulliken charges:
               1
     1  C   -0.039135
     2  C   -0.101941
     3  C   -0.094525
     4  C   -0.103345
     5  N   -0.165362
     6  C   -0.142380
     7  C    0.091565
     8  C   -0.110035
     9  C    0.016911
    10  C    0.039749
    11  C    0.129092
    12  C    0.012662
    13  C    0.190923
    14  O   -0.255339
    15  O   -0.349724
    16  N   -0.123638
    17  C    0.141438
    18  C   -0.174533
    19  C    0.090126
    20  C    0.017187
    21  C    0.131039
    22  C   -0.074608
    23  C    0.035118
    24  N   -0.262749
    25  C    0.106816
    26  C   -0.173129
    27  C   -0.107175
    28  C    0.024449
    29  C    0.051869
    30  C    0.125315
    31  C    0.017117
    32  N   -0.030847
    33  C    0.147413
    34  C   -0.173190
    35  C   -0.031100
    36  C    0.193689
    37  C    0.190389
    38  C    0.096124
    39  O   -0.216511
    40  C   -0.113990
    41  C    0.178253
    42  O   -0.145961
    43  O   -0.238040
    44  C    0.221207
    45  C    0.276949
    46  C   -0.018242
    47  C   -0.215400
    48  C    0.280404
    49  C    0.124251
    50  C   -0.102534
    51  C    0.064459
    52  C    0.007547
    53  C   -0.040127
    54  C   -0.022200
    55  C    0.088701
    56  C   -0.017991
    57  C   -0.013699
    58  C    0.021117
    59  C   -0.012538
    60  C   -0.051899
    61  C    0.112616
    62  C   -0.104126
    63  C    0.066875
    64  C   -0.011550
    65  H   -0.003029
    66  H   -0.022193
    67  H   -0.014458
    68  H   -0.026398
    69  H   -0.006557
    70  H    0.032319
    71  H    0.022562
    72  H    0.002382
    73  H   -0.003987
    74  H    0.013513
    75  H    0.058790
    76  H    0.037283
    77  H    0.044521
    78  H    0.015030
    79  H    0.028998
    80  H   -0.010232
    81  H   -0.007365
    82  H   -0.003815
    83  H    0.036396
    84  H    0.037306
    85  H    0.020917
    86  H   -0.041978
    87  H    0.014620
    88  H   -0.000630
    89  H   -0.002812
    90  H    0.014223
    91  H    0.044690
    92  H   -0.050417
    93  H    0.038612
    94  H    0.087292
    95  H   -0.057047
    96  H    0.062686
    97  H    0.044705
    98  H    0.017893
    99  H    0.020913
   100  H   -0.084837
   101  H   -0.095184
   102  H    0.031513
   103  H   -0.035171
   104  H    0.005027
   105  H    0.007127
   106  H    0.030525
   107  H    0.012924
   108  H   -0.015115
   109  H    0.007064
   110  H   -0.019081
   111  H    0.023290
   112  H    0.014355
   113  H    0.003830
   114  H   -0.020650
   115  H   -0.010405
   116  H   -0.003356
   117  H   -0.022260
   118  H    0.012980
   119  H    0.009599
   120  H   -0.029592
   121  H    0.009244
   122  H   -0.006473
   123  H    0.027007
   124  H   -0.002244
   125  H   -0.021105
   126  H    0.014545
   127  H   -0.000436
   128  H   -0.034118
   129  H   -0.003046
   130  H    0.008004
   131  H   -0.010034
   132  H   -0.009256
   133  H    0.020134
   134  H    0.010588
   135  H    0.007953
   136  H    0.002547
   137  H    0.172042
   138  H    0.093528
 Sum of Mulliken charges =   0.00000

 Dipole moment (field-independent basis, Debye):
    X=              4.7186    Y=              3.1332    Z=              0.6607  Tot=              5.7025
 Quadrupole moment (field-independent basis, Debye-Ang):
   XX=           -366.9126   YY=           -377.3562   ZZ=           -394.0377
   XY=            -12.9282   XZ=              4.0787   YZ=             -0.4688

 Normal termination of Gaussian 09 at Thu Aug  1 05:50:15 2019.
