 Gaussian 09, Revision D.01,
 Gaussian 09:  ES64L-G09RevD.01 24-Apr-2013

 --------------------------
 # td=(NStates=1) B3LYP/SVP
 --------------------------

 --
 TD
 --
 Symbolic Z-matrix:
 Charge =  0 Multiplicity = 1

                         Standard orientation:
 ---------------------------------------------------------------------
 Center     Atomic      Atomic             Coordinates (Angstroms)
 Number     Number       Type             X           Y           Z
 ---------------------------------------------------------------------
      1          6           0       -5.031941   -1.892045    0.544650
      2          6           0       -4.803734    2.857806    1.527200
      3          6           0       -9.299275    3.244116   -0.277334
      4          6           0       -9.774570   -1.507508   -0.896354
      5          7           0       -5.254168    0.527088    1.071551
      6          6           0       -4.507026   -0.662533    0.916971
      7          6           0       -3.023562   -0.540693    1.396028
      8          6           0       -3.071051    0.979597    1.815401
      9          6           0       -4.412255    1.524532    1.449431
     10          6           0       -2.979441    0.958331    3.389917
     11          6           0       -2.061754   -0.717196    0.295215
     12          6           0       -0.542496   -0.722461    0.601633
     13          6           0        0.328013   -0.957821   -0.603051
     14          8           0        0.039856   -1.269495   -1.731353
     15          8           0        1.624187   -0.826311   -0.176208
     16          7           0       -7.080264    2.752953    0.470207
     17          6           0       -6.026512    3.441260    1.099840
     18          6           0       -6.388328    4.852275    1.124641
     19          6           0       -7.661448    4.932933    0.438803
     20          6           0       -8.117230    3.664251    0.225043
     21          6           0       -5.553764    5.856511    1.554142
     22          6           0       -8.264320    6.232905    0.177232
     23          6           0       -9.064984    6.546322   -0.717658
     24          7           0       -9.158822    0.802961   -0.550680
     25          6           0       -9.848251    1.949073   -0.592265
     26          6           0      -11.314162    1.803351   -1.104632
     27          6           0      -11.430402    0.436715   -1.221169
     28          6           0      -10.116387   -0.155964   -0.892392
     29          6           0      -12.319903    2.754977   -1.307211
     30          6           0      -12.555149   -0.376936   -1.730684
     31          6           0      -12.615969   -0.530431   -3.261684
     32          7           0       -7.501731   -1.222325   -0.091974
     33          6           0       -8.559216   -2.040163   -0.612420
     34          6           0       -8.083583   -3.456926   -0.513694
     35          6           0       -6.714424   -3.410589   -0.192551
     36          6           0       -6.378544   -2.050641    0.077925
     37          6           0       -8.805040   -4.653446   -1.088985
     38          6           0       -5.547564   -4.253135    0.096931
     39          8           0       -5.453605   -5.467466   -0.018652
     40          6           0       -4.453442   -3.296089    0.468537
     41          6           0       -3.796519   -3.829454    1.684817
     42          8           0       -4.166190   -3.514877    2.908545
     43          8           0       -2.885781   -4.726278    1.583558
     44          6           0       -2.274318   -5.359596    2.815096
     45          6           0        2.647485   -1.024426   -1.240100
     46          6           0        3.917232   -0.704482   -0.490121
     47          6           0        4.931760    0.037502   -1.062596
     48          6           0        4.903450    0.601835   -2.368570
     49          6           0        6.311318    0.275309   -0.341987
     50          6           0        7.424742   -0.473118   -0.968895
     51          6           0        8.766443   -0.398229   -0.107372
     52          6           0       10.082044   -0.782897   -0.808014
     53          6           0       10.059328   -2.229109   -1.136063
     54          6           0       11.247888   -0.325566   -0.008054
     55          6           0       12.649844   -0.426085   -0.601882
     56          6           0       13.830100   -0.160915    0.270327
     57          6           0       15.184053   -0.112992   -0.555515
     58          6           0       15.575119   -1.569209   -1.250573
     59          6           0       16.326699    0.397592    0.494870
     60          6           0       17.636337    0.868726   -0.214160
     61          6           0       18.608370    1.327362    0.774867
     62          6           0       19.965500    1.639982    0.194522
     63          6           0       19.864289    2.779254   -1.015414
     64          6           0       20.845478    2.307787    1.214368
     65          1           0       -4.169053    3.620507    2.123051
     66          1           0      -10.060711    3.902717   -0.439875
     67          1           0      -10.639304   -2.173675   -1.055983
     68          1           0       -2.806255   -1.229711    2.054495
     69          1           0       -2.331145    1.586234    1.275296
     70          1           0       -1.843748    0.688585    3.828122
     71          1           0       -3.015872    1.907072    3.652010
     72          1           0       -3.837148    0.299560    3.671421
     73          1           0       -2.494858   -1.714650   -0.247064
     74          1           0       -2.322059    0.089437   -0.548248
     75          1           0       -0.102009    0.303024    0.962049
     76          1           0       -0.350386   -1.402393    1.627751
     77          1           0       -4.589129    6.037745    1.067661
     78          1           0       -5.904204    7.039771    1.565211
     79          1           0       -5.055926    5.576267    2.472021
     80          1           0       -7.819628    7.047318    0.856622
     81          1           0       -9.444087    5.787800   -1.318038
     82          1           0       -9.476512    7.530478   -0.800422
     83          1           0      -12.230004    3.545555   -0.495159
     84          1           0      -12.246816    3.426295   -2.314129
     85          1           0      -13.283312    2.261368   -1.231355
     86          1           0      -12.464372   -1.435860   -1.178063
     87          1           0      -13.443758    0.295213   -1.566462
     88          1           0      -12.294579    0.354407   -3.559577
     89          1           0      -11.833629   -1.187918   -3.765056
     90          1           0      -13.557297   -0.738625   -3.587235
     91          1           0      -10.057813   -4.686989   -0.850896
     92          1           0       -8.810723   -4.607968   -2.371032
     93          1           0       -8.358597   -5.782557   -0.595357
     94          1           0       -3.713738   -3.373326   -0.408182
     95          1           0       -1.866386   -6.376509    2.416749
     96          1           0       -1.473445   -4.548684    3.129119
     97          1           0       -3.333526   -5.284697    3.587210
     98          1           0        2.697576   -2.145891   -1.484927
     99          1           0        2.382155   -0.318478   -2.194314
    100          1           0        4.203317   -1.104553    0.545413
    101          1           0        5.479251    1.601360   -2.464736
    102          1           0        5.395531    0.387723   -3.465655
    103          1           0        3.856687    0.635750   -3.052293
    104          1           0        6.518363    1.446485   -0.445504
    105          1           0        6.025442   -0.070270    0.810982
    106          1           0        7.419095   -1.573365   -1.067995
    107          1           0        7.759686   -0.069154   -1.871274
    108          1           0        8.770063    0.686453    0.124626
    109          1           0        8.729903   -0.976581    0.857579
    110          1           0       10.175454   -0.340256   -1.937467
    111          1           0        9.170817   -2.524327   -1.436115
    112          1           0       10.915585   -2.701855   -1.794004
    113          1           0       10.038875   -2.666294   -0.037698
    114          1           0       11.191521    0.679220    0.534516
    115          1           0       11.390170   -1.146225    0.834592
    116          1           0       12.707710   -1.740846   -0.745746
    117          1           0       12.715633   -0.102253   -1.655363
    118          1           0       13.617399    0.869205    0.987778
    119          1           0       14.027185   -0.960727    1.082107
    120          1           0       14.880051    0.769761   -1.355108
    121          1           0       14.909619   -1.893182   -1.974862
    122          1           0       16.638579   -1.636982   -1.544256
    123          1           0       15.496077   -2.299447   -0.462134
    124          1           0       15.809921    1.419488    1.026796
    125          1           0       16.454120   -0.517804    1.364419
    126          1           0       18.148137   -0.148861   -1.032732
    127          1           0       17.172372    1.809087   -1.296818
    128          1           0       18.160292    2.579765    1.262279
    129          1           0       18.646747    0.828084    1.722143
    130          1           0       20.432469    0.653882   -0.198372
    131          1           0       19.396023    3.820395   -0.668227
    132          1           0       20.943286    3.144814   -1.619948
    133          1           0       19.478096    2.338246   -1.835811
    134          1           0       21.061288    1.732744    2.240456
    135          1           0       21.888222    2.586078    0.742217
    136          1           0       20.468073    3.315831    1.465513
    137          1           0       -7.099014    1.607644    0.553413
    138          1           0       -7.398158   -0.217670   -0.093029
 ---------------------------------------------------------------------

 SCF Done:  E(RB3LYP) =  -2732.80563579     A.U. after   17 cycles

 Excitation energies and oscillator strengths:

 Excited State   1:      Singlet-A      2.0231 eV  612.84 nm  f=0.1723  <S**2>=0.000
     235 -> 238       -0.30415
     236 -> 237        0.62788
 This state for optimization and/or second-order correction.
 Total Energy, E(TD-HF/TD-KS) =  -2732.73128839
 Copying the excited state density for this state as the 1-particle RhoCI density.

 The electronic state is 1-A.
 Alpha  occ. eigenvalues --  -19.18346 -19.16989 -19.12878 -19.12243 -19.10182
 Alpha  occ. eigenvalues --  -14.37045 -14.36623 -14.33010 -14.30493 -10.31644
 Alpha  occ. eigenvalues --  -10.31623 -10.28039 -10.27884 -10.26568 -10.24211
 Alpha  occ. eigenvalues --  -10.24038 -10.23971 -10.23888 -10.23681 -10.23575
 Alpha  occ. eigenvalues --  -10.23152 -10.22978 -10.22833 -10.22604 -10.22565
 Alpha  occ. eigenvalues --  -10.22145 -10.22127 -10.21841 -10.21654 -10.21513
 Alpha  occ. eigenvalues --  -10.21290 -10.20955 -10.20852 -10.20832 -10.20831
 Alpha  occ. eigenvalues --  -10.20684 -10.20659 -10.20427 -10.20405 -10.20340
 Alpha  occ. eigenvalues --  -10.20287 -10.20214 -10.20137 -10.20074 -10.20022
 Alpha  occ. eigenvalues --  -10.19985 -10.19951 -10.19861 -10.19861 -10.19396
 Alpha  occ. eigenvalues --  -10.19295 -10.19115 -10.19079 -10.19033 -10.19014
 Alpha  occ. eigenvalues --  -10.18892 -10.18863 -10.18849 -10.18664 -10.18556
 Alpha  occ. eigenvalues --  -10.18210 -10.18150 -10.17360 -10.16932  -1.09597
 Alpha  occ. eigenvalues --   -1.08382  -1.02435  -1.00124  -0.96499  -0.96176
 Alpha  occ. eigenvalues --   -0.94525  -0.93416  -0.92856  -0.85653  -0.83026
 Alpha  occ. eigenvalues --   -0.82644  -0.81854  -0.81630  -0.81212  -0.80942
 Alpha  occ. eigenvalues --   -0.80918  -0.79726  -0.79148  -0.78752  -0.77824
 Alpha  occ. eigenvalues --   -0.77282  -0.76682  -0.76161  -0.75590  -0.74408
 Alpha  occ. eigenvalues --   -0.73758  -0.73383  -0.72335  -0.71734  -0.71246
 Alpha  occ. eigenvalues --   -0.70073  -0.69661  -0.68852  -0.67625  -0.67096
 Alpha  occ. eigenvalues --   -0.66990  -0.65957  -0.65810  -0.65363  -0.64577
 Alpha  occ. eigenvalues --   -0.63889  -0.62484  -0.62314  -0.61758  -0.61341
 Alpha  occ. eigenvalues --   -0.60362  -0.58494  -0.58086  -0.57615  -0.56931
 Alpha  occ. eigenvalues --   -0.56032  -0.55433  -0.55091  -0.54684  -0.54572
 Alpha  occ. eigenvalues --   -0.53842  -0.53477  -0.53220  -0.53113  -0.52696
 Alpha  occ. eigenvalues --   -0.52214  -0.51893  -0.51574  -0.51192  -0.50270
 Alpha  occ. eigenvalues --   -0.49409  -0.49147  -0.48923  -0.48775  -0.48446
 Alpha  occ. eigenvalues --   -0.48053  -0.47689  -0.47243  -0.47199  -0.46902
 Alpha  occ. eigenvalues --   -0.46491  -0.46277  -0.46126  -0.45962  -0.45779
 Alpha  occ. eigenvalues --   -0.45516  -0.45287  -0.44980  -0.44661  -0.44399
 Alpha  occ. eigenvalues --   -0.44186  -0.44080  -0.43855  -0.43649  -0.43586
 Alpha  occ. eigenvalues --   -0.43420  -0.43140  -0.42895  -0.42714  -0.42530
 Alpha  occ. eigenvalues --   -0.42151  -0.41876  -0.41680  -0.41578  -0.41386
 Alpha  occ. eigenvalues --   -0.41294  -0.41156  -0.40467  -0.40140  -0.40042
 Alpha  occ. eigenvalues --   -0.39736  -0.39365  -0.39206  -0.39049  -0.38990
 Alpha  occ. eigenvalues --   -0.38807  -0.38622  -0.38480  -0.38396  -0.38353
 Alpha  occ. eigenvalues --   -0.38123  -0.37944  -0.37779  -0.37568  -0.37366
 Alpha  occ. eigenvalues --   -0.37277  -0.37068  -0.37013  -0.36875  -0.36580
 Alpha  occ. eigenvalues --   -0.36341  -0.36023  -0.35847  -0.35728  -0.35433
 Alpha  occ. eigenvalues --   -0.34946  -0.34792  -0.34686  -0.34321  -0.34117
 Alpha  occ. eigenvalues --   -0.34081  -0.34037  -0.33757  -0.33514  -0.33447
 Alpha  occ. eigenvalues --   -0.33005  -0.32903  -0.32781  -0.32686  -0.32512
 Alpha  occ. eigenvalues --   -0.32341  -0.31833  -0.31511  -0.31356  -0.30990
 Alpha  occ. eigenvalues --   -0.30611  -0.30482  -0.29765  -0.29673  -0.29143
 Alpha  occ. eigenvalues --   -0.28917  -0.28265  -0.28138  -0.28036  -0.27556
 Alpha  occ. eigenvalues --   -0.27178  -0.27167  -0.26483  -0.25952  -0.25557
 Alpha  occ. eigenvalues --   -0.25303  -0.23894  -0.23677  -0.22918  -0.19982
 Alpha  occ. eigenvalues --   -0.19024
 Alpha virt. eigenvalues --   -0.10468  -0.07914  -0.04882  -0.01616  -0.01501
 Alpha virt. eigenvalues --   -0.00884  -0.00439  -0.00169   0.00507   0.01495
 Alpha virt. eigenvalues --    0.01833   0.02938   0.03110   0.03323   0.03418

 Mulliken charges:
               1
     1  C    0.047893
     2  C   -0.088017
     3  C   -0.056331
     4  C   -0.081478
     5  N   -0.227249
     6  C   -0.078805
     7  C    0.082252
     8  C   -0.010003
     9  C    0.022907
    10  C    0.086658
    11  C   -0.039658
    12  C   -0.037235
    13  C    0.210818
    14  O   -0.217731
    15  O   -0.351075
    16  N   -0.184665
    17  C    0.081019
    18  C   -0.049350
    19  C    0.046592
    20  C    0.196242
    21  C    0.019928
    22  C   -0.044221
    23  C    0.030072
    24  N   -0.221301
    25  C   -0.004213
    26  C   -0.101980
    27  C   -0.084375
    28  C    0.050683
    29  C    0.034490
    30  C    0.012172
    31  C    0.113280
    32  N   -0.091994
    33  C    0.138842
    34  C   -0.084519
    35  C    0.018002
    36  C    0.058985
    37  C   -0.116441
    38  C    0.046621
    39  O   -0.174684
    40  C    0.031151
    41  C    0.193032
    42  O   -0.359242
    43  O   -0.261806
    44  C    0.061971
    45  C    0.223275
    46  C   -0.082792
    47  C   -0.042681
    48  C   -0.094776
    49  C   -0.002473
    50  C    0.089287
    51  C   -0.029466
    52  C   -0.083866
    53  C    0.073544
    54  C    0.035433
    55  C   -0.043727
    56  C   -0.017104
    57  C   -0.118176
    58  C    0.070377
    59  C   -0.054317
    60  C   -0.098627
    61  C    0.021430
    62  C   -0.079876
    63  C   -0.030210
    64  C    0.006460
    65  H   -0.008353
    66  H   -0.094825
    67  H   -0.025183
    68  H   -0.054424
    69  H   -0.003928
    70  H    0.024407
    71  H   -0.040681
    72  H    0.056589
    73  H    0.025036
    74  H    0.019115
    75  H    0.053403
    76  H    0.066854
    77  H    0.014181
    78  H    0.042784
    79  H    0.009822
    80  H   -0.003106
    81  H   -0.007609
    82  H    0.009242
    83  H    0.029678
    84  H    0.043001
    85  H    0.014050
    86  H    0.032664
    87  H   -0.005276
    88  H   -0.038002
    89  H    0.008420
    90  H   -0.002064
    91  H    0.046028
    92  H    0.075261
    93  H    0.089480
    94  H    0.083512
    95  H    0.082026
    96  H    0.068137
    97  H    0.122260
    98  H    0.048634
    99  H    0.075746
   100  H    0.013239
   101  H    0.014421
   102  H    0.039555
   103  H    0.021175
   104  H    0.032707
   105  H    0.023770
   106  H    0.008093
   107  H   -0.019049
   108  H   -0.010002
   109  H    0.005722
   110  H   -0.004747
   111  H   -0.046322
   112  H    0.043876
   113  H   -0.016850
   114  H    0.006364
   115  H   -0.000621
   116  H    0.002160
   117  H    0.005861
   118  H    0.010017
   119  H    0.008440
   120  H    0.019452
   121  H    0.006996
   122  H    0.014007
   123  H   -0.008362
   124  H    0.036997
   125  H    0.034862
   126  H    0.026575
   127  H    0.034957
   128  H   -0.000336
   129  H    0.012568
   130  H    0.020839
   131  H    0.044389
   132  H    0.010228
   133  H   -0.004132
   134  H    0.017748
   135  H    0.013629
   136  H    0.003675
   137  H    0.219255
   138  H    0.143013
 Sum of Mulliken charges =   0.00000

 Dipole moment (field-independent basis, Debye):
    X=              2.1894    Y=              4.0946    Z=             -0.4780  Tot=              4.6677
 Quadrupole moment (field-independent basis, Debye-Ang):
   XX=           -363.0895   YY=           -383.6423   ZZ=           -398.5398
   XY=            -38.0608   XZ=             14.8707   YZ=              0.5275

 Normal termination of Gaussian 09 at Tue Jul 30 03:24:02 2019.
