 Gaussian 09, Revision D.01,
 Gaussian 09:  ES64L-G09RevD.01 24-Apr-2013

 --------------------------
 # td=(NStates=1) B3LYP/SVP
 --------------------------

 --
 TD
 --
 Symbolic Z-matrix:
 Charge =  0 Multiplicity = 1

                         Standard orientation:
 ---------------------------------------------------------------------
 Center     Atomic      Atomic             Coordinates (Angstroms)
 Number     Number       Type             X           Y           Z
 ---------------------------------------------------------------------
      1          6           0       -5.158015   -1.903381    0.449596
      2          6           0       -4.684994    2.635044    1.431056
      3          6           0       -9.190227    3.492581   -0.221845
      4          6           0       -9.855082   -1.310066   -0.940498
      5          7           0       -5.207017    0.373093    0.838131
      6          6           0       -4.556216   -0.813232    0.894042
      7          6           0       -2.987484   -0.762354    1.240042
      8          6           0       -2.979800    0.675630    1.809049
      9          6           0       -4.345090    1.311262    1.321308
     10          6           0       -2.884477    0.749567    3.331662
     11          6           0       -2.111668   -1.018249   -0.036064
     12          6           0       -0.613232   -0.875306    0.456793
     13          6           0        0.457997   -1.120013   -0.645774
     14          8           0        0.096743   -1.495479   -1.780616
     15          8           0        1.631019   -0.966385   -0.275255
     16          7           0       -6.946424    2.764627    0.478030
     17          6           0       -5.804553    3.313859    1.024538
     18          6           0       -6.059319    4.783723    1.136464
     19          6           0       -7.344738    4.934131    0.575653
     20          6           0       -7.903862    3.742685    0.192285
     21          6           0       -5.079430    5.754071    1.596042
     22          6           0       -7.969902    6.364257    0.528319
     23          6           0       -8.758774    6.811545   -0.429308
     24          7           0       -9.206393    1.037468   -0.480204
     25          6           0       -9.757219    2.290182   -0.487653
     26          6           0      -11.121298    2.090242   -1.101918
     27          6           0      -11.232012    0.703238   -1.204783
     28          6           0      -10.033953    0.089454   -0.864154
     29          6           0      -12.121829    3.172009   -1.006820
     30          6           0      -12.540709    0.024538   -1.734907
     31          6           0      -12.487376   -0.163327   -3.306729
     32          7           0       -7.548463   -1.208360   -0.212118
     33          6           0       -8.675322   -1.897488   -0.607844
     34          6           0       -8.281810   -3.345376   -0.543837
     35          6           0       -6.991254   -3.294912   -0.198676
     36          6           0       -6.436896   -2.037755    0.067391
     37          6           0       -9.179460   -4.451694   -0.870744
     38          6           0       -5.924854   -4.294759    0.029718
     39          8           0       -5.966486   -5.480254   -0.155840
     40          6           0       -4.576186   -3.320654    0.466721
     41          6           0       -4.165729   -3.910212    1.808347
     42          8           0       -4.382323   -3.378337    2.808926
     43          8           0       -3.386868   -4.976066    1.566786
     44          6           0       -2.888817   -5.588417    2.745052
     45          6           0        2.718090   -1.340043   -1.280803
     46          6           0        4.027457   -0.915560   -0.623428
     47          6           0        5.003221   -0.090390   -1.206586
     48          6           0        4.883105    0.344640   -2.619944
     49          6           0        6.331337    0.097582   -0.463000
     50          6           0        7.496585   -0.418660   -1.093029
     51          6           0        8.765511   -0.307640   -0.147637
     52          6           0       10.050355   -0.738429   -0.731872
     53          6           0       10.147504   -2.239433   -1.154112
     54          6           0       11.298717   -0.376910    0.098828
     55          6           0       12.635143   -0.513003   -0.592489
     56          6           0       13.777681   -0.006195    0.239993
     57          6           0       15.206162   -0.191787   -0.347271
     58          6           0       15.634063   -1.602590   -0.514063
     59          6           0       16.262529    0.680255    0.523559
     60          6           0       17.608230    0.691857   -0.126475
     61          6           0       18.564319    1.681174    0.761589
     62          6           0       19.931540    1.806604    0.179127
     63          6           0       20.118839    2.417985   -1.301336
     64          6           0       20.803551    2.541950    1.230090
     65          1           0       -4.021683    3.120132    1.861792
     66          1           0       -9.691479    4.502614   -0.478867
     67          1           0      -10.756481   -1.929469   -1.195321
     68          1           0       -2.532026   -1.262890    2.006754
     69          1           0       -1.939071    1.106772    1.297089
     70          1           0       -1.697740    0.539187    3.573658
     71          1           0       -2.989933    1.689984    3.549871
     72          1           0       -3.503101    0.038168    4.008563
     73          1           0       -2.426406   -2.036276   -0.730189
     74          1           0       -2.329070   -0.272381   -0.859716
     75          1           0       -0.489699    0.217576    0.881635
     76          1           0       -0.513599   -1.482126    1.287513
     77          1           0       -3.989428    5.657835    1.157543
     78          1           0       -5.307258    6.847603    1.478648
     79          1           0       -4.967545    5.693550    2.774154
     80          1           0       -7.663951    7.009401    1.320292
     81          1           0       -9.126518    6.003483   -1.166605
     82          1           0       -9.144050    7.931360   -0.352110
     83          1           0      -12.277776    3.536984   -0.051925
     84          1           0      -11.725520    4.027601   -1.771609
     85          1           0      -13.037182    2.841712   -1.433299
     86          1           0      -12.724865   -1.056079   -1.343006
     87          1           0      -13.383850    0.703483   -1.497257
     88          1           0      -12.569090    0.732740   -3.912507
     89          1           0      -11.448615   -0.608129   -3.374538
     90          1           0      -13.349000   -0.826829   -3.726963
     91          1           0       -9.850380   -4.661401   -0.135918
     92          1           0       -9.851487   -4.268622   -1.854462
     93          1           0       -8.365605   -5.349883   -0.817058
     94          1           0       -3.684000   -3.568804   -0.388564
     95          1           0       -2.355495   -6.622128    2.719697
     96          1           0       -2.181657   -4.881661    3.343042
     97          1           0       -3.867626   -5.716196    3.643730
     98          1           0        2.509057   -2.422681   -1.356807
     99          1           0        2.478853   -0.904370   -2.271551
    100          1           0        4.426477   -1.405581    0.511798
    101          1           0        5.050717    1.496288   -2.683102
    102          1           0        5.586833    0.070512   -3.271903
    103          1           0        3.917202    0.007349   -3.218449
    104          1           0        6.513709    1.171481   -0.613934
    105          1           0        6.172102   -0.271161    0.687020
    106          1           0        7.374139   -1.577045   -1.108993
    107          1           0        7.733226    0.062113   -2.101185
    108          1           0        8.651106    0.719083    0.305122
    109          1           0        8.500906   -0.738192    0.864835
    110          1           0       10.060932   -0.154986   -1.741969
    111          1           0        9.316021   -2.538291   -1.852955
    112          1           0       11.036601   -2.598279   -1.675308
    113          1           0        9.877367   -2.757330   -0.412978
    114          1           0       11.203463    0.629808    0.619480
    115          1           0       11.188740   -1.218575    0.966779
    116          1           0       12.762823   -1.663655   -0.874079
    117          1           0       12.638392    0.163358   -1.457326
    118          1           0       13.729314    1.014543    0.749419
    119          1           0       13.758845   -0.580168    1.302582
    120          1           0       15.111975    0.305188   -1.500784
    121          1           0       14.869295   -2.377885   -0.963930
    122          1           0       16.632148   -1.683849   -0.977386
    123          1           0       15.636677   -2.140702    0.511376
    124          1           0       15.667654    1.769482    0.773387
    125          1           0       16.278063    0.223752    1.607177
    126          1           0       18.148072   -0.444230   -0.142888
    127          1           0       17.659437    1.143876   -0.971102
    128          1           0       18.049267    2.838824    0.724720
    129          1           0       18.494624    1.188851    1.765245
    130          1           0       20.328683    0.789311   -0.094417
    131          1           0       19.849656    3.525899   -1.152877
    132          1           0       21.103688    2.410691   -1.650332
    133          1           0       19.471356    1.829321   -1.902762
    134          1           0       20.559521    2.221754    2.254748
    135          1           0       21.867027    2.536447    1.031203
    136          1           0       20.357610    3.552343    1.273699
    137          1           0       -7.026092    1.780910    0.332363
    138          1           0       -7.485020   -0.140520   -0.178890
 ---------------------------------------------------------------------

 SCF Done:  E(RB3LYP) =  -2732.98676795     A.U. after   17 cycles

 Excitation energies and oscillator strengths:

 Excited State   1:      Singlet-A      2.1561 eV  575.04 nm  f=0.1622  <S**2>=0.000
     235 -> 237       -0.17353
     235 -> 238       -0.29341
     236 -> 237        0.59986
     236 -> 238       -0.13631
 This state for optimization and/or second-order correction.
 Total Energy, E(TD-HF/TD-KS) =  -2732.90753287
 Copying the excited state density for this state as the 1-particle RhoCI density.

 The electronic state is 1-A.
 Alpha  occ. eigenvalues --  -19.18659 -19.18568 -19.13532 -19.12832 -19.10086
 Alpha  occ. eigenvalues --  -14.36403 -14.36182 -14.32528 -14.28571 -10.31209
 Alpha  occ. eigenvalues --  -10.30635 -10.28366 -10.27082 -10.26859 -10.23543
 Alpha  occ. eigenvalues --  -10.23166 -10.22924 -10.22653 -10.22613 -10.22552
 Alpha  occ. eigenvalues --  -10.22217 -10.22119 -10.22046 -10.21425 -10.21286
 Alpha  occ. eigenvalues --  -10.21123 -10.20909 -10.20804 -10.20712 -10.20565
 Alpha  occ. eigenvalues --  -10.20558 -10.20503 -10.20440 -10.20414 -10.20285
 Alpha  occ. eigenvalues --  -10.20258 -10.20188 -10.20150 -10.20092 -10.20088
 Alpha  occ. eigenvalues --  -10.20086 -10.20029 -10.19981 -10.19933 -10.19836
 Alpha  occ. eigenvalues --  -10.19654 -10.19574 -10.19409 -10.19373 -10.19287
 Alpha  occ. eigenvalues --  -10.19221 -10.19148 -10.19142 -10.18894 -10.18841
 Alpha  occ. eigenvalues --  -10.18446 -10.18345 -10.18260 -10.18109 -10.17558
 Alpha  occ. eigenvalues --  -10.17503 -10.17205 -10.17187 -10.17096  -1.11730
 Alpha  occ. eigenvalues --   -1.11362  -1.04076  -1.03589  -0.97716  -0.97351
 Alpha  occ. eigenvalues --   -0.97068  -0.94142  -0.93378  -0.84879  -0.83886
 Alpha  occ. eigenvalues --   -0.81883  -0.81630  -0.80980  -0.80900  -0.80654
 Alpha  occ. eigenvalues --   -0.80372  -0.79531  -0.79361  -0.78140  -0.77550
 Alpha  occ. eigenvalues --   -0.76667  -0.76057  -0.75768  -0.75180  -0.74393
 Alpha  occ. eigenvalues --   -0.73667  -0.73469  -0.72546  -0.72460  -0.71123
 Alpha  occ. eigenvalues --   -0.69898  -0.69298  -0.68354  -0.68109  -0.67919
 Alpha  occ. eigenvalues --   -0.67325  -0.66508  -0.66172  -0.65801  -0.65310
 Alpha  occ. eigenvalues --   -0.64120  -0.62007  -0.61236  -0.61054  -0.60521
 Alpha  occ. eigenvalues --   -0.59650  -0.59072  -0.58671  -0.57946  -0.57045
 Alpha  occ. eigenvalues --   -0.56667  -0.56157  -0.56007  -0.55763  -0.55225
 Alpha  occ. eigenvalues --   -0.54958  -0.54664  -0.53935  -0.53473  -0.53135
 Alpha  occ. eigenvalues --   -0.52392  -0.52239  -0.51498  -0.50881  -0.50601
 Alpha  occ. eigenvalues --   -0.49792  -0.49317  -0.49204  -0.48530  -0.48277
 Alpha  occ. eigenvalues --   -0.47903  -0.47746  -0.47551  -0.46969  -0.46957
 Alpha  occ. eigenvalues --   -0.46606  -0.46450  -0.46057  -0.45577  -0.45471
 Alpha  occ. eigenvalues --   -0.45394  -0.45088  -0.44906  -0.44834  -0.44456
 Alpha  occ. eigenvalues --   -0.44342  -0.44058  -0.43905  -0.43813  -0.43671
 Alpha  occ. eigenvalues --   -0.43618  -0.43424  -0.43331  -0.42554  -0.42507
 Alpha  occ. eigenvalues --   -0.42317  -0.42070  -0.41894  -0.41803  -0.41635
 Alpha  occ. eigenvalues --   -0.41464  -0.41146  -0.40879  -0.40535  -0.40055
 Alpha  occ. eigenvalues --   -0.40045  -0.39853  -0.39752  -0.39623  -0.39459
 Alpha  occ. eigenvalues --   -0.39380  -0.39177  -0.38931  -0.38873  -0.38495
 Alpha  occ. eigenvalues --   -0.38393  -0.38089  -0.37964  -0.37690  -0.37672
 Alpha  occ. eigenvalues --   -0.37538  -0.37256  -0.36906  -0.36516  -0.36390
 Alpha  occ. eigenvalues --   -0.36253  -0.36187  -0.36077  -0.35902  -0.35601
 Alpha  occ. eigenvalues --   -0.35594  -0.35485  -0.35262  -0.35086  -0.34802
 Alpha  occ. eigenvalues --   -0.34698  -0.34590  -0.34527  -0.34212  -0.33807
 Alpha  occ. eigenvalues --   -0.33669  -0.33181  -0.33130  -0.32991  -0.32485
 Alpha  occ. eigenvalues --   -0.32428  -0.31852  -0.31800  -0.31213  -0.30493
 Alpha  occ. eigenvalues --   -0.30246  -0.30075  -0.30027  -0.29792  -0.29614
 Alpha  occ. eigenvalues --   -0.29390  -0.29145  -0.28840  -0.28095  -0.27902
 Alpha  occ. eigenvalues --   -0.27896  -0.27180  -0.26414  -0.26073  -0.25016
 Alpha  occ. eigenvalues --   -0.24489  -0.24031  -0.23707  -0.21440  -0.20143
 Alpha  occ. eigenvalues --   -0.18877
 Alpha virt. eigenvalues --   -0.09863  -0.07669  -0.04103  -0.02336  -0.01213
 Alpha virt. eigenvalues --    0.00131   0.00699   0.01701   0.02755   0.03026
 Alpha virt. eigenvalues --    0.03657   0.03895   0.04045   0.04144   0.04202

 Mulliken charges:
               1
     1  C    0.061768
     2  C    0.054050
     3  C   -0.088153
     4  C   -0.140030
     5  N   -0.186903
     6  C   -0.069604
     7  C    0.055882
     8  C   -0.142863
     9  C    0.005360
    10  C    0.110556
    11  C   -0.012279
    12  C    0.005195
    13  C    0.164391
    14  O   -0.306235
    15  O   -0.238770
    16  N   -0.068104
    17  C    0.125740
    18  C   -0.089500
    19  C    0.004963
    20  C    0.079284
    21  C    0.010236
    22  C   -0.012904
    23  C   -0.059311
    24  N   -0.207954
    25  C    0.072635
    26  C   -0.159867
    27  C   -0.109609
    28  C    0.069208
    29  C    0.122295
    30  C    0.043806
    31  C   -0.028919
    32  N   -0.128870
    33  C    0.123727
    34  C   -0.130515
    35  C    0.015719
    36  C    0.157826
    37  C    0.064094
    38  C    0.070984
    39  O   -0.145313
    40  C   -0.202974
    41  C    0.212444
    42  O   -0.155392
    43  O   -0.272225
    44  C    0.074325
    45  C    0.255861
    46  C   -0.121916
    47  C   -0.109649
    48  C    0.056653
    49  C    0.064897
    50  C   -0.016337
    51  C   -0.009103
    52  C   -0.018496
    53  C    0.105453
    54  C   -0.029955
    55  C    0.086009
    56  C   -0.028975
    57  C   -0.085964
    58  C    0.006198
    59  C   -0.052895
    60  C    0.084935
    61  C   -0.059439
    62  C   -0.118074
    63  C    0.040829
    64  C    0.082662
    65  H   -0.164616
    66  H   -0.004491
    67  H   -0.005748
    68  H   -0.040308
    69  H    0.027841
    70  H    0.008860
    71  H   -0.038118
    72  H    0.058491
    73  H    0.054649
    74  H    0.015852
    75  H    0.038656
    76  H    0.005744
    77  H    0.049143
    78  H    0.020445
    79  H    0.034561
    80  H   -0.007595
    81  H    0.049149
    82  H    0.048837
    83  H    0.019212
    84  H    0.023032
    85  H   -0.009356
    86  H    0.014170
    87  H    0.001676
    88  H    0.011679
    89  H    0.021486
    90  H    0.019028
    91  H    0.004306
    92  H    0.052795
    93  H    0.066448
    94  H    0.098912
    95  H    0.065712
    96  H    0.036354
    97  H    0.042963
    98  H    0.033641
    99  H    0.047014
   100  H    0.039509
   101  H    0.019794
   102  H   -0.004610
   103  H    0.030120
   104  H   -0.008667
   105  H    0.033019
   106  H    0.007798
   107  H    0.023506
   108  H   -0.023418
   109  H   -0.024596
   110  H   -0.011209
   111  H   -0.007328
   112  H    0.022396
   113  H   -0.060653
   114  H    0.003814
   115  H    0.001794
   116  H    0.028859
   117  H   -0.004413
   118  H   -0.006750
   119  H   -0.020751
   120  H    0.002992
   121  H    0.017086
   122  H    0.023838
   123  H   -0.002241
   124  H    0.022381
   125  H    0.010565
   126  H    0.038383
   127  H   -0.055105
   128  H    0.017081
   129  H    0.016223
   130  H   -0.011555
   131  H    0.008040
   132  H    0.001835
   133  H    0.011407
   134  H   -0.005874
   135  H    0.010467
   136  H   -0.011534
   137  H    0.118395
   138  H    0.168087
 Sum of Mulliken charges =   0.00000

 Dipole moment (field-independent basis, Debye):
    X=              5.8552    Y=              3.1224    Z=              1.2188  Tot=              6.7467
 Quadrupole moment (field-independent basis, Debye-Ang):
   XX=           -361.6853   YY=           -383.1277   ZZ=           -395.8499
   XY=            -22.5895   XZ=             -6.1809   YZ=             -1.8615

 Normal termination of Gaussian 09 at Fri Aug  2 22:25:10 2019.
