 Gaussian 09, Revision D.01,
 Gaussian 09:  ES64L-G09RevD.01 24-Apr-2013

 --------------------------
 # td=(NStates=1) B3LYP/SVP
 --------------------------

 --
 TD
 --
 Symbolic Z-matrix:
 Charge =  0 Multiplicity = 1

                         Standard orientation:
 ---------------------------------------------------------------------
 Center     Atomic      Atomic             Coordinates (Angstroms)
 Number     Number       Type             X           Y           Z
 ---------------------------------------------------------------------
      1          6           0       -5.150839   -1.873235    0.521475
      2          6           0       -4.860740    2.744246    1.461533
      3          6           0       -9.497476    3.161979   -0.318651
      4          6           0       -9.820703   -1.574554   -0.928136
      5          7           0       -5.231080    0.437896    0.809951
      6          6           0       -4.496386   -0.678133    0.845749
      7          6           0       -3.074963   -0.551821    1.376577
      8          6           0       -3.097745    1.008280    1.847234
      9          6           0       -4.412570    1.477368    1.305177
     10          6           0       -3.047794    1.225044    3.416240
     11          6           0       -2.094215   -0.681182    0.164066
     12          6           0       -0.674195   -0.581157    0.710923
     13          6           0        0.353542   -0.786294   -0.525196
     14          8           0       -0.007468   -0.887445   -1.738813
     15          8           0        1.626771   -0.834041    0.039383
     16          7           0       -7.149101    2.722428    0.451374
     17          6           0       -6.017614    3.328540    0.935804
     18          6           0       -6.329420    4.727803    0.978422
     19          6           0       -7.715537    4.938592    0.525322
     20          6           0       -8.218817    3.593789    0.187155
     21          6           0       -5.630997    5.903626    1.333322
     22          6           0       -8.319152    6.224754    0.303951
     23          6           0       -9.379072    6.539427   -0.599251
     24          7           0       -9.177872    0.793574   -0.562149
     25          6           0       -9.944170    1.903738   -0.603370
     26          6           0      -11.342911    1.696795   -1.034449
     27          6           0      -11.379696    0.306246   -1.191402
     28          6           0      -10.134421   -0.167389   -0.869470
     29          6           0      -12.271621    2.777740   -1.271121
     30          6           0      -12.527943   -0.608795   -1.771905
     31          6           0      -12.462748   -0.704280   -3.277145
     32          7           0       -7.565987   -1.312275   -0.147125
     33          6           0       -8.537200   -2.041742   -0.638910
     34          6           0       -8.139892   -3.471804   -0.556221
     35          6           0       -6.778071   -3.431631   -0.196100
     36          6           0       -6.476717   -2.035867    0.078808
     37          6           0       -8.850164   -4.660897   -0.884625
     38          6           0       -5.591458   -4.316871    0.125003
     39          8           0       -5.555047   -5.509995    0.033659
     40          6           0       -4.434098   -3.214368    0.451103
     41          6           0       -3.680769   -3.650687    1.769294
     42          8           0       -3.752432   -3.257182    2.965120
     43          8           0       -2.937138   -4.748741    1.419844
     44          6           0       -2.084093   -5.338320    2.405809
     45          6           0        2.631008   -0.973152   -1.116411
     46          6           0        4.007628   -0.694853   -0.371459
     47          6           0        4.957908    0.110129   -0.865772
     48          6           0        4.907726    0.696118   -2.343563
     49          6           0        6.266127    0.238144   -0.108620
     50          6           0        7.429371   -0.400548   -0.836172
     51          6           0        8.702056   -0.149695   -0.087273
     52          6           0       10.011975   -0.601223   -0.786545
     53          6           0        9.993018   -2.298534   -0.991008
     54          6           0       11.264730   -0.308353    0.054136
     55          6           0       12.578430   -0.476645   -0.650103
     56          6           0       13.814285   -0.041095    0.291793
     57          6           0       15.170420   -0.154964   -0.424904
     58          6           0       15.559261   -1.685218   -0.849472
     59          6           0       16.334273    0.479543    0.444472
     60          6           0       17.699982    0.657913   -0.324783
     61          6           0       18.718092    1.367006    0.631541
     62          6           0       20.140838    1.618305   -0.041812
     63          6           0       20.090149    2.584494   -1.289953
     64          6           0       21.075789    2.266729    1.049577
     65          1           0       -4.245774    3.346775    2.045823
     66          1           0       -9.960660    4.167736   -0.502205
     67          1           0      -10.664843   -2.137599   -1.083426
     68          1           0       -2.768244   -1.227387    2.303662
     69          1           0       -2.192447    1.448845    1.368399
     70          1           0       -1.962337    0.858146    3.673800
     71          1           0       -2.995664    2.206283    3.725809
     72          1           0       -3.895091    0.780705    4.017014
     73          1           0       -2.228295   -1.633050   -0.343583
     74          1           0       -2.318413   -0.014221   -0.622238
     75          1           0       -0.372855    0.390913    1.075606
     76          1           0       -0.380310   -1.288053    1.519954
     77          1           0       -4.952260    6.084239    0.471382
     78          1           0       -6.244106    6.823049    1.682008
     79          1           0       -4.802397    5.630840    2.099087
     80          1           0       -7.993524    7.159987    0.955021
     81          1           0       -9.899923    5.778147   -1.236771
     82          1           0       -9.756945    7.579621   -0.469428
     83          1           0      -12.372489    3.461932   -0.368881
     84          1           0      -12.115794    3.547500   -2.065767
     85          1           0      -13.182346    2.148378   -1.448996
     86          1           0      -12.612988   -1.654179   -1.302212
     87          1           0      -13.461943   -0.291884   -1.334661
     88          1           0      -12.173703    0.302660   -3.830027
     89          1           0      -11.502417   -1.322669   -3.469862
     90          1           0      -13.439243   -1.098228   -3.731207
     91          1           0       -9.884690   -4.891900   -0.431121
     92          1           0       -8.754134   -4.693270   -2.144976
     93          1           0       -8.355412   -5.564584   -0.551070
     94          1           0       -3.700142   -3.228311   -0.347414
     95          1           0       -1.037183   -5.820575    1.934627
     96          1           0       -1.738064   -4.518760    3.179945
     97          1           0       -2.736686   -6.303198    2.844072
     98          1           0        2.590708   -1.948192   -1.520399
     99          1           0        2.361893   -0.328429   -1.926147
    100          1           0        4.266959   -1.125416    0.530221
    101          1           0        5.659910    1.668032   -2.298430
    102          1           0        5.490183   -0.122389   -3.011383
    103          1           0        3.825973    1.151740   -2.593899
    104          1           0        6.406368    1.298126    0.103617
    105          1           0        6.152156   -0.191398    0.773913
    106          1           0        7.196242   -1.607899   -0.874098
    107          1           0        7.596130   -0.028779   -1.874118
    108          1           0        8.724136    0.963661    0.031606
    109          1           0        8.705567   -0.563210    0.831093
    110          1           0       10.030579   -0.111393   -1.769561
    111          1           0        9.259399   -2.459604   -1.862079
    112          1           0       11.101220   -2.687078   -1.303383
    113          1           0        9.730034   -2.620124   -0.100429
    114          1           0       11.308215    0.668786    0.544738
    115          1           0       11.154646   -0.876849    1.129544
    116          1           0       12.655732   -1.429854   -1.248097
    117          1           0       12.637405    0.315811   -1.631352
    118          1           0       13.549266    0.933333    0.625410
    119          1           0       13.689779   -0.787870    1.284004
    120          1           0       15.310267    0.225223   -1.350213
    121          1           0       14.793606   -2.005671   -1.585141
    122          1           0       16.667597   -1.859370   -1.279070
    123          1           0       15.341528   -2.259270    0.145731
    124          1           0       16.126574    1.423530    1.076168
    125          1           0       16.627898   -0.080735    1.423093
    126          1           0       18.233708   -0.364588   -0.800340
    127          1           0       17.583768    1.148937   -1.267326
    128          1           0       18.282119    2.281326    0.986300
    129          1           0       18.956640    0.833670    1.680486
    130          1           0       20.591961    0.527511   -0.306256
    131          1           0       19.739082    3.715674   -0.942434
    132          1           0       21.255225    2.599737   -1.650922
    133          1           0       19.574658    2.283284   -2.223772
    134          1           0       21.004100    1.587858    1.897564
    135          1           0       21.994285    2.080019    0.643108
    136          1           0       20.796393    3.335508    1.331258
    137          1           0       -6.977637    1.640217    0.178971
    138          1           0       -7.816551   -0.382122    0.207655
 ---------------------------------------------------------------------

 SCF Done:  E(RB3LYP) =  -2733.07669776     A.U. after   17 cycles

 Excitation energies and oscillator strengths:

 Excited State   1:      Singlet-A      2.0266 eV  611.77 nm  f=0.1432  <S**2>=0.000
     235 -> 237        0.13644
     235 -> 238        0.31278
     236 -> 237        0.60780
 This state for optimization and/or second-order correction.
 Total Energy, E(TD-HF/TD-KS) =  -2733.00222028
 Copying the excited state density for this state as the 1-particle RhoCI density.

 The electronic state is 1-A.
 Alpha  occ. eigenvalues --  -19.18930 -19.18216 -19.13830 -19.13705 -19.13136
 Alpha  occ. eigenvalues --  -14.37038 -14.36563 -14.32402 -14.29454 -10.32961
 Alpha  occ. eigenvalues --  -10.32734 -10.29267 -10.27440 -10.25381 -10.23610
 Alpha  occ. eigenvalues --  -10.23510 -10.23328 -10.23179 -10.22733 -10.22709
 Alpha  occ. eigenvalues --  -10.22654 -10.21981 -10.21709 -10.21686 -10.21056
 Alpha  occ. eigenvalues --  -10.21037 -10.20836 -10.20808 -10.20670 -10.20468
 Alpha  occ. eigenvalues --  -10.20368 -10.20328 -10.20319 -10.20250 -10.20243
 Alpha  occ. eigenvalues --  -10.20184 -10.20080 -10.20048 -10.20029 -10.20004
 Alpha  occ. eigenvalues --  -10.19978 -10.19968 -10.19935 -10.19787 -10.19717
 Alpha  occ. eigenvalues --  -10.19608 -10.19531 -10.19403 -10.19379 -10.19358
 Alpha  occ. eigenvalues --  -10.19337 -10.19299 -10.19273 -10.19254 -10.19198
 Alpha  occ. eigenvalues --  -10.19138 -10.18843 -10.18712 -10.18702 -10.18354
 Alpha  occ. eigenvalues --  -10.18340 -10.18196 -10.17777 -10.17426  -1.08341
 Alpha  occ. eigenvalues --   -1.06435  -1.04486  -1.00750  -0.98851  -0.98844
 Alpha  occ. eigenvalues --   -0.95947  -0.93725  -0.93393  -0.84560  -0.82928
 Alpha  occ. eigenvalues --   -0.81154  -0.80822  -0.80728  -0.80498  -0.80054
 Alpha  occ. eigenvalues --   -0.79584  -0.79458  -0.79035  -0.78360  -0.77030
 Alpha  occ. eigenvalues --   -0.76529  -0.75609  -0.74931  -0.74102  -0.73768
 Alpha  occ. eigenvalues --   -0.72985  -0.72484  -0.71864  -0.70611  -0.70130
 Alpha  occ. eigenvalues --   -0.69273  -0.68773  -0.68111  -0.67526  -0.67315
 Alpha  occ. eigenvalues --   -0.66455  -0.66048  -0.65696  -0.65358  -0.64995
 Alpha  occ. eigenvalues --   -0.63803  -0.62866  -0.62308  -0.61274  -0.61070
 Alpha  occ. eigenvalues --   -0.60747  -0.58759  -0.58148  -0.57888  -0.57098
 Alpha  occ. eigenvalues --   -0.56907  -0.56369  -0.56199  -0.56008  -0.55963
 Alpha  occ. eigenvalues --   -0.54902  -0.53966  -0.53627  -0.52974  -0.52392
 Alpha  occ. eigenvalues --   -0.52028  -0.51367  -0.51317  -0.50350  -0.50160
 Alpha  occ. eigenvalues --   -0.49420  -0.49120  -0.48679  -0.48433  -0.47996
 Alpha  occ. eigenvalues --   -0.47685  -0.47463  -0.47223  -0.47012  -0.46804
 Alpha  occ. eigenvalues --   -0.46413  -0.46075  -0.45741  -0.45546  -0.45293
 Alpha  occ. eigenvalues --   -0.44854  -0.44746  -0.44632  -0.44457  -0.44157
 Alpha  occ. eigenvalues --   -0.44118  -0.43914  -0.43702  -0.43380  -0.43240
 Alpha  occ. eigenvalues --   -0.42852  -0.42813  -0.42397  -0.42127  -0.42023
 Alpha  occ. eigenvalues --   -0.41985  -0.41700  -0.41566  -0.41421  -0.41402
 Alpha  occ. eigenvalues --   -0.41072  -0.40743  -0.40451  -0.40340  -0.40122
 Alpha  occ. eigenvalues --   -0.39871  -0.39861  -0.39677  -0.39453  -0.39221
 Alpha  occ. eigenvalues --   -0.38929  -0.38920  -0.38757  -0.38664  -0.38388
 Alpha  occ. eigenvalues --   -0.38155  -0.37962  -0.37862  -0.37766  -0.37588
 Alpha  occ. eigenvalues --   -0.37460  -0.37377  -0.37138  -0.37018  -0.36857
 Alpha  occ. eigenvalues --   -0.36490  -0.36187  -0.36156  -0.35900  -0.35804
 Alpha  occ. eigenvalues --   -0.35719  -0.35682  -0.35269  -0.35009  -0.34839
 Alpha  occ. eigenvalues --   -0.34757  -0.34432  -0.34371  -0.34003  -0.33555
 Alpha  occ. eigenvalues --   -0.33443  -0.33293  -0.32909  -0.32838  -0.32319
 Alpha  occ. eigenvalues --   -0.32278  -0.31884  -0.31788  -0.31681  -0.31533
 Alpha  occ. eigenvalues --   -0.31051  -0.30732  -0.30093  -0.29664  -0.29622
 Alpha  occ. eigenvalues --   -0.29026  -0.28846  -0.28556  -0.28455  -0.28308
 Alpha  occ. eigenvalues --   -0.27711  -0.27491  -0.27065  -0.26414  -0.25777
 Alpha  occ. eigenvalues --   -0.25589  -0.25372  -0.22480  -0.21817  -0.19285
 Alpha  occ. eigenvalues --   -0.18782
 Alpha virt. eigenvalues --   -0.10103  -0.07817  -0.04448  -0.02589  -0.01713
 Alpha virt. eigenvalues --   -0.01350   0.00298   0.00387   0.02356   0.03306
 Alpha virt. eigenvalues --    0.03751   0.03920   0.04193   0.04483   0.04597

 Mulliken charges:
               1
     1  C    0.003264
     2  C   -0.063969
     3  C   -0.074527
     4  C   -0.050902
     5  N   -0.210778
     6  C   -0.050671
     7  C   -0.109836
     8  C   -0.009531
     9  C    0.029896
    10  C    0.054455
    11  C    0.093952
    12  C    0.027671
    13  C    0.217057
    14  O   -0.284763
    15  O   -0.349693
    16  N   -0.141366
    17  C    0.134114
    18  C   -0.129354
    19  C    0.061160
    20  C   -0.017331
    21  C    0.067261
    22  C   -0.118360
    23  C   -0.061061
    24  N   -0.247054
    25  C    0.165463
    26  C   -0.135401
    27  C   -0.118265
    28  C    0.047034
    29  C    0.078147
    30  C    0.045096
    31  C   -0.015986
    32  N    0.073993
    33  C    0.101484
    34  C   -0.132635
    35  C   -0.051484
    36  C    0.087013
    37  C    0.018078
    38  C    0.126731
    39  O   -0.133300
    40  C   -0.083698
    41  C    0.228944
    42  O   -0.261424
    43  O   -0.297211
    44  C    0.063976
    45  C    0.303113
    46  C   -0.029386
    47  C   -0.176487
    48  C   -0.056374
    49  C    0.177688
    50  C   -0.031381
    51  C    0.079855
    52  C   -0.068484
    53  C   -0.001964
    54  C    0.029780
    55  C   -0.043565
    56  C    0.038973
    57  C    0.032892
    58  C   -0.069010
    59  C   -0.000451
    60  C    0.004219
    61  C    0.004662
    62  C   -0.164716
    63  C   -0.044488
    64  C    0.093902
    65  H   -0.063351
    66  H   -0.046012
    67  H   -0.069461
    68  H    0.066382
    69  H    0.003124
    70  H    0.014290
    71  H   -0.007239
    72  H    0.047169
    73  H    0.002474
    74  H    0.001788
    75  H    0.024489
    76  H    0.036278
    77  H    0.027896
    78  H    0.052749
    79  H    0.004493
    80  H    0.028191
    81  H    0.047803
    82  H    0.031235
    83  H    0.026882
    84  H    0.029173
    85  H    0.021928
    86  H    0.006238
    87  H   -0.009730
    88  H    0.030598
    89  H    0.021994
    90  H    0.034762
    91  H    0.040857
    92  H    0.064427
    93  H    0.026503
    94  H    0.066360
    95  H    0.055778
    96  H    0.067727
    97  H    0.070001
    98  H    0.020538
    99  H    0.019772
   100  H   -0.039008
   101  H    0.027269
   102  H    0.074933
   103  H    0.066199
   104  H   -0.005129
   105  H   -0.061821
   106  H    0.016584
   107  H    0.001900
   108  H   -0.008954
   109  H   -0.042755
   110  H   -0.010204
   111  H    0.036055
   112  H    0.035856
   113  H   -0.014597
   114  H   -0.024854
   115  H   -0.007839
   116  H    0.008760
   117  H   -0.000976
   118  H   -0.001062
   119  H    0.021589
   120  H   -0.033620
   121  H    0.019884
   122  H    0.046187
   123  H    0.021141
   124  H   -0.005594
   125  H   -0.010380
   126  H    0.004742
   127  H   -0.010241
   128  H   -0.017163
   129  H    0.005385
   130  H    0.017316
   131  H    0.034663
   132  H    0.017930
   133  H    0.028029
   134  H   -0.006579
   135  H   -0.018048
   136  H    0.029265
   137  H    0.202747
   138  H    0.151313
 Sum of Mulliken charges =   0.00000

 Dipole moment (field-independent basis, Debye):
    X=              3.1970    Y=              2.7441    Z=              0.3676  Tot=              4.2292
 Quadrupole moment (field-independent basis, Debye-Ang):
   XX=           -362.9234   YY=           -387.8191   ZZ=           -399.6943
   XY=             -6.0809   XZ=              6.0526   YZ=              5.0076

 Normal termination of Gaussian 09 at Fri Aug  2 09:00:42 2019.
