 Gaussian 09, Revision D.01,
 Gaussian 09:  ES64L-G09RevD.01 24-Apr-2013

 --------------------------
 # td=(NStates=1) B3LYP/SVP
 --------------------------

 --
 TD
 --
 Symbolic Z-matrix:
 Charge =  0 Multiplicity = 1

                         Standard orientation:
 ---------------------------------------------------------------------
 Center     Atomic      Atomic             Coordinates (Angstroms)
 Number     Number       Type             X           Y           Z
 ---------------------------------------------------------------------
      1          6           0       -5.091781   -1.896840    0.553712
      2          6           0       -4.787536    2.862653    1.413558
      3          6           0       -9.433511    3.232947   -0.366383
      4          6           0       -9.823924   -1.567839   -0.944244
      5          7           0       -5.198807    0.510308    0.905368
      6          6           0       -4.532101   -0.687463    0.906064
      7          6           0       -3.037674   -0.514391    1.326776
      8          6           0       -3.015325    0.971730    1.855532
      9          6           0       -4.371919    1.478423    1.215623
     10          6           0       -3.088581    0.993682    3.386754
     11          6           0       -2.040749   -0.635925    0.088939
     12          6           0       -0.576039   -0.592848    0.550684
     13          6           0        0.421468   -0.901494   -0.532864
     14          8           0        0.076062   -1.251728   -1.612424
     15          8           0        1.668485   -0.699821   -0.152192
     16          7           0       -7.145298    2.643125    0.556553
     17          6           0       -6.126705    3.308495    1.026097
     18          6           0       -6.396729    4.666266    1.118281
     19          6           0       -7.675975    4.847753    0.557419
     20          6           0       -8.174525    3.571587    0.199918
     21          6           0       -5.520151    5.869838    1.562294
     22          6           0       -8.496336    6.139192    0.500535
     23          6           0       -9.327054    6.389150   -0.612898
     24          7           0       -9.169756    0.764295   -0.564643
     25          6           0       -9.874072    1.854690   -0.555334
     26          6           0      -11.256853    1.715766   -1.093727
     27          6           0      -11.342233    0.381353   -1.338993
     28          6           0      -10.053883   -0.237442   -0.935046
     29          6           0      -12.316878    2.802947   -1.223407
     30          6           0      -12.562812   -0.289433   -2.019929
     31          6           0      -12.402942   -0.645766   -3.470163
     32          7           0       -7.480321   -1.313242   -0.169843
     33          6           0       -8.516024   -2.085905   -0.636557
     34          6           0       -8.197695   -3.438693   -0.638392
     35          6           0       -6.750444   -3.428259   -0.253510
     36          6           0       -6.406561   -2.023888   -0.007347
     37          6           0       -8.891840   -4.682736   -1.009706
     38          6           0       -5.611676   -4.217550    0.076337
     39          8           0       -5.474298   -5.469765   -0.059121
     40          6           0       -4.431355   -3.307562    0.543695
     41          6           0       -3.861932   -3.712847    1.919557
     42          8           0       -4.178436   -3.254375    2.971513
     43          8           0       -2.809832   -4.654069    1.749606
     44          6           0       -2.344364   -5.306474    2.952172
     45          6           0        2.596828   -1.001558   -1.228404
     46          6           0        3.953280   -0.755811   -0.547126
     47          6           0        4.958570    0.134157   -0.900293
     48          6           0        4.875684    0.992163   -2.137377
     49          6           0        6.336852    0.196478   -0.171141
     50          6           0        7.560372   -0.335538   -0.822789
     51          6           0        8.824484   -0.173903   -0.118929
     52          6           0       10.041736   -0.618469   -0.918097
     53          6           0       10.065780   -2.057898   -1.353092
     54          6           0       11.264980   -0.242066   -0.081592
     55          6           0       12.665006   -0.638752   -0.693286
     56          6           0       13.874136   -0.110043    0.082813
     57          6           0       15.201283   -0.206949   -0.415357
     58          6           0       15.615087   -1.629367   -0.587139
     59          6           0       16.213973    0.559576    0.452435
     60          6           0       17.750818    0.570124   -0.082211
     61          6           0       18.593492    1.554312    0.590462
     62          6           0       20.054650    1.585059    0.072618
     63          6           0       20.149350    2.340950   -1.279060
     64          6           0       21.026628    2.322052    1.033797
     65          1           0       -4.094387    3.616983    1.874595
     66          1           0      -10.165432    4.067974   -0.704773
     67          1           0      -10.775169   -2.245590   -1.284281
     68          1           0       -2.811922   -1.326013    2.049952
     69          1           0       -2.141297    1.716428    1.660547
     70          1           0       -2.014709    0.719191    3.879705
     71          1           0       -3.443470    1.983330    3.609596
     72          1           0       -3.696969    0.224131    4.019650
     73          1           0       -1.939464   -1.595321   -0.487438
     74          1           0       -2.164502    0.228665   -0.700528
     75          1           0        0.010752    0.197483    1.014795
     76          1           0       -0.401309   -1.342303    1.397945
     77          1           0       -4.771215    6.261544    0.760811
     78          1           0       -6.337942    6.713996    1.948152
     79          1           0       -4.902610    5.381362    2.379522
     80          1           0       -8.333809    7.049875    1.330725
     81          1           0       -9.530807    5.589122   -1.368621
     82          1           0       -9.817322    7.401572   -0.301570
     83          1           0      -12.487446    3.506939   -0.444172
     84          1           0      -12.039614    3.377536   -2.064301
     85          1           0      -13.413230    2.594413   -1.591948
     86          1           0      -12.517715   -1.289464   -1.365721
     87          1           0      -13.513639    0.128144   -2.057077
     88          1           0      -12.320675    0.183170   -4.066737
     89          1           0      -11.582771   -1.095421   -3.590441
     90          1           0      -13.297126   -1.128887   -3.865045
     91          1           0       -9.585099   -5.092500   -0.156854
     92          1           0       -9.278787   -4.628696   -2.148679
     93          1           0       -8.206657   -5.373819   -0.980029
     94          1           0       -3.666688   -3.424442   -0.207140
     95          1           0       -2.115569   -6.214378    2.391115
     96          1           0       -1.508465   -4.564114    3.340291
     97          1           0       -3.345089   -5.491967    3.703777
     98          1           0        2.634606   -1.876288   -1.464727
     99          1           0        2.170827   -0.131260   -2.084455
    100          1           0        3.863686   -1.302583    0.374974
    101          1           0        5.353060    1.988756   -1.979146
    102          1           0        5.661833    0.765568   -2.953731
    103          1           0        3.826890    1.048439   -2.695945
    104          1           0        6.332191    1.251969    0.420046
    105          1           0        6.089588   -0.550970    0.655873
    106          1           0        7.154412   -1.410741   -1.148060
    107          1           0        7.717102    0.182289   -1.807834
    108          1           0        8.691634    0.813471    0.326069
    109          1           0        8.560339   -0.718345    0.943473
    110          1           0        9.970975    0.013288   -1.778589
    111          1           0        9.064871   -2.527731   -1.734521
    112          1           0       10.947276   -2.327563   -1.874698
    113          1           0       10.218419   -2.571477   -0.232823
    114          1           0       11.405828    0.758687    0.004993
    115          1           0       11.303127   -0.827807    0.833908
    116          1           0       12.623295   -1.738957   -0.737349
    117          1           0       12.554391   -0.126197   -1.734108
    118          1           0       13.487846    0.940303    0.253694
    119          1           0       13.816230   -0.608384    1.257209
    120          1           0       15.266751    0.274482   -1.381375
    121          1           0       15.065459   -2.231537   -1.241293
    122          1           0       16.608800   -1.798052   -1.244505
    123          1           0       15.666547   -2.265184    0.438518
    124          1           0       15.729030    1.577082    0.634561
    125          1           0       16.273787    0.257799    1.463461
    126          1           0       18.210668   -0.365030    0.079927
    127          1           0       17.659520    0.677271   -1.218785
    128          1           0       18.200734    2.620787    0.652342
    129          1           0       18.735104    1.420027    1.757974
    130          1           0       20.530043    0.472050   -0.252573
    131          1           0       19.668052    3.245059   -1.273434
    132          1           0       21.124280    2.401571   -1.698359
    133          1           0       19.662218    1.569503   -2.103604
    134          1           0       20.767420    1.986331    2.009001
    135          1           0       21.990936    2.187630    0.548596
    136          1           0       20.891568    3.441762    1.223452
    137          1           0       -7.202926    1.732167    0.593864
    138          1           0       -7.620479   -0.356290   -0.149017
 ---------------------------------------------------------------------

 SCF Done:  E(RB3LYP) =  -2732.97351499     A.U. after   17 cycles

 Excitation energies and oscillator strengths:

 Excited State   1:      Singlet-A      2.1215 eV  584.42 nm  f=0.2088  <S**2>=0.000
     235 -> 237       -0.33271
     235 -> 238        0.23332
     236 -> 237        0.55337
     236 -> 238        0.16368
 This state for optimization and/or second-order correction.
 Total Energy, E(TD-HF/TD-KS) =  -2732.89555137
 Copying the excited state density for this state as the 1-particle RhoCI density.

 The electronic state is 1-A.
 Alpha  occ. eigenvalues --  -19.17973 -19.16243 -19.13389 -19.11608 -19.10207
 Alpha  occ. eigenvalues --  -14.37347 -14.36824 -14.32545 -14.30940 -10.31737
 Alpha  occ. eigenvalues --  -10.30265 -10.26606 -10.25682 -10.24877 -10.24635
 Alpha  occ. eigenvalues --  -10.24107 -10.23590 -10.23576 -10.23315 -10.23313
 Alpha  occ. eigenvalues --  -10.22979 -10.22667 -10.22474 -10.21778 -10.21711
 Alpha  occ. eigenvalues --  -10.21551 -10.21515 -10.21488 -10.21400 -10.21395
 Alpha  occ. eigenvalues --  -10.21377 -10.21047 -10.20905 -10.20781 -10.20676
 Alpha  occ. eigenvalues --  -10.20596 -10.20485 -10.20385 -10.20228 -10.20200
 Alpha  occ. eigenvalues --  -10.19781 -10.19705 -10.19604 -10.19587 -10.19559
 Alpha  occ. eigenvalues --  -10.19440 -10.19429 -10.19429 -10.19428 -10.19283
 Alpha  occ. eigenvalues --  -10.19122 -10.19056 -10.19002 -10.18981 -10.18758
 Alpha  occ. eigenvalues --  -10.18655 -10.18642 -10.18387 -10.18372 -10.18121
 Alpha  occ. eigenvalues --  -10.17676 -10.17400 -10.17345 -10.15804  -1.10968
 Alpha  occ. eigenvalues --   -1.07877  -1.01587  -1.00550  -1.00485  -1.00229
 Alpha  occ. eigenvalues --   -0.98223  -0.95224  -0.94746  -0.84149  -0.83494
 Alpha  occ. eigenvalues --   -0.82503  -0.82299  -0.81253  -0.81130  -0.80247
 Alpha  occ. eigenvalues --   -0.80143  -0.79959  -0.79870  -0.78906  -0.78131
 Alpha  occ. eigenvalues --   -0.76687  -0.75947  -0.75734  -0.74864  -0.74668
 Alpha  occ. eigenvalues --   -0.73828  -0.73332  -0.72328  -0.72210  -0.70960
 Alpha  occ. eigenvalues --   -0.70023  -0.69808  -0.68491  -0.68042  -0.67715
 Alpha  occ. eigenvalues --   -0.67189  -0.67067  -0.66603  -0.66215  -0.65054
 Alpha  occ. eigenvalues --   -0.63665  -0.63306  -0.62439  -0.62158  -0.61513
 Alpha  occ. eigenvalues --   -0.61226  -0.58836  -0.57954  -0.57666  -0.57151
 Alpha  occ. eigenvalues --   -0.56939  -0.56744  -0.56308  -0.56138  -0.55994
 Alpha  occ. eigenvalues --   -0.54970  -0.54546  -0.54191  -0.53857  -0.53172
 Alpha  occ. eigenvalues --   -0.53082  -0.51727  -0.51600  -0.50635  -0.50398
 Alpha  occ. eigenvalues --   -0.50024  -0.49848  -0.49672  -0.48274  -0.48204
 Alpha  occ. eigenvalues --   -0.48120  -0.47884  -0.47589  -0.46958  -0.46870
 Alpha  occ. eigenvalues --   -0.46779  -0.46327  -0.46240  -0.46121  -0.45779
 Alpha  occ. eigenvalues --   -0.45504  -0.45184  -0.44982  -0.44844  -0.44711
 Alpha  occ. eigenvalues --   -0.44600  -0.44194  -0.43851  -0.43681  -0.43616
 Alpha  occ. eigenvalues --   -0.43427  -0.43233  -0.43135  -0.42835  -0.42419
 Alpha  occ. eigenvalues --   -0.42280  -0.41960  -0.41880  -0.41668  -0.41246
 Alpha  occ. eigenvalues --   -0.41030  -0.40968  -0.40944  -0.40774  -0.40627
 Alpha  occ. eigenvalues --   -0.40187  -0.39951  -0.39911  -0.39746  -0.39473
 Alpha  occ. eigenvalues --   -0.39355  -0.39288  -0.39034  -0.38815  -0.38655
 Alpha  occ. eigenvalues --   -0.38633  -0.38173  -0.37753  -0.37567  -0.37323
 Alpha  occ. eigenvalues --   -0.37203  -0.37141  -0.36831  -0.36704  -0.36568
 Alpha  occ. eigenvalues --   -0.36433  -0.36243  -0.35950  -0.35764  -0.35553
 Alpha  occ. eigenvalues --   -0.35485  -0.35223  -0.35045  -0.34811  -0.34240
 Alpha  occ. eigenvalues --   -0.34215  -0.34031  -0.33873  -0.33607  -0.33423
 Alpha  occ. eigenvalues --   -0.33114  -0.32838  -0.32673  -0.32268  -0.32055
 Alpha  occ. eigenvalues --   -0.31949  -0.31758  -0.31583  -0.31537  -0.31441
 Alpha  occ. eigenvalues --   -0.31001  -0.30846  -0.30543  -0.29665  -0.29555
 Alpha  occ. eigenvalues --   -0.29470  -0.29423  -0.29100  -0.28256  -0.28008
 Alpha  occ. eigenvalues --   -0.27762  -0.27604  -0.27078  -0.26432  -0.25195
 Alpha  occ. eigenvalues --   -0.24579  -0.24485  -0.23749  -0.23640  -0.20149
 Alpha  occ. eigenvalues --   -0.19486
 Alpha virt. eigenvalues --   -0.10929  -0.07317  -0.04624  -0.02641  -0.00666
 Alpha virt. eigenvalues --   -0.00538   0.00161   0.01395   0.02358   0.02767
 Alpha virt. eigenvalues --    0.03838   0.03973   0.04027   0.04302   0.04499

 Mulliken charges:
               1
     1  C   -0.011246
     2  C   -0.111468
     3  C   -0.132947
     4  C   -0.132090
     5  N   -0.146736
     6  C   -0.053255
     7  C   -0.014073
     8  C   -0.068640
     9  C    0.026730
    10  C   -0.000174
    11  C    0.056872
    12  C    0.004002
    13  C    0.124705
    14  O   -0.227218
    15  O   -0.305808
    16  N    0.063274
    17  C    0.068455
    18  C   -0.157352
    19  C    0.012029
    20  C    0.119943
    21  C    0.017074
    22  C   -0.111812
    23  C   -0.051197
    24  N   -0.200779
    25  C    0.035277
    26  C   -0.127805
    27  C   -0.087220
    28  C    0.075107
    29  C    0.104685
    30  C    0.029759
    31  C    0.159842
    32  N    0.095103
    33  C    0.050966
    34  C   -0.148198
    35  C   -0.011302
    36  C    0.022505
    37  C    0.163547
    38  C    0.012953
    39  O   -0.245445
    40  C    0.059390
    41  C    0.210639
    42  O   -0.188328
    43  O   -0.364144
    44  C    0.102148
    45  C    0.338053
    46  C   -0.121477
    47  C   -0.105839
    48  C    0.021427
    49  C    0.001179
    50  C    0.006098
    51  C    0.023358
    52  C    0.022472
    53  C   -0.009416
    54  C    0.055416
    55  C   -0.013206
    56  C   -0.032678
    57  C    0.057721
    58  C   -0.005570
    59  C    0.022863
    60  C    0.081210
    61  C    0.015775
    62  C   -0.182913
    63  C    0.049073
    64  C    0.069208
    65  H    0.002518
    66  H    0.011366
    67  H    0.046384
    68  H    0.020941
    69  H    0.024277
    70  H    0.025187
    71  H    0.000737
    72  H    0.043536
    73  H    0.041022
    74  H    0.029756
    75  H    0.004203
    76  H    0.019421
    77  H    0.063774
    78  H    0.052276
    79  H    0.036712
    80  H    0.058385
    81  H    0.063832
    82  H    0.050170
    83  H    0.020418
    84  H   -0.001693
    85  H    0.015288
    86  H    0.009945
    87  H   -0.018678
    88  H   -0.029277
    89  H   -0.062032
    90  H    0.005723
    91  H    0.039744
    92  H    0.050048
    93  H   -0.035122
    94  H    0.049038
    95  H    0.060046
    96  H    0.060703
    97  H    0.069444
    98  H   -0.058543
    99  H    0.063472
   100  H   -0.004003
   101  H    0.004391
   102  H    0.023135
   103  H    0.035788
   104  H    0.025971
   105  H   -0.001926
   106  H    0.020229
   107  H   -0.016146
   108  H   -0.015192
   109  H   -0.017488
   110  H   -0.023993
   111  H    0.039770
   112  H    0.024781
   113  H    0.006015
   114  H   -0.037280
   115  H   -0.004368
   116  H    0.006101
   117  H   -0.002882
   118  H   -0.010420
   119  H   -0.001736
   120  H   -0.024109
   121  H   -0.014366
   122  H    0.007401
   123  H    0.019833
   124  H   -0.014391
   125  H   -0.029677
   126  H   -0.007855
   127  H    0.008268
   128  H   -0.005407
   129  H   -0.007030
   130  H    0.014807
   131  H   -0.008265
   132  H   -0.006061
   133  H    0.001241
   134  H   -0.008494
   135  H    0.014449
   136  H    0.002541
   137  H    0.064583
   138  H    0.098243
 Sum of Mulliken charges =   0.00000

 Dipole moment (field-independent basis, Debye):
    X=              0.8202    Y=              5.9094    Z=              0.0980  Tot=              5.9669
 Quadrupole moment (field-independent basis, Debye-Ang):
   XX=           -336.6802   YY=           -388.4993   ZZ=           -395.8216
   XY=            -31.9403   XZ=              7.9961   YZ=              0.2958

 Normal termination of Gaussian 09 at Mon Aug  5 00:20:13 2019.
