 Gaussian 09, Revision D.01,
 Gaussian 09:  ES64L-G09RevD.01 24-Apr-2013

 --------------------------
 # td=(NStates=1) B3LYP/SVP
 --------------------------

 --
 TD
 --
 Symbolic Z-matrix:
 Charge =  0 Multiplicity = 1

                         Standard orientation:
 ---------------------------------------------------------------------
 Center     Atomic      Atomic             Coordinates (Angstroms)
 Number     Number       Type             X           Y           Z
 ---------------------------------------------------------------------
      1          6           0       -5.072980   -1.912439    0.396142
      2          6           0       -4.948138    2.794894    1.432200
      3          6           0       -9.461296    3.172262   -0.296389
      4          6           0       -9.769424   -1.562849   -1.132517
      5          7           0       -5.143812    0.487300    0.634746
      6          6           0       -4.452535   -0.729863    0.805759
      7          6           0       -2.963152   -0.511031    1.279764
      8          6           0       -3.195981    0.921195    1.982389
      9          6           0       -4.562350    1.456605    1.360189
     10          6           0       -3.085526    0.879713    3.522978
     11          6           0       -1.936971   -0.696721    0.206504
     12          6           0       -0.467445   -0.582395    0.651609
     13          6           0        0.403526   -0.950764   -0.464351
     14          8           0        0.070836   -1.504096   -1.557009
     15          8           0        1.660396   -0.594091   -0.099409
     16          7           0       -7.206176    2.673809    0.383011
     17          6           0       -6.180273    3.359979    1.000138
     18          6           0       -6.445573    4.744871    1.146399
     19          6           0       -7.745598    4.837240    0.682622
     20          6           0       -8.233069    3.577792    0.088194
     21          6           0       -5.575628    5.810430    1.893704
     22          6           0       -8.508531    6.154764    0.630496
     23          6           0       -9.172400    6.542599   -0.494910
     24          7           0       -9.207768    0.786343   -0.647516
     25          6           0       -9.956691    1.942525   -0.638144
     26          6           0      -11.292647    1.757633   -1.151829
     27          6           0      -11.465747    0.337026   -1.372367
     28          6           0      -10.118953   -0.214699   -1.042611
     29          6           0      -12.342110    2.828310   -1.235104
     30          6           0      -12.499936   -0.380663   -1.964228
     31          6           0      -12.466758   -0.562683   -3.456411
     32          7           0       -7.452963   -1.180829   -0.389328
     33          6           0       -8.534600   -2.157828   -0.759850
     34          6           0       -8.061896   -3.444730   -0.774360
     35          6           0       -6.780655   -3.431644   -0.304287
     36          6           0       -6.379007   -2.052040   -0.144355
     37          6           0       -8.975424   -4.737699   -0.977522
     38          6           0       -5.686486   -4.340728    0.035782
     39          8           0       -5.464730   -5.463762    0.187835
     40          6           0       -4.491497   -3.296286    0.439336
     41          6           0       -3.967710   -3.748684    1.806905
     42          8           0       -4.363129   -3.310751    2.889980
     43          8           0       -2.990487   -4.767433    1.725685
     44          6           0       -2.594287   -5.268841    2.877231
     45          6           0        2.663554   -0.765003   -1.112059
     46          6           0        4.087277   -0.537491   -0.539911
     47          6           0        4.993709    0.194504   -1.110133
     48          6           0        5.055063    0.829344   -2.468762
     49          6           0        6.346693    0.416603   -0.189772
     50          6           0        7.546423   -0.224496   -0.920534
     51          6           0        8.763777   -0.095431   -0.034025
     52          6           0       10.020459   -0.578004   -0.707325
     53          6           0        9.901501   -2.125013   -0.877581
     54          6           0       11.258433   -0.244945    0.144368
     55          6           0       12.679945   -0.532419   -0.572894
     56          6           0       13.856703    0.172624    0.194690
     57          6           0       15.226359   -0.147109   -0.273470
     58          6           0       15.523916   -1.645366   -0.023717
     59          6           0       16.327591    0.718660    0.368040
     60          6           0       17.806552    0.663945   -0.296912
     61          6           0       18.729467    1.532612    0.384050
     62          6           0       20.234479    1.514028   -0.124036
     63          6           0       20.407984    1.762011   -1.622607
     64          6           0       21.240356    2.274873    0.766143
     65          1           0       -4.233575    3.774776    1.864228
     66          1           0      -10.098727    4.137103   -0.243124
     67          1           0      -10.472393   -2.473476   -1.475782
     68          1           0       -2.788033   -1.261582    2.099808
     69          1           0       -2.317703    1.518566    1.789316
     70          1           0       -2.182202    0.276948    3.777457
     71          1           0       -3.152085    1.973211    3.885656
     72          1           0       -3.918327    0.516923    3.944557
     73          1           0       -1.954742   -1.695697   -0.415447
     74          1           0       -2.145405    0.195950   -0.522033
     75          1           0       -0.157097    0.283363    1.168076
     76          1           0       -0.276674   -1.362879    1.465724
     77          1           0       -4.746177    6.161474    1.235178
     78          1           0       -6.077097    6.848961    2.254416
     79          1           0       -5.127977    5.519327    2.695221
     80          1           0       -8.562570    6.729736    1.398456
     81          1           0       -9.332280    5.986963   -1.319536
     82          1           0       -9.519299    7.590073   -0.462511
     83          1           0      -12.259356    3.344759   -0.129097
     84          1           0      -12.324094    3.558010   -2.086702
     85          1           0      -13.295437    2.346374   -1.437195
     86          1           0      -12.518813   -1.398961   -1.479340
     87          1           0      -13.513586    0.172493   -1.990167
     88          1           0      -12.362489    0.456486   -3.964647
     89          1           0      -11.544822   -1.173051   -3.790776
     90          1           0      -13.541951   -0.824635   -3.728461
     91          1           0      -10.115633   -4.406735   -0.762142
     92          1           0       -9.055661   -4.892691   -2.189214
     93          1           0       -8.555317   -5.643166   -0.453687
     94          1           0       -3.622336   -3.305988   -0.253895
     95          1           0       -1.554468   -5.831756    2.617828
     96          1           0       -2.220020   -4.696840    3.637782
     97          1           0       -3.260019   -6.140975    3.371259
     98          1           0        2.804218   -1.955385   -1.514292
     99          1           0        2.491509   -0.279449   -2.080074
    100          1           0        4.188531   -0.888258    0.485968
    101          1           0        5.655521    1.829729   -2.160825
    102          1           0        5.348526    0.207371   -3.276957
    103          1           0        3.974734    1.143005   -2.863137
    104          1           0        6.648108    1.523609   -0.063348
    105          1           0        6.138344   -0.096842    0.838525
    106          1           0        7.451554   -1.212122   -1.097611
    107          1           0        7.658375    0.196248   -2.089970
    108          1           0        8.714950    0.957543    0.332834
    109          1           0        8.668726   -0.453320    0.944828
    110          1           0       10.262083   -0.271990   -1.644339
    111          1           0        9.102384   -2.559172   -1.526415
    112          1           0       10.814322   -2.639683   -1.366490
    113          1           0        9.779612   -2.715215    0.081779
    114          1           0       11.209597    0.829235    0.424468
    115          1           0       11.314336   -0.883249    1.036730
    116          1           0       12.769540   -1.688879   -0.686342
    117          1           0       12.535841   -0.124973   -1.621711
    118          1           0       13.693002    1.103466    0.564092
    119          1           0       13.960043   -0.110393    1.393704
    120          1           0       15.351644   -0.066681   -1.337546
    121          1           0       14.969930   -2.528794   -0.491994
    122          1           0       16.630192   -1.868863   -0.216354
    123          1           0       15.606407   -2.098539    1.190772
    124          1           0       16.016620    1.858164    0.316086
    125          1           0       16.392569    0.446588    1.511144
    126          1           0       18.065823   -0.525215   -0.204240
    127          1           0       17.942538    0.849840   -1.463203
    128          1           0       18.310238    2.555634    0.272153
    129          1           0       18.815729    1.459375    1.426938
    130          1           0       20.507231    0.502694    0.146386
    131          1           0       20.346519    2.913213   -1.665996
    132          1           0       21.505767    1.591079   -1.998938
    133          1           0       19.561082    1.384513   -2.351640
    134          1           0       20.958440    1.804129    1.817194
    135          1           0       22.314375    2.150556    0.567210
    136          1           0       21.006842    3.392599    0.789071
    137          1           0       -7.189038    1.528736    0.233836
    138          1           0       -7.813428   -0.103712   -0.272482
 ---------------------------------------------------------------------

 SCF Done:  E(RB3LYP) =  -2733.02661021     A.U. after   17 cycles

 Excitation energies and oscillator strengths:

 Excited State   1:      Singlet-A      2.1252 eV  583.39 nm  f=0.1156  <S**2>=0.000
     235 -> 238       -0.35006
     236 -> 237        0.60959
 This state for optimization and/or second-order correction.
 Total Energy, E(TD-HF/TD-KS) =  -2732.94850981
 Copying the excited state density for this state as the 1-particle RhoCI density.

 The electronic state is 1-A.
 Alpha  occ. eigenvalues --  -19.19336 -19.17433 -19.13129 -19.12981 -19.12604
 Alpha  occ. eigenvalues --  -14.37342 -14.36045 -14.32486 -14.31590 -10.32309
 Alpha  occ. eigenvalues --  -10.31688 -10.28344 -10.26074 -10.24218 -10.24077
 Alpha  occ. eigenvalues --  -10.23888 -10.23631 -10.23571 -10.23298 -10.22916
 Alpha  occ. eigenvalues --  -10.22805 -10.22426 -10.21926 -10.21799 -10.21653
 Alpha  occ. eigenvalues --  -10.21432 -10.21361 -10.21205 -10.21017 -10.20917
 Alpha  occ. eigenvalues --  -10.20654 -10.20612 -10.20571 -10.20529 -10.20465
 Alpha  occ. eigenvalues --  -10.20458 -10.20373 -10.20284 -10.20263 -10.20073
 Alpha  occ. eigenvalues --  -10.19996 -10.19981 -10.19825 -10.19794 -10.19742
 Alpha  occ. eigenvalues --  -10.19590 -10.19568 -10.19539 -10.19531 -10.19485
 Alpha  occ. eigenvalues --  -10.19406 -10.19379 -10.19232 -10.19176 -10.18917
 Alpha  occ. eigenvalues --  -10.18586 -10.18467 -10.18457 -10.18418 -10.18378
 Alpha  occ. eigenvalues --  -10.18304 -10.18209 -10.17589 -10.17509  -1.09329
 Alpha  occ. eigenvalues --   -1.09239  -1.06770  -1.00337  -0.99040  -0.97321
 Alpha  occ. eigenvalues --   -0.94800  -0.92918  -0.92424  -0.83797  -0.82395
 Alpha  occ. eigenvalues --   -0.81784  -0.81671  -0.81436  -0.81312  -0.80605
 Alpha  occ. eigenvalues --   -0.80481  -0.79977  -0.79889  -0.78563  -0.77445
 Alpha  occ. eigenvalues --   -0.76433  -0.75963  -0.75333  -0.75171  -0.74329
 Alpha  occ. eigenvalues --   -0.73372  -0.72620  -0.72171  -0.71264  -0.71088
 Alpha  occ. eigenvalues --   -0.69915  -0.68967  -0.67969  -0.67217  -0.66933
 Alpha  occ. eigenvalues --   -0.66550  -0.66384  -0.65889  -0.65501  -0.65279
 Alpha  occ. eigenvalues --   -0.64241  -0.62320  -0.62049  -0.61710  -0.61003
 Alpha  occ. eigenvalues --   -0.60745  -0.58749  -0.58580  -0.57872  -0.57417
 Alpha  occ. eigenvalues --   -0.57188  -0.56686  -0.56527  -0.56102  -0.55749
 Alpha  occ. eigenvalues --   -0.55358  -0.54748  -0.54543  -0.53303  -0.52894
 Alpha  occ. eigenvalues --   -0.52288  -0.51732  -0.51196  -0.50909  -0.50222
 Alpha  occ. eigenvalues --   -0.49641  -0.49342  -0.48829  -0.48186  -0.48026
 Alpha  occ. eigenvalues --   -0.47772  -0.47419  -0.46972  -0.46875  -0.46781
 Alpha  occ. eigenvalues --   -0.46556  -0.46199  -0.46122  -0.45772  -0.45632
 Alpha  occ. eigenvalues --   -0.45451  -0.45205  -0.44861  -0.44516  -0.44344
 Alpha  occ. eigenvalues --   -0.44250  -0.43898  -0.43840  -0.43712  -0.43442
 Alpha  occ. eigenvalues --   -0.43338  -0.43195  -0.43046  -0.42803  -0.42613
 Alpha  occ. eigenvalues --   -0.42475  -0.42200  -0.41889  -0.41537  -0.41478
 Alpha  occ. eigenvalues --   -0.40967  -0.40746  -0.40621  -0.40507  -0.40310
 Alpha  occ. eigenvalues --   -0.40091  -0.39754  -0.39725  -0.39618  -0.39429
 Alpha  occ. eigenvalues --   -0.39066  -0.38793  -0.38472  -0.38138  -0.38049
 Alpha  occ. eigenvalues --   -0.37881  -0.37737  -0.37660  -0.37431  -0.37290
 Alpha  occ. eigenvalues --   -0.37146  -0.36860  -0.36726  -0.36672  -0.36540
 Alpha  occ. eigenvalues --   -0.36339  -0.36245  -0.36092  -0.35870  -0.35659
 Alpha  occ. eigenvalues --   -0.35437  -0.35258  -0.35195  -0.34884  -0.34501
 Alpha  occ. eigenvalues --   -0.34263  -0.34175  -0.34085  -0.34055  -0.33234
 Alpha  occ. eigenvalues --   -0.32918  -0.32868  -0.32587  -0.32525  -0.32465
 Alpha  occ. eigenvalues --   -0.32123  -0.32091  -0.31627  -0.31295  -0.30998
 Alpha  occ. eigenvalues --   -0.30898  -0.30646  -0.30261  -0.30027  -0.29412
 Alpha  occ. eigenvalues --   -0.29145  -0.29108  -0.28640  -0.28432  -0.28320
 Alpha  occ. eigenvalues --   -0.28136  -0.27556  -0.27156  -0.26478  -0.25760
 Alpha  occ. eigenvalues --   -0.25033  -0.24894  -0.24703  -0.22275  -0.19813
 Alpha  occ. eigenvalues --   -0.19670
 Alpha virt. eigenvalues --   -0.10468  -0.07996  -0.04243  -0.01916  -0.01648
 Alpha virt. eigenvalues --   -0.00884   0.00354   0.01311   0.01408   0.03171
 Alpha virt. eigenvalues --    0.03243   0.03919   0.04166   0.04248   0.04285

 Mulliken charges:
               1
     1  C    0.036729
     2  C   -0.116222
     3  C   -0.124806
     4  C   -0.103426
     5  N   -0.203268
     6  C   -0.072068
     7  C   -0.014754
     8  C   -0.065907
     9  C    0.070864
    10  C    0.103513
    11  C    0.020769
    12  C    0.048306
    13  C    0.214492
    14  O   -0.278100
    15  O   -0.294912
    16  N   -0.168837
    17  C    0.060682
    18  C   -0.084308
    19  C   -0.004504
    20  C    0.065914
    21  C    0.117089
    22  C    0.013296
    23  C    0.019311
    24  N   -0.309760
    25  C    0.175731
    26  C   -0.149577
    27  C   -0.024067
    28  C    0.123800
    29  C    0.064887
    30  C    0.011410
    31  C   -0.013918
    32  N   -0.212383
    33  C    0.031413
    34  C   -0.109262
    35  C   -0.047284
    36  C    0.136968
    37  C    0.003483
    38  C    0.102984
    39  O   -0.085686
    40  C   -0.085450
    41  C    0.211301
    42  O   -0.236139
    43  O   -0.264531
    44  C    0.151535
    45  C    0.205873
    46  C   -0.072222
    47  C   -0.113187
    48  C    0.031321
    49  C   -0.009767
    50  C    0.032323
    51  C    0.086453
    52  C    0.048476
    53  C   -0.054115
    54  C    0.002482
    55  C    0.013332
    56  C    0.070553
    57  C    0.048676
    58  C   -0.080943
    59  C   -0.054036
    60  C   -0.035271
    61  C    0.079002
    62  C   -0.069043
    63  C   -0.027679
    64  C   -0.019649
    65  H    0.029635
    66  H    0.001083
    67  H    0.011650
    68  H    0.004617
    69  H   -0.016614
    70  H    0.027509
    71  H    0.009329
    72  H   -0.019473
    73  H    0.063726
    74  H    0.022523
    75  H    0.012895
    76  H    0.036228
    77  H    0.027848
    78  H    0.035872
    79  H   -0.016710
    80  H   -0.057924
    81  H   -0.000692
    82  H    0.028035
    83  H    0.055807
    84  H    0.028797
    85  H   -0.003524
    86  H    0.015890
    87  H    0.002008
    88  H    0.006822
    89  H    0.030257
    90  H    0.022916
    91  H    0.047114
    92  H    0.047911
    93  H    0.070408
    94  H    0.051440
    95  H    0.005439
    96  H   -0.006804
    97  H    0.029981
    98  H    0.039393
    99  H    0.015469
   100  H   -0.009485
   101  H    0.048854
   102  H    0.039432
   103  H    0.023049
   104  H    0.023605
   105  H    0.016781
   106  H   -0.041351
   107  H    0.015135
   108  H   -0.037973
   109  H   -0.036818
   110  H   -0.043039
   111  H    0.013749
   112  H    0.007454
   113  H    0.006049
   114  H    0.000586
   115  H   -0.001427
   116  H    0.027212
   117  H    0.003484
   118  H   -0.055818
   119  H   -0.024659
   120  H   -0.014141
   121  H    0.030810
   122  H    0.003862
   123  H   -0.000478
   124  H    0.011294
   125  H    0.018792
   126  H    0.009094
   127  H    0.018401
   128  H   -0.020152
   129  H   -0.035675
   130  H   -0.013607
   131  H    0.002234
   132  H    0.023912
   133  H    0.039364
   134  H    0.019233
   135  H    0.023563
   136  H    0.014517
   137  H    0.221617
   138  H    0.215793
 Sum of Mulliken charges =   0.00000

 Dipole moment (field-independent basis, Debye):
    X=              0.4628    Y=              6.0911    Z=              0.1811  Tot=              6.1113
 Quadrupole moment (field-independent basis, Debye-Ang):
   XX=           -339.3738   YY=           -383.6139   ZZ=           -395.5144
   XY=            -26.4237   XZ=             12.2574   YZ=              8.1180

 Normal termination of Gaussian 09 at Sat Aug  3 15:56:00 2019.
