 Gaussian 09, Revision D.01,
 Gaussian 09:  ES64L-G09RevD.01 24-Apr-2013

 --------------------------
 # td=(NStates=1) B3LYP/SVP
 --------------------------

 --
 TD
 --
 Symbolic Z-matrix:
 Charge =  0 Multiplicity = 1

                         Standard orientation:
 ---------------------------------------------------------------------
 Center     Atomic      Atomic             Coordinates (Angstroms)
 Number     Number       Type             X           Y           Z
 ---------------------------------------------------------------------
      1          6           0       -5.054384   -1.844147    0.431274
      2          6           0       -4.699967    2.843093    1.363943
      3          6           0       -9.263379    3.389590   -0.186403
      4          6           0       -9.790242   -1.447852   -0.913096
      5          7           0       -5.154348    0.531890    0.757915
      6          6           0       -4.473133   -0.671839    0.679584
      7          6           0       -2.993959   -0.602890    1.232041
      8          6           0       -2.947391    0.966026    1.804026
      9          6           0       -4.295890    1.412934    1.328297
     10          6           0       -2.997159    1.097466    3.316853
     11          6           0       -2.070546   -0.818551   -0.045777
     12          6           0       -0.630632   -0.971420    0.336804
     13          6           0        0.409164   -1.162972   -0.728361
     14          8           0       -0.046024   -1.680652   -1.776065
     15          8           0        1.633099   -1.038937   -0.369668
     16          7           0       -7.008517    2.858063    0.442688
     17          6           0       -5.862076    3.443912    0.966115
     18          6           0       -6.175610    4.817455    0.986522
     19          6           0       -7.479807    5.002681    0.547725
     20          6           0       -7.970530    3.684871    0.132566
     21          6           0       -5.122766    5.889126    1.398195
     22          6           0       -8.131079    6.297571    0.354601
     23          6           0       -9.054248    6.761959   -0.544959
     24          7           0       -9.277194    0.886416   -0.467292
     25          6           0       -9.794696    2.141863   -0.535608
     26          6           0      -11.221987    1.929887   -0.925166
     27          6           0      -11.414999    0.542166   -1.032474
     28          6           0      -10.187618   -0.031806   -0.802284
     29          6           0      -12.163195    3.027919   -1.269231
     30          6           0      -12.682847   -0.207322   -1.549983
     31          6           0      -12.741734   -0.512589   -2.969011
     32          7           0       -7.438940   -1.265589   -0.162940
     33          6           0       -8.616520   -1.983308   -0.515955
     34          6           0       -8.210593   -3.371569   -0.624242
     35          6           0       -6.906171   -3.341694   -0.165169
     36          6           0       -6.341934   -2.039383    0.037692
     37          6           0       -9.098372   -4.441425   -0.903707
     38          6           0       -5.668914   -4.274559    0.144055
     39          8           0       -5.678019   -5.475322    0.109881
     40          6           0       -4.538259   -3.341693    0.467433
     41          6           0       -4.010499   -3.800429    1.858604
     42          8           0       -4.255614   -3.251927    2.910250
     43          8           0       -3.115601   -4.831450    1.737550
     44          6           0       -2.578299   -5.485840    2.853196
     45          6           0        2.752920   -1.462844   -1.282979
     46          6           0        3.975204   -0.970905   -0.712444
     47          6           0        4.938714   -0.276456   -1.256259
     48          6           0        4.944528    0.265986   -2.778899
     49          6           0        6.151437    0.139734   -0.419265
     50          6           0        7.429425   -0.529896   -1.013133
     51          6           0        8.800149   -0.234040   -0.259603
     52          6           0       10.093368   -0.818549   -0.792269
     53          6           0       10.040565   -2.337673   -0.941646
     54          6           0       11.178725   -0.286710   -0.076677
     55          6           0       12.578868   -0.575957   -0.598727
     56          6           0       13.746360    0.103990    0.208560
     57          6           0       15.178166   -0.151493   -0.432674
     58          6           0       15.603964   -1.685402   -0.370925
     59          6           0       16.272797    0.736906    0.370637
     60          6           0       17.600257    0.880224   -0.118799
     61          6           0       18.622082    1.789272    0.728953
     62          6           0       20.099185    1.725210    0.341406
     63          6           0       20.216385    2.298713   -1.098175
     64          6           0       20.943546    2.530692    1.286344
     65          1           0       -3.944778    3.567450    1.864790
     66          1           0       -9.990694    4.346499   -0.138047
     67          1           0      -10.726654   -2.071030   -0.906733
     68          1           0       -2.712816   -1.079355    1.995973
     69          1           0       -2.298697    1.667663    1.503431
     70          1           0       -1.984121    0.879922    4.004724
     71          1           0       -3.181981    2.064629    3.730816
     72          1           0       -3.725439    0.441576    3.744144
     73          1           0       -2.394430   -1.760352   -0.492589
     74          1           0       -2.088979    0.072947   -0.821469
     75          1           0       -0.442164    0.015499    0.850977
     76          1           0       -0.212278   -1.777828    1.098417
     77          1           0       -4.254220    5.887770    0.711219
     78          1           0       -5.326950    7.063051    1.459103
     79          1           0       -4.654938    5.627756    2.326328
     80          1           0       -7.964233    7.233660    1.002234
     81          1           0       -9.466096    6.140400   -1.339573
     82          1           0       -9.440438    7.739119   -0.420714
     83          1           0      -12.256758    3.491152   -0.401225
     84          1           0      -11.785410    3.768315   -1.910284
     85          1           0      -13.011042    2.621548   -1.699847
     86          1           0      -12.728343   -1.234098   -1.087778
     87          1           0      -13.803084    0.097501   -1.157059
     88          1           0      -12.763935    0.498730   -3.359405
     89          1           0      -11.964674   -1.062618   -3.575595
     90          1           0      -13.870537   -0.870937   -3.466646
     91          1           0       -9.821281   -4.547940    0.054421
     92          1           0       -9.584626   -4.474926   -1.922820
     93          1           0       -8.330065   -5.338522   -0.722321
     94          1           0       -3.752548   -3.601370   -0.266109
     95          1           0       -1.907944   -6.449734    2.487384
     96          1           0       -2.000815   -4.659164    3.432333
     97          1           0       -3.428248   -5.694391    3.597091
     98          1           0        2.555370   -2.576449   -1.211633
     99          1           0        2.556046   -0.997843   -2.265607
    100          1           0        4.061058   -1.279152    0.461510
    101          1           0        5.115685    1.234103   -2.559663
    102          1           0        5.686105   -0.427304   -3.371278
    103          1           0        3.897124    0.046793   -3.364887
    104          1           0        6.527339    1.083922   -0.506135
    105          1           0        6.064334    0.006475    0.696219
    106          1           0        7.338106   -1.681101   -1.420259
    107          1           0        7.555205   -0.065359   -2.005739
    108          1           0        8.984443    0.876529   -0.265957
    109          1           0        8.657885   -0.527426    0.752874
    110          1           0       10.125659   -0.551839   -1.661388
    111          1           0        9.387933   -2.781347   -1.722197
    112          1           0       11.179373   -2.714344   -1.215658
    113          1           0        9.666911   -2.650594    0.205109
    114          1           0       11.132511    0.765016    0.070304
    115          1           0       11.110196   -0.711744    1.036079
    116          1           0       12.651513   -1.599540   -0.920198
    117          1           0       12.670949    0.045304   -1.432693
    118          1           0       13.738912    1.270576    0.377394
    119          1           0       13.737293   -0.312310    1.135546
    120          1           0       15.259435    0.106054   -1.431244
    121          1           0       14.931824   -2.191914   -0.942096
    122          1           0       16.537498   -1.778222   -0.858881
    123          1           0       15.820910   -2.191193    0.639872
    124          1           0       15.920021    1.816698    0.434567
    125          1           0       16.018777    0.331736    1.452950
    126          1           0       18.185311   -0.004640   -0.151845
    127          1           0       17.619754    1.190309   -1.274498
    128          1           0       18.314923    2.782728    0.504133
    129          1           0       18.712162    1.509901    1.797196
    130          1           0       20.290221    0.663851    0.119473
    131          1           0       19.977561    3.275382   -1.129268
    132          1           0       21.116156    2.286214   -1.655965
    133          1           0       19.382152    1.730229   -1.857904
    134          1           0       21.234988    2.245475    2.234451
    135          1           0       21.942023    2.842550    0.945422
    136          1           0       20.495078    3.546461    1.360467
    137          1           0       -7.088687    1.757318    0.395931
    138          1           0       -7.718833   -0.051574   -0.327028
 ---------------------------------------------------------------------

 SCF Done:  E(RB3LYP) =  -2732.95857117     A.U. after   17 cycles

 Excitation energies and oscillator strengths:

 Excited State   1:      Singlet-A      2.0827 eV  595.30 nm  f=0.1486  <S**2>=0.000
     235 -> 237       -0.18148
     235 -> 238        0.27150
     236 -> 237        0.59443
     236 -> 238        0.18623
 This state for optimization and/or second-order correction.
 Total Energy, E(TD-HF/TD-KS) =  -2732.88203246
 Copying the excited state density for this state as the 1-particle RhoCI density.

 The electronic state is 1-A.
 Alpha  occ. eigenvalues --  -19.18256 -19.17674 -19.13214 -19.12640 -19.09971
 Alpha  occ. eigenvalues --  -14.37149 -14.35472 -14.33094 -14.29878 -10.32584
 Alpha  occ. eigenvalues --  -10.30410 -10.28182 -10.26527 -10.26226 -10.23964
 Alpha  occ. eigenvalues --  -10.23516 -10.23315 -10.23170 -10.22785 -10.22613
 Alpha  occ. eigenvalues --  -10.22136 -10.21904 -10.21842 -10.21217 -10.20954
 Alpha  occ. eigenvalues --  -10.20720 -10.20696 -10.20648 -10.20629 -10.20562
 Alpha  occ. eigenvalues --  -10.20550 -10.20533 -10.20513 -10.20501 -10.20366
 Alpha  occ. eigenvalues --  -10.20351 -10.20326 -10.20303 -10.20298 -10.20274
 Alpha  occ. eigenvalues --  -10.20202 -10.20181 -10.20010 -10.19858 -10.19432
 Alpha  occ. eigenvalues --  -10.19234 -10.19208 -10.19096 -10.18858 -10.18798
 Alpha  occ. eigenvalues --  -10.18766 -10.18691 -10.18655 -10.18526 -10.18471
 Alpha  occ. eigenvalues --  -10.18019 -10.17890 -10.17826 -10.17664 -10.17585
 Alpha  occ. eigenvalues --  -10.17399 -10.17111 -10.16492 -10.16308  -1.09780
 Alpha  occ. eigenvalues --   -1.09317  -1.03684  -1.01191  -0.99335  -0.97806
 Alpha  occ. eigenvalues --   -0.96097  -0.94028  -0.93663  -0.84840  -0.84393
 Alpha  occ. eigenvalues --   -0.83172  -0.81569  -0.81463  -0.80767  -0.80630
 Alpha  occ. eigenvalues --   -0.79956  -0.79662  -0.79151  -0.78828  -0.78393
 Alpha  occ. eigenvalues --   -0.77534  -0.76175  -0.75825  -0.75384  -0.74862
 Alpha  occ. eigenvalues --   -0.73739  -0.73624  -0.72852  -0.72135  -0.70317
 Alpha  occ. eigenvalues --   -0.69994  -0.69700  -0.68433  -0.68401  -0.68303
 Alpha  occ. eigenvalues --   -0.67630  -0.67429  -0.66924  -0.66558  -0.65109
 Alpha  occ. eigenvalues --   -0.64736  -0.63189  -0.62494  -0.61478  -0.60289
 Alpha  occ. eigenvalues --   -0.59527  -0.59387  -0.59158  -0.58017  -0.57622
 Alpha  occ. eigenvalues --   -0.57527  -0.57318  -0.56039  -0.55927  -0.55838
 Alpha  occ. eigenvalues --   -0.55720  -0.55461  -0.53583  -0.53509  -0.52959
 Alpha  occ. eigenvalues --   -0.52580  -0.52004  -0.51554  -0.51221  -0.50888
 Alpha  occ. eigenvalues --   -0.50213  -0.49628  -0.49124  -0.48528  -0.48076
 Alpha  occ. eigenvalues --   -0.47965  -0.47727  -0.47492  -0.47274  -0.47235
 Alpha  occ. eigenvalues --   -0.46975  -0.46803  -0.46367  -0.46002  -0.45925
 Alpha  occ. eigenvalues --   -0.45700  -0.45294  -0.45248  -0.44954  -0.44712
 Alpha  occ. eigenvalues --   -0.44544  -0.44426  -0.44262  -0.43911  -0.43797
 Alpha  occ. eigenvalues --   -0.43621  -0.43422  -0.43187  -0.42900  -0.42714
 Alpha  occ. eigenvalues --   -0.42527  -0.42243  -0.41813  -0.41719  -0.41339
 Alpha  occ. eigenvalues --   -0.41073  -0.41006  -0.40645  -0.40512  -0.40308
 Alpha  occ. eigenvalues --   -0.40216  -0.40055  -0.39962  -0.39751  -0.39303
 Alpha  occ. eigenvalues --   -0.39065  -0.38859  -0.38528  -0.38460  -0.38356
 Alpha  occ. eigenvalues --   -0.38207  -0.38077  -0.38014  -0.37845  -0.37605
 Alpha  occ. eigenvalues --   -0.37443  -0.37259  -0.37235  -0.37090  -0.36991
 Alpha  occ. eigenvalues --   -0.36558  -0.36379  -0.36283  -0.36182  -0.36056
 Alpha  occ. eigenvalues --   -0.35661  -0.35520  -0.35193  -0.34805  -0.34659
 Alpha  occ. eigenvalues --   -0.34594  -0.34412  -0.34066  -0.34022  -0.33416
 Alpha  occ. eigenvalues --   -0.33238  -0.33004  -0.32901  -0.32452  -0.32300
 Alpha  occ. eigenvalues --   -0.31915  -0.31783  -0.31529  -0.31392  -0.31293
 Alpha  occ. eigenvalues --   -0.30728  -0.30576  -0.30100  -0.30030  -0.29805
 Alpha  occ. eigenvalues --   -0.29750  -0.29533  -0.28921  -0.28860  -0.28266
 Alpha  occ. eigenvalues --   -0.28069  -0.27115  -0.26830  -0.25706  -0.24963
 Alpha  occ. eigenvalues --   -0.24890  -0.24516  -0.23837  -0.22187  -0.20443
 Alpha  occ. eigenvalues --   -0.18467
 Alpha virt. eigenvalues --   -0.09731  -0.08377  -0.04033  -0.01739  -0.00838
 Alpha virt. eigenvalues --   -0.00314   0.00756   0.00965   0.02263   0.03515
 Alpha virt. eigenvalues --    0.04198   0.04430   0.04507   0.04732   0.04907

 Mulliken charges:
               1
     1  C    0.140342
     2  C   -0.098469
     3  C   -0.148832
     4  C   -0.050366
     5  N   -0.171986
     6  C   -0.124530
     7  C    0.083375
     8  C    0.051933
     9  C   -0.042945
    10  C    0.014734
    11  C    0.082454
    12  C   -0.018860
    13  C    0.163637
    14  O   -0.309359
    15  O   -0.292933
    16  N   -0.072487
    17  C    0.118897
    18  C   -0.080192
    19  C    0.046620
    20  C    0.068165
    21  C    0.062409
    22  C   -0.096402
    23  C   -0.047839
    24  N   -0.254472
    25  C    0.096514
    26  C   -0.214270
    27  C   -0.048329
    28  C   -0.001384
    29  C    0.248006
    30  C    0.021361
    31  C   -0.033268
    32  N   -0.199967
    33  C    0.108967
    34  C   -0.139228
    35  C   -0.032995
    36  C    0.091561
    37  C   -0.006362
    38  C    0.073603
    39  O   -0.147731
    40  C   -0.018448
    41  C    0.201020
    42  O   -0.214048
    43  O   -0.300856
    44  C    0.119252
    45  C    0.303227
    46  C   -0.130094
    47  C   -0.121392
    48  C    0.027114
    49  C    0.138967
    50  C   -0.082397
    51  C    0.024252
    52  C    0.127883
    53  C   -0.067462
    54  C    0.026282
    55  C    0.084760
    56  C    0.047265
    57  C   -0.066126
    58  C    0.065798
    59  C   -0.004073
    60  C    0.036721
    61  C    0.031144
    62  C   -0.057408
    63  C    0.006736
    64  C    0.083315
    65  H   -0.008555
    66  H    0.034556
    67  H    0.009577
    68  H   -0.073691
    69  H   -0.041487
    70  H    0.015739
    71  H    0.003973
    72  H    0.019458
    73  H    0.015410
    74  H    0.038020
    75  H    0.005422
    76  H    0.045012
    77  H    0.019039
    78  H    0.037685
    79  H    0.013909
    80  H    0.017681
    81  H    0.017056
    82  H    0.014083
    83  H   -0.018429
    84  H   -0.007716
    85  H   -0.008934
    86  H   -0.010157
    87  H    0.027424
    88  H   -0.009581
    89  H    0.033365
    90  H    0.012734
    91  H    0.060418
    92  H    0.056288
    93  H    0.056888
    94  H    0.068704
    95  H    0.079269
    96  H    0.029206
    97  H    0.040854
    98  H    0.037903
    99  H    0.024925
   100  H    0.021173
   101  H    0.023365
   102  H    0.067038
   103  H    0.040429
   104  H   -0.031760
   105  H    0.011998
   106  H    0.014903
   107  H   -0.006428
   108  H   -0.007857
   109  H   -0.018225
   110  H   -0.124657
   111  H    0.030601
   112  H    0.024841
   113  H    0.022704
   114  H   -0.028641
   115  H   -0.019671
   116  H   -0.002913
   117  H   -0.032747
   118  H    0.011528
   119  H   -0.032104
   120  H   -0.034931
   121  H   -0.020435
   122  H   -0.015101
   123  H    0.016105
   124  H   -0.009745
   125  H    0.004693
   126  H   -0.029267
   127  H    0.013665
   128  H   -0.014893
   129  H    0.007903
   130  H   -0.005048
   131  H   -0.033465
   132  H   -0.006328
   133  H    0.009382
   134  H   -0.009670
   135  H   -0.012087
   136  H   -0.004655
   137  H    0.187899
   138  H    0.235551
 Sum of Mulliken charges =   0.00000

 Dipole moment (field-independent basis, Debye):
    X=              6.0756    Y=              4.3425    Z=              0.4019  Tot=              7.4788
 Quadrupole moment (field-independent basis, Debye-Ang):
   XX=           -359.6052   YY=           -382.5747   ZZ=           -395.0483
   XY=            -14.9535   XZ=             -0.9029   YZ=             -0.3667

 Normal termination of Gaussian 09 at Fri Jul 26 20:26:34 2019.
