 Gaussian 09, Revision D.01,
 Gaussian 09:  ES64L-G09RevD.01 24-Apr-2013

 --------------------------
 # td=(NStates=1) B3LYP/SVP
 --------------------------

 --
 TD
 --
 Symbolic Z-matrix:
 Charge =  0 Multiplicity = 1

                         Standard orientation:
 ---------------------------------------------------------------------
 Center     Atomic      Atomic             Coordinates (Angstroms)
 Number     Number       Type             X           Y           Z
 ---------------------------------------------------------------------
      1          6           0       -5.032763   -1.876532    0.368529
      2          6           0       -4.847661    2.896578    1.189623
      3          6           0       -9.393967    3.250471   -0.235076
      4          6           0       -9.804868   -1.526580   -0.829632
      5          7           0       -5.165138    0.455949    0.778229
      6          6           0       -4.396467   -0.681002    0.701805
      7          6           0       -3.012525   -0.459952    1.170189
      8          6           0       -3.105168    1.007040    1.796306
      9          6           0       -4.377840    1.442412    1.189392
     10          6           0       -3.110439    1.043282    3.312881
     11          6           0       -2.034272   -0.682787    0.116420
     12          6           0       -0.505080   -0.423750    0.574154
     13          6           0        0.387044   -0.801957   -0.633907
     14          8           0        0.066276   -1.370157   -1.708653
     15          8           0        1.637833   -0.555739   -0.417353
     16          7           0       -7.149803    2.748494    0.330161
     17          6           0       -6.057850    3.439022    0.841313
     18          6           0       -6.378532    4.782446    1.088156
     19          6           0       -7.758394    5.012766    0.544808
     20          6           0       -8.218934    3.685282    0.222211
     21          6           0       -5.488328    5.835731    1.570241
     22          6           0       -8.447656    6.243068    0.260517
     23          6           0       -9.240437    6.508667   -0.734710
     24          7           0       -9.209031    0.867974   -0.417382
     25          6           0       -9.917377    1.975409   -0.586729
     26          6           0      -11.307743    1.691004   -0.853730
     27          6           0      -11.464289    0.428207   -1.026679
     28          6           0      -10.080070   -0.114462   -0.881540
     29          6           0      -12.441512    2.825066   -1.090764
     30          6           0      -12.547478   -0.516381   -1.461548
     31          6           0      -12.656147   -0.811988   -3.018445
     32          7           0       -7.413925   -1.335925   -0.204084
     33          6           0       -8.511995   -2.099135   -0.534224
     34          6           0       -8.145387   -3.499484   -0.620427
     35          6           0       -6.768907   -3.504027   -0.212608
     36          6           0       -6.368423   -2.065222    0.006713
     37          6           0       -8.938804   -4.566611   -0.928506
     38          6           0       -5.669892   -4.285452    0.116540
     39          8           0       -5.561088   -5.486278   -0.053296
     40          6           0       -4.394842   -3.450326    0.472066
     41          6           0       -3.910995   -3.812180    1.834483
     42          8           0       -4.039910   -3.201759    2.864453
     43          8           0       -3.224407   -4.993680    1.736655
     44          6           0       -2.620460   -5.547574    2.895091
     45          6           0        2.691632   -0.879512   -1.417452
     46          6           0        4.064370   -0.684944   -0.722963
     47          6           0        5.024322    0.312461   -1.079263
     48          6           0        5.003708    1.000690   -2.465778
     49          6           0        6.277187    0.430369   -0.315190
     50          6           0        7.402674   -0.331048   -0.861048
     51          6           0        8.778546   -0.234410   -0.127897
     52          6           0       10.071235   -0.713138   -0.774777
     53          6           0       10.040407   -2.264288   -1.116727
     54          6           0       11.400100   -0.233405   -0.082129
     55          6           0       12.668189   -0.615360   -0.793697
     56          6           0       13.844138   -0.044464   -0.027171
     57          6           0       15.334959   -0.279247   -0.579167
     58          6           0       15.643063   -1.761069   -0.607622
     59          6           0       16.292669    0.561901    0.353886
     60          6           0       17.695731    0.640590   -0.132788
     61          6           0       18.673098    1.572086    0.819642
     62          6           0       20.189649    1.593707    0.397895
     63          6           0       20.525349    2.054493   -1.014652
     64          6           0       20.947452    2.380386    1.497842
     65          1           0       -4.130265    3.738820    1.646065
     66          1           0      -10.249605    3.956737   -0.268186
     67          1           0      -10.676808   -2.117851   -1.163649
     68          1           0       -2.803655   -1.180838    1.907238
     69          1           0       -2.156814    1.642929    1.683728
     70          1           0       -2.226232    0.529304    3.745419
     71          1           0       -3.244666    2.124185    3.628811
     72          1           0       -4.050350    0.687366    3.532118
     73          1           0       -2.041666   -1.502927   -0.354100
     74          1           0       -2.138218    0.304617   -0.553251
     75          1           0       -0.356619    0.561340    1.056467
     76          1           0       -0.479542   -1.182756    1.174883
     77          1           0       -4.771248    6.017388    0.647636
     78          1           0       -6.032566    6.753589    1.617076
     79          1           0       -4.802920    5.630106    2.607301
     80          1           0       -8.463545    7.058063    1.070596
     81          1           0       -9.366242    5.900887   -1.447594
     82          1           0       -9.689570    7.513407   -0.916646
     83          1           0      -12.808838    3.280467   -0.129660
     84          1           0      -12.125214    3.558051   -1.683274
     85          1           0      -13.236664    2.221381   -1.516235
     86          1           0      -12.548439   -1.508271   -0.788975
     87          1           0      -13.550180   -0.267493   -1.002879
     88          1           0      -12.386165    0.027285   -3.608288
     89          1           0      -11.797262   -1.546594   -3.229491
     90          1           0      -13.566251   -1.256105   -3.298266
     91          1           0      -10.250373   -4.137523   -0.863176
     92          1           0       -8.843173   -4.882615   -2.223218
     93          1           0       -8.555688   -5.535103   -0.401760
     94          1           0       -3.528790   -3.580971   -0.187369
     95          1           0       -2.072176   -6.655584    2.636124
     96          1           0       -1.876288   -5.027829    3.587599
     97          1           0       -3.379375   -5.845854    3.557255
     98          1           0        2.513053   -1.770770   -1.954637
     99          1           0        2.726244   -0.009427   -2.254392
    100          1           0        4.164551   -1.190673    0.170039
    101          1           0        5.438599    2.064768   -2.527148
    102          1           0        5.771345    0.432498   -3.210245
    103          1           0        4.125307    0.879120   -2.850933
    104          1           0        6.475704    1.493268   -0.199107
    105          1           0        6.239714    0.055539    0.747795
    106          1           0        7.139444   -1.428603   -0.945697
    107          1           0        7.459378   -0.022141   -1.877823
    108          1           0        8.915307    0.868043    0.279463
    109          1           0        8.823225   -0.648075    0.824756
    110          1           0       10.031219   -0.492618   -1.728567
    111          1           0        9.152753   -2.420177   -1.642379
    112          1           0       10.764689   -2.791791   -2.003647
    113          1           0       10.206281   -2.828736   -0.208943
    114          1           0       11.201104    0.826607    0.076427
    115          1           0       11.493065   -0.572191    0.958612
    116          1           0       12.684090   -1.680902   -1.010301
    117          1           0       12.908508   -0.229949   -1.841177
    118          1           0       13.649471    0.989938    0.097121
    119          1           0       13.775676   -0.326625    1.071250
    120          1           0       15.219346    0.222062   -1.564976
    121          1           0       14.898743   -2.425690   -1.331275
    122          1           0       16.699390   -2.146314   -0.772057
    123          1           0       15.510301   -2.245323    0.301022
    124          1           0       15.810358    1.535537    0.616034
    125          1           0       16.072627    0.094314    1.422467
    126          1           0       18.068823   -0.381501   -0.241238
    127          1           0       17.682857    1.059430   -1.227833
    128          1           0       18.343579    2.692937    0.710724
    129          1           0       18.379967    1.224705    1.873429
    130          1           0       20.288490    0.539611    0.332993
    131          1           0       20.440858    3.137288   -1.189636
    132          1           0       21.604095    2.080844   -1.043619
    133          1           0       20.122984    1.428147   -1.875919
    134          1           0       20.973502    1.918022    2.579640
    135          1           0       22.025195    2.637652    0.995305
    136          1           0       20.485973    3.404183    1.583222
    137          1           0       -6.963383    1.835260    0.024768
    138          1           0       -7.581469   -0.461466    0.148144
 ---------------------------------------------------------------------

 SCF Done:  E(RB3LYP) =  -2732.98566495     A.U. after   17 cycles

 Excitation energies and oscillator strengths:

 Excited State   1:      Singlet-A      2.0349 eV  609.30 nm  f=0.1440  <S**2>=0.000
     235 -> 238        0.31869
     236 -> 237        0.61404
 This state for optimization and/or second-order correction.
 Total Energy, E(TD-HF/TD-KS) =  -2732.91088505
 Copying the excited state density for this state as the 1-particle RhoCI density.

 The electronic state is 1-A.
 Alpha  occ. eigenvalues --  -19.18033 -19.17627 -19.12640 -19.10924 -19.10275
 Alpha  occ. eigenvalues --  -14.37378 -14.35509 -14.32705 -14.29837 -10.31676
 Alpha  occ. eigenvalues --  -10.31478 -10.26283 -10.26270 -10.25283 -10.24177
 Alpha  occ. eigenvalues --  -10.23755 -10.23716 -10.23711 -10.23256 -10.22992
 Alpha  occ. eigenvalues --  -10.22943 -10.21958 -10.21850 -10.21763 -10.21747
 Alpha  occ. eigenvalues --  -10.21564 -10.21323 -10.21102 -10.20965 -10.20949
 Alpha  occ. eigenvalues --  -10.20943 -10.20838 -10.20828 -10.20800 -10.20493
 Alpha  occ. eigenvalues --  -10.20345 -10.20098 -10.19933 -10.19916 -10.19618
 Alpha  occ. eigenvalues --  -10.19557 -10.19281 -10.19036 -10.18990 -10.18986
 Alpha  occ. eigenvalues --  -10.18963 -10.18899 -10.18885 -10.18875 -10.18860
 Alpha  occ. eigenvalues --  -10.18817 -10.18662 -10.18634 -10.18627 -10.18504
 Alpha  occ. eigenvalues --  -10.18489 -10.18377 -10.18311 -10.18271 -10.18149
 Alpha  occ. eigenvalues --  -10.18064 -10.18035 -10.18018 -10.17614  -1.09737
 Alpha  occ. eigenvalues --   -1.09013  -1.01453  -1.00805  -1.00313  -0.97301
 Alpha  occ. eigenvalues --   -0.96636  -0.95458  -0.94118  -0.83323  -0.83199
 Alpha  occ. eigenvalues --   -0.82352  -0.82114  -0.82030  -0.81443  -0.80963
 Alpha  occ. eigenvalues --   -0.80209  -0.79461  -0.79200  -0.78626  -0.77847
 Alpha  occ. eigenvalues --   -0.77451  -0.76664  -0.75999  -0.75291  -0.74567
 Alpha  occ. eigenvalues --   -0.73440  -0.72960  -0.72655  -0.71985  -0.71108
 Alpha  occ. eigenvalues --   -0.70784  -0.69309  -0.68655  -0.68480  -0.67830
 Alpha  occ. eigenvalues --   -0.67316  -0.66971  -0.65984  -0.65627  -0.65256
 Alpha  occ. eigenvalues --   -0.64394  -0.63983  -0.63329  -0.62819  -0.62225
 Alpha  occ. eigenvalues --   -0.61538  -0.59814  -0.58251  -0.57549  -0.57260
 Alpha  occ. eigenvalues --   -0.57117  -0.57031  -0.56512  -0.56148  -0.55713
 Alpha  occ. eigenvalues --   -0.55415  -0.55122  -0.55078  -0.54482  -0.53747
 Alpha  occ. eigenvalues --   -0.52864  -0.52141  -0.51527  -0.51405  -0.50696
 Alpha  occ. eigenvalues --   -0.50166  -0.49744  -0.49504  -0.49376  -0.48524
 Alpha  occ. eigenvalues --   -0.48023  -0.47570  -0.47223  -0.47134  -0.46925
 Alpha  occ. eigenvalues --   -0.46630  -0.46299  -0.46137  -0.45782  -0.45662
 Alpha  occ. eigenvalues --   -0.45528  -0.45303  -0.44786  -0.44516  -0.44479
 Alpha  occ. eigenvalues --   -0.44394  -0.44297  -0.44140  -0.43831  -0.43474
 Alpha  occ. eigenvalues --   -0.43323  -0.43110  -0.42985  -0.42745  -0.42338
 Alpha  occ. eigenvalues --   -0.42105  -0.41961  -0.41743  -0.41638  -0.41244
 Alpha  occ. eigenvalues --   -0.41180  -0.40975  -0.40915  -0.40777  -0.40658
 Alpha  occ. eigenvalues --   -0.40121  -0.39898  -0.39663  -0.39584  -0.39327
 Alpha  occ. eigenvalues --   -0.39103  -0.38974  -0.38848  -0.38700  -0.38583
 Alpha  occ. eigenvalues --   -0.38475  -0.38110  -0.37868  -0.37833  -0.37551
 Alpha  occ. eigenvalues --   -0.37518  -0.37457  -0.37228  -0.36937  -0.36688
 Alpha  occ. eigenvalues --   -0.36486  -0.36287  -0.36203  -0.35960  -0.35709
 Alpha  occ. eigenvalues --   -0.35585  -0.35534  -0.35141  -0.34906  -0.34564
 Alpha  occ. eigenvalues --   -0.34516  -0.34434  -0.34194  -0.34145  -0.33840
 Alpha  occ. eigenvalues --   -0.33672  -0.33419  -0.32912  -0.32571  -0.32515
 Alpha  occ. eigenvalues --   -0.32052  -0.31864  -0.31351  -0.31174  -0.31115
 Alpha  occ. eigenvalues --   -0.30561  -0.30535  -0.30204  -0.30103  -0.30101
 Alpha  occ. eigenvalues --   -0.29473  -0.28805  -0.28461  -0.27972  -0.27892
 Alpha  occ. eigenvalues --   -0.27766  -0.27101  -0.26941  -0.26126  -0.25171
 Alpha  occ. eigenvalues --   -0.24498  -0.24077  -0.23735  -0.23635  -0.19514
 Alpha  occ. eigenvalues --   -0.18857
 Alpha virt. eigenvalues --   -0.10152  -0.07817  -0.05133  -0.02682  -0.01779
 Alpha virt. eigenvalues --   -0.00238   0.00148   0.00562   0.01906   0.02192
 Alpha virt. eigenvalues --    0.03500   0.03848   0.04102   0.04438   0.04785

 Mulliken charges:
               1
     1  C    0.007550
     2  C   -0.108560
     3  C   -0.115330
     4  C   -0.078332
     5  N   -0.165892
     6  C   -0.084732
     7  C    0.080598
     8  C   -0.113080
     9  C    0.009594
    10  C    0.114091
    11  C    0.064611
    12  C    0.120733
    13  C    0.163892
    14  O   -0.297217
    15  O   -0.278870
    16  N   -0.079837
    17  C    0.102212
    18  C   -0.131694
    19  C    0.079635
    20  C    0.177917
    21  C    0.033703
    22  C   -0.083400
    23  C    0.040461
    24  N   -0.221186
    25  C    0.015179
    26  C   -0.156089
    27  C   -0.053156
    28  C    0.015440
    29  C    0.149494
    30  C   -0.035092
    31  C    0.069957
    32  N    0.117278
    33  C    0.058369
    34  C    0.001513
    35  C    0.071915
    36  C    0.000862
    37  C   -0.135178
    38  C   -0.011724
    39  O   -0.193910
    40  C   -0.026318
    41  C    0.203752
    42  O   -0.213665
    43  O   -0.297601
    44  C    0.149925
    45  C    0.251145
    46  C   -0.060152
    47  C   -0.143586
    48  C    0.093997
    49  C    0.089276
    50  C    0.055672
    51  C    0.041276
    52  C    0.032634
    53  C   -0.039541
    54  C    0.045452
    55  C    0.080009
    56  C   -0.031398
    57  C   -0.016732
    58  C    0.025521
    59  C   -0.029378
    60  C    0.050847
    61  C   -0.037602
    62  C   -0.040448
    63  C    0.029433
    64  C   -0.017759
    65  H    0.003235
    66  H   -0.028087
    67  H   -0.003785
    68  H   -0.025222
    69  H    0.004342
    70  H    0.034945
    71  H    0.006197
    72  H   -0.009253
    73  H   -0.050742
    74  H    0.015936
    75  H    0.043277
    76  H   -0.032106
    77  H    0.048038
    78  H    0.004848
    79  H    0.064861
    80  H    0.025177
    81  H   -0.051874
    82  H    0.029560
    83  H    0.021975
    84  H   -0.010897
    85  H    0.009190
    86  H    0.015048
    87  H   -0.002471
    88  H    0.011655
    89  H    0.010081
    90  H    0.014109
    91  H    0.053106
    92  H    0.066303
    93  H    0.078165
    94  H    0.063968
    95  H    0.045716
    96  H    0.037358
    97  H    0.009344
    98  H    0.037732
    99  H    0.037799
   100  H   -0.024255
   101  H    0.034101
   102  H    0.044140
   103  H   -0.056312
   104  H   -0.005842
   105  H   -0.005517
   106  H    0.007519
   107  H   -0.031137
   108  H   -0.014744
   109  H   -0.036711
   110  H   -0.062936
   111  H   -0.006249
   112  H    0.019886
   113  H    0.009965
   114  H   -0.015375
   115  H   -0.012007
   116  H   -0.007102
   117  H   -0.013508
   118  H   -0.029458
   119  H   -0.025603
   120  H   -0.003618
   121  H    0.023020
   122  H    0.011817
   123  H   -0.020488
   124  H   -0.013153
   125  H   -0.009142
   126  H   -0.006104
   127  H    0.009089
   128  H    0.001495
   129  H    0.016040
   130  H   -0.018297
   131  H   -0.009007
   132  H   -0.009146
   133  H    0.035100
   134  H    0.041007
   135  H    0.015744
   136  H    0.014291
   137  H    0.117881
   138  H    0.110606
 Sum of Mulliken charges =   0.00000

 Dipole moment (field-independent basis, Debye):
    X=              2.1222    Y=              5.3186    Z=              0.7386  Tot=              5.7738
 Quadrupole moment (field-independent basis, Debye-Ang):
   XX=           -343.9090   YY=           -384.5216   ZZ=           -392.1829
   XY=            -25.6702   XZ=              8.9496   YZ=             -3.9985

 Normal termination of Gaussian 09 at Wed Jul 24 20:27:21 2019.
