 Gaussian 09, Revision D.01,
 Gaussian 09:  ES64L-G09RevD.01 24-Apr-2013

 --------------------------
 # td=(NStates=1) B3LYP/SVP
 --------------------------

 --
 TD
 --
 Symbolic Z-matrix:
 Charge =  0 Multiplicity = 1

                         Standard orientation:
 ---------------------------------------------------------------------
 Center     Atomic      Atomic             Coordinates (Angstroms)
 Number     Number       Type             X           Y           Z
 ---------------------------------------------------------------------
      1          6           0       -5.116042   -1.929157    0.413311
      2          6           0       -4.908158    2.714799    1.403073
      3          6           0       -9.485638    3.202437   -0.311226
      4          6           0       -9.956091   -1.562274   -0.848404
      5          7           0       -5.229136    0.436078    0.754938
      6          6           0       -4.487849   -0.670533    0.646934
      7          6           0       -3.058820   -0.454793    1.192040
      8          6           0       -3.192783    0.959534    1.851583
      9          6           0       -4.504183    1.412965    1.338231
     10          6           0       -3.142309    1.056607    3.370342
     11          6           0       -2.003284   -0.630325    0.072596
     12          6           0       -0.623782   -0.607607    0.562052
     13          6           0        0.411894   -0.887458   -0.458560
     14          8           0        0.172152   -1.421301   -1.571816
     15          8           0        1.650659   -0.512501   -0.110419
     16          7           0       -7.230419    2.760445    0.454358
     17          6           0       -6.134085    3.423317    1.006024
     18          6           0       -6.462903    4.854130    1.011892
     19          6           0       -7.762596    4.988943    0.406231
     20          6           0       -8.208185    3.601429    0.179334
     21          6           0       -5.577475    5.971318    1.334968
     22          6           0       -8.427098    6.244137    0.420753
     23          6           0       -9.350767    6.495377   -0.618657
     24          7           0       -9.251058    0.773638   -0.590467
     25          6           0      -10.031240    1.902487   -0.679050
     26          6           0      -11.411377    1.585326   -0.960940
     27          6           0      -11.569711    0.317513   -1.016291
     28          6           0      -10.194229   -0.286063   -0.824231
     29          6           0      -12.336856    2.725498   -1.043088
     30          6           0      -12.681318   -0.579364   -1.437879
     31          6           0      -12.650554   -0.822158   -2.958677
     32          7           0       -7.519478   -1.362934   -0.135436
     33          6           0       -8.651809   -2.113903   -0.502717
     34          6           0       -8.175374   -3.434365   -0.636382
     35          6           0       -6.815774   -3.414259   -0.217526
     36          6           0       -6.456858   -2.139690   -0.065624
     37          6           0       -8.922816   -4.721846   -0.966788
     38          6           0       -5.577106   -4.298938   -0.113333
     39          8           0       -5.414454   -5.428902   -0.183525
     40          6           0       -4.442245   -3.278578    0.312287
     41          6           0       -3.785551   -3.814628    1.632250
     42          8           0       -4.083809   -3.417801    2.697726
     43          8           0       -2.855361   -4.744206    1.337096
     44          6           0       -2.315140   -5.367338    2.576272
     45          6           0        2.736657   -0.784897   -1.027490
     46          6           0        4.047418   -0.395060   -0.314321
     47          6           0        4.963431    0.253106   -1.062742
     48          6           0        4.960632    0.846866   -2.430100
     49          6           0        6.285433    0.477657   -0.330691
     50          6           0        7.604175   -0.244565   -0.929088
     51          6           0        8.846613    0.197237   -0.087225
     52          6           0       10.181243   -0.489013   -0.697201
     53          6           0        9.931852   -2.132877   -0.470319
     54          6           0       11.398514   -0.001973   -0.002824
     55          6           0       12.789548   -0.549058   -0.491279
     56          6           0       13.893909    0.107737    0.185323
     57          6           0       15.362332   -0.167246   -0.306405
     58          6           0       15.636194   -1.735630   -0.253509
     59          6           0       16.331417    0.547246    0.539405
     60          6           0       17.815526    0.567096   -0.218524
     61          6           0       18.798956    1.439620    0.543547
     62          6           0       20.236526    1.374709   -0.004578
     63          6           0       20.422792    1.914335   -1.486499
     64          6           0       21.335586    2.093669    0.889571
     65          1           0       -4.026362    3.365835    1.649268
     66          1           0      -10.247392    3.939141   -0.752791
     67          1           0      -10.914830   -2.359743   -0.876380
     68          1           0       -2.715748   -1.194196    1.917667
     69          1           0       -2.375051    1.681794    1.146248
     70          1           0       -2.403692    0.677059    4.002589
     71          1           0       -3.269025    2.214835    3.663681
     72          1           0       -4.095223    0.424893    3.669588
     73          1           0       -2.219239   -1.468460   -0.500760
     74          1           0       -2.004913    0.000706   -0.682891
     75          1           0       -0.516649    0.329786    0.995360
     76          1           0       -0.361045   -1.381317    1.421818
     77          1           0       -4.869770    6.287303    0.420734
     78          1           0       -6.169489    6.933017    1.451981
     79          1           0       -4.890497    5.825299    2.276658
     80          1           0       -8.085411    7.035400    1.030070
     81          1           0       -9.916009    5.738070   -1.298311
     82          1           0       -9.702515    7.568222   -0.871396
     83          1           0      -12.285307    3.124023   -0.059183
     84          1           0      -12.287070    3.484244   -1.849394
     85          1           0      -13.464965    2.561606   -1.336673
     86          1           0      -12.919269   -1.423060   -0.841431
     87          1           0      -13.676708   -0.013435   -1.224351
     88          1           0      -12.699050    0.168536   -3.519199
     89          1           0      -11.903124   -1.370561   -3.174301
     90          1           0      -13.642912   -1.374556   -3.304896
     91          1           0       -9.948161   -4.900919   -0.636032
     92          1           0       -9.122779   -4.914137   -2.098409
     93          1           0       -8.636169   -5.585562   -0.565109
     94          1           0       -3.646960   -3.385052   -0.623055
     95          1           0       -1.576840   -6.054522    2.069804
     96          1           0       -1.885516   -4.785008    3.181664
     97          1           0       -2.972508   -6.009223    3.212571
     98          1           0        2.571959   -1.978506   -1.404321
     99          1           0        2.538267   -0.067257   -1.944848
    100          1           0        4.468704   -0.850245    0.333334
    101          1           0        4.741381    2.091757   -2.369046
    102          1           0        5.777559    0.550827   -3.079590
    103          1           0        3.974368    0.661166   -2.992082
    104          1           0        6.570574    1.495845   -0.178867
    105          1           0        6.108529   -0.049593    0.763768
    106          1           0        7.397821   -1.298985   -0.866702
    107          1           0        7.453618    0.013411   -2.032897
    108          1           0        9.157805    1.150014   -0.177296
    109          1           0        8.726152   -0.142882    0.960700
    110          1           0       10.282647   -0.243134   -1.826985
    111          1           0        9.084896   -2.458034   -1.202444
    112          1           0       10.790774   -2.754838   -0.985481
    113          1           0        9.900570   -2.617723    0.648989
    114          1           0       11.775072    1.338184   -0.375500
    115          1           0       11.389022   -0.218710    1.204908
    116          1           0       12.729014   -1.744363   -0.372421
    117          1           0       12.711507   -0.468050   -1.609041
    118          1           0       13.618527    1.288322    0.085658
    119          1           0       13.685200   -0.050026    1.307545
    120          1           0       15.460010    0.132849   -1.290017
    121          1           0       15.033744   -2.332983   -1.029973
    122          1           0       16.686816   -2.078738   -0.227442
    123          1           0       15.241953   -1.994448    0.815688
    124          1           0       16.238793    1.759527    0.764894
    125          1           0       16.356060    0.190897    1.650447
    126          1           0       18.020792   -0.495766   -0.484721
    127          1           0       17.372293    0.822257   -1.112297
    128          1           0       18.418702    2.511804    0.417988
    129          1           0       18.823268    1.273927    1.567956
    130          1           0       20.440768    0.176596   -0.205125
    131          1           0       20.036276    2.893798   -1.407600
    132          1           0       21.553034    2.028357   -1.714211
    133          1           0       19.859252    1.348709   -2.274384
    134          1           0       21.321615    1.802285    1.867933
    135          1           0       22.204453    1.829693    0.328022
    136          1           0       20.922651    3.188505    0.816031
    137          1           0       -6.999620    1.753854    0.470918
    138          1           0       -7.561346   -0.220205   -0.167977
 ---------------------------------------------------------------------

 SCF Done:  E(RB3LYP) =  -2732.91716509     A.U. after   17 cycles

 Excitation energies and oscillator strengths:

 Excited State   1:      Singlet-A      2.0222 eV  613.11 nm  f=0.2725  <S**2>=0.000
     235 -> 237       -0.23589
     235 -> 238       -0.21278
     236 -> 237        0.61870
     236 -> 238       -0.13613
 This state for optimization and/or second-order correction.
 Total Energy, E(TD-HF/TD-KS) =  -2732.84284996
 Copying the excited state density for this state as the 1-particle RhoCI density.

 The electronic state is 1-A.
 Alpha  occ. eigenvalues --  -19.17910 -19.17412 -19.12447 -19.12109 -19.11306
 Alpha  occ. eigenvalues --  -14.37463 -14.36070 -14.32299 -14.30494 -10.31019
 Alpha  occ. eigenvalues --  -10.31003 -10.27161 -10.26646 -10.25064 -10.24668
 Alpha  occ. eigenvalues --  -10.23532 -10.22785 -10.22636 -10.22335 -10.21997
 Alpha  occ. eigenvalues --  -10.21996 -10.21818 -10.21672 -10.21629 -10.21423
 Alpha  occ. eigenvalues --  -10.21415 -10.21352 -10.21318 -10.21187 -10.21099
 Alpha  occ. eigenvalues --  -10.21037 -10.20973 -10.20799 -10.20723 -10.20437
 Alpha  occ. eigenvalues --  -10.20419 -10.20346 -10.20313 -10.20222 -10.20145
 Alpha  occ. eigenvalues --  -10.20012 -10.20009 -10.19790 -10.19630 -10.19567
 Alpha  occ. eigenvalues --  -10.19541 -10.19457 -10.19396 -10.19302 -10.19265
 Alpha  occ. eigenvalues --  -10.19201 -10.19005 -10.18858 -10.18413 -10.18294
 Alpha  occ. eigenvalues --  -10.18251 -10.18171 -10.18149 -10.18053 -10.17984
 Alpha  occ. eigenvalues --  -10.17899 -10.17612 -10.17123 -10.16923  -1.09453
 Alpha  occ. eigenvalues --   -1.08404  -1.06401  -1.01387  -0.99025  -0.97937
 Alpha  occ. eigenvalues --   -0.97901  -0.95095  -0.92485  -0.83564  -0.82903
 Alpha  occ. eigenvalues --   -0.82359  -0.82015  -0.81791  -0.80546  -0.80180
 Alpha  occ. eigenvalues --   -0.79950  -0.79562  -0.79059  -0.78484  -0.77592
 Alpha  occ. eigenvalues --   -0.76447  -0.75874  -0.75207  -0.74513  -0.74006
 Alpha  occ. eigenvalues --   -0.73327  -0.72689  -0.71978  -0.71149  -0.70357
 Alpha  occ. eigenvalues --   -0.70289  -0.69219  -0.68662  -0.68422  -0.67632
 Alpha  occ. eigenvalues --   -0.66953  -0.66162  -0.65847  -0.65555  -0.65234
 Alpha  occ. eigenvalues --   -0.63593  -0.63226  -0.62825  -0.61863  -0.61441
 Alpha  occ. eigenvalues --   -0.60939  -0.59243  -0.58132  -0.57839  -0.56981
 Alpha  occ. eigenvalues --   -0.56938  -0.56248  -0.55812  -0.55025  -0.54880
 Alpha  occ. eigenvalues --   -0.54438  -0.54138  -0.54006  -0.53593  -0.53081
 Alpha  occ. eigenvalues --   -0.52604  -0.52144  -0.51234  -0.50782  -0.49695
 Alpha  occ. eigenvalues --   -0.49493  -0.49419  -0.48583  -0.48240  -0.47883
 Alpha  occ. eigenvalues --   -0.47822  -0.47564  -0.47271  -0.47046  -0.46707
 Alpha  occ. eigenvalues --   -0.46523  -0.46503  -0.46200  -0.46080  -0.45630
 Alpha  occ. eigenvalues --   -0.45312  -0.45224  -0.44676  -0.44591  -0.44519
 Alpha  occ. eigenvalues --   -0.44280  -0.44212  -0.44106  -0.43733  -0.43701
 Alpha  occ. eigenvalues --   -0.43244  -0.43074  -0.42964  -0.42660  -0.42411
 Alpha  occ. eigenvalues --   -0.42126  -0.41844  -0.41733  -0.41606  -0.41143
 Alpha  occ. eigenvalues --   -0.41004  -0.40884  -0.40682  -0.40308  -0.40166
 Alpha  occ. eigenvalues --   -0.40002  -0.39823  -0.39445  -0.39404  -0.39165
 Alpha  occ. eigenvalues --   -0.38827  -0.38757  -0.38636  -0.38276  -0.38097
 Alpha  occ. eigenvalues --   -0.38033  -0.37948  -0.37805  -0.37725  -0.37628
 Alpha  occ. eigenvalues --   -0.37435  -0.37033  -0.36974  -0.36902  -0.36720
 Alpha  occ. eigenvalues --   -0.36589  -0.36361  -0.36070  -0.35749  -0.35469
 Alpha  occ. eigenvalues --   -0.35368  -0.35174  -0.34985  -0.34723  -0.34664
 Alpha  occ. eigenvalues --   -0.34334  -0.34253  -0.34042  -0.33984  -0.33912
 Alpha  occ. eigenvalues --   -0.33331  -0.32972  -0.32909  -0.32654  -0.32501
 Alpha  occ. eigenvalues --   -0.32239  -0.32013  -0.31769  -0.31505  -0.31161
 Alpha  occ. eigenvalues --   -0.30917  -0.30723  -0.30694  -0.30211  -0.29442
 Alpha  occ. eigenvalues --   -0.29385  -0.28349  -0.28182  -0.28015  -0.27765
 Alpha  occ. eigenvalues --   -0.27651  -0.27012  -0.26755  -0.25935  -0.24985
 Alpha  occ. eigenvalues --   -0.24874  -0.24290  -0.24006  -0.22892  -0.19929
 Alpha  occ. eigenvalues --   -0.18445
 Alpha virt. eigenvalues --   -0.10661  -0.06835  -0.03820  -0.02021  -0.01769
 Alpha virt. eigenvalues --   -0.00163  -0.00089   0.01450   0.01625   0.02298
 Alpha virt. eigenvalues --    0.03416   0.03930   0.04204   0.04585   0.04654

 Mulliken charges:
               1
     1  C    0.052931
     2  C   -0.017484
     3  C   -0.096487
     4  C   -0.156037
     5  N   -0.170551
     6  C   -0.026855
     7  C   -0.030614
     8  C   -0.046834
     9  C   -0.077400
    10  C    0.049228
    11  C    0.159756
    12  C    0.079227
    13  C    0.168354
    14  O   -0.290250
    15  O   -0.300204
    16  N   -0.015283
    17  C    0.033532
    18  C   -0.102672
    19  C    0.042166
    20  C    0.141761
    21  C    0.004858
    22  C   -0.015408
    23  C   -0.098787
    24  N   -0.282484
    25  C   -0.011500
    26  C   -0.045116
    27  C   -0.091643
    28  C    0.114620
    29  C    0.054270
    30  C    0.052482
    31  C    0.072159
    32  N   -0.092599
    33  C    0.065075
    34  C   -0.114588
    35  C   -0.066012
    36  C    0.041744
    37  C    0.113394
    38  C    0.072810
    39  O   -0.083700
    40  C   -0.155660
    41  C    0.198708
    42  O   -0.190940
    43  O   -0.307790
    44  C    0.243015
    45  C    0.172162
    46  C    0.131129
    47  C   -0.144531
    48  C    0.016358
    49  C   -0.008192
    50  C   -0.004107
    51  C    0.133641
    52  C   -0.079648
    53  C   -0.088311
    54  C   -0.100035
    55  C    0.002746
    56  C    0.009183
    57  C    0.038604
    58  C   -0.030917
    59  C   -0.088182
    60  C    0.044477
    61  C    0.140690
    62  C   -0.205958
    63  C    0.013898
    64  C    0.080366
    65  H   -0.009745
    66  H   -0.000277
    67  H    0.050939
    68  H   -0.002332
    69  H    0.023485
    70  H    0.012861
    71  H    0.030387
    72  H    0.043656
    73  H   -0.024015
    74  H   -0.061820
    75  H   -0.008399
    76  H    0.038550
    77  H    0.049650
    78  H    0.012672
    79  H    0.045747
    80  H   -0.001249
    81  H    0.060909
    82  H    0.036095
    83  H    0.028800
    84  H    0.025350
    85  H    0.006222
    86  H   -0.005033
    87  H   -0.009065
    88  H    0.023117
    89  H   -0.035050
    90  H    0.014996
    91  H   -0.014849
    92  H    0.023761
    93  H   -0.017079
    94  H    0.090857
    95  H    0.035464
    96  H   -0.028191
    97  H    0.038025
    98  H    0.064059
    99  H    0.040266
   100  H   -0.132556
   101  H    0.048202
   102  H    0.047835
   103  H    0.011802
   104  H    0.005763
   105  H    0.004845
   106  H    0.000044
   107  H   -0.000617
   108  H   -0.028650
   109  H    0.009391
   110  H    0.015731
   111  H    0.034961
   112  H    0.015873
   113  H    0.049998
   114  H    0.003399
   115  H    0.024196
   116  H    0.011530
   117  H   -0.010583
   118  H    0.000455
   119  H    0.001808
   120  H   -0.028597
   121  H    0.035603
   122  H    0.022168
   123  H    0.013004
   124  H    0.006587
   125  H    0.003231
   126  H   -0.015133
   127  H   -0.036420
   128  H   -0.005516
   129  H   -0.018684
   130  H    0.002861
   131  H   -0.014874
   132  H    0.017511
   133  H    0.026382
   134  H   -0.006640
   135  H    0.018351
   136  H    0.017699
   137  H    0.151381
   138  H    0.212327
 Sum of Mulliken charges =   0.00000

 Dipole moment (field-independent basis, Debye):
    X=              1.8500    Y=              4.3927    Z=              0.5950  Tot=              4.8034
 Quadrupole moment (field-independent basis, Debye-Ang):
   XX=           -347.4545   YY=           -380.3372   ZZ=           -392.1662
   XY=            -30.1432   XZ=              7.0661   YZ=             -6.4634

 Normal termination of Gaussian 09 at Thu Jul 25 02:13:44 2019.
