 Gaussian 09, Revision D.01,
 Gaussian 09:  ES64L-G09RevD.01 24-Apr-2013

 --------------------------
 # td=(NStates=1) B3LYP/SVP
 --------------------------

 --
 TD
 --
 Symbolic Z-matrix:
 Charge =  0 Multiplicity = 1

                         Standard orientation:
 ---------------------------------------------------------------------
 Center     Atomic      Atomic             Coordinates (Angstroms)
 Number     Number       Type             X           Y           Z
 ---------------------------------------------------------------------
      1          6           0       -5.156072   -1.979858    0.498425
      2          6           0       -4.809454    2.809841    1.349098
      3          6           0       -9.412961    3.224774   -0.320967
      4          6           0       -9.818555   -1.539642   -1.135597
      5          7           0       -5.216425    0.465059    0.831974
      6          6           0       -4.510065   -0.779164    0.780358
      7          6           0       -3.036208   -0.505060    1.211631
      8          6           0       -3.031402    1.046127    1.722834
      9          6           0       -4.505726    1.405416    1.246474
     10          6           0       -2.886160    1.231044    3.167165
     11          6           0       -2.060812   -0.869545    0.141799
     12          6           0       -0.598372   -0.895706    0.718695
     13          6           0        0.414216   -1.018450   -0.450385
     14          8           0        0.159622   -1.392153   -1.528799
     15          8           0        1.621389   -0.668797   -0.029365
     16          7           0       -7.113318    2.832892    0.465632
     17          6           0       -6.034270    3.397378    1.080785
     18          6           0       -6.367708    4.856035    1.117828
     19          6           0       -7.581851    4.974712    0.558636
     20          6           0       -8.098525    3.629132    0.140557
     21          6           0       -5.451463    5.906744    1.766804
     22          6           0       -8.314451    6.247575    0.498503
     23          6           0       -9.142801    6.654432   -0.510123
     24          7           0       -9.202967    0.838353   -0.612490
     25          6           0       -9.891934    2.000168   -0.730970
     26          6           0      -11.253700    1.835436   -1.069707
     27          6           0      -11.421694    0.449007   -1.220334
     28          6           0      -10.149400   -0.179513   -0.942178
     29          6           0      -12.247422    2.912622   -1.309251
     30          6           0      -12.549177   -0.323114   -1.723972
     31          6           0      -12.485575   -0.584925   -3.220108
     32          7           0       -7.431975   -1.226495   -0.327526
     33          6           0       -8.598953   -2.059175   -0.760456
     34          6           0       -8.198853   -3.404467   -0.690272
     35          6           0       -6.849911   -3.482787   -0.234912
     36          6           0       -6.407140   -2.068282   -0.058381
     37          6           0       -9.035761   -4.608568   -1.111015
     38          6           0       -5.683869   -4.391096    0.033490
     39          8           0       -5.632527   -5.576523    0.029860
     40          6           0       -4.498653   -3.427574    0.461062
     41          6           0       -3.873969   -3.823134    1.754472
     42          8           0       -4.268205   -3.333599    2.934368
     43          8           0       -3.086248   -4.861498    1.682919
     44          6           0       -2.590348   -5.463795    2.814938
     45          6           0        2.689743   -0.966091   -1.054619
     46          6           0        3.990077   -0.554112   -0.383355
     47          6           0        4.974077    0.147114   -1.029351
     48          6           0        4.971921    0.661105   -2.361536
     49          6           0        6.206885    0.484742   -0.287721
     50          6           0        7.448476   -0.423814   -0.810317
     51          6           0        8.775011   -0.107563   -0.035823
     52          6           0       10.118551   -0.768978   -0.634545
     53          6           0        9.971579   -2.319513   -0.784918
     54          6           0       11.392514   -0.072092    0.151147
     55          6           0       12.700318   -0.527217   -0.485735
     56          6           0       13.907594    0.142161    0.301010
     57          6           0       15.288985   -0.259441   -0.390085
     58          6           0       15.531762   -1.867508   -0.480743
     59          6           0       16.344600    0.498619    0.419633
     60          6           0       17.665495    0.664983   -0.351397
     61          6           0       18.736554    1.513396    0.510144
     62          6           0       20.200466    1.592875   -0.065369
     63          6           0       20.207302    2.099612   -1.488258
     64          6           0       20.987581    2.522596    0.800500
     65          1           0       -4.125793    3.486953    1.978967
     66          1           0      -10.118454    3.917018   -0.413623
     67          1           0      -10.719673   -2.132229   -1.388471
     68          1           0       -2.840830   -1.028113    2.098479
     69          1           0       -2.133424    1.538110    1.187953
     70          1           0       -1.932110    0.840464    3.649062
     71          1           0       -2.868592    2.344479    3.696602
     72          1           0       -3.718963    0.629644    3.309598
     73          1           0       -2.419688   -1.806228   -0.381963
     74          1           0       -1.863953   -0.179862   -0.774471
     75          1           0       -0.429664    0.047563    1.336968
     76          1           0       -0.506406   -1.822326    1.347891
     77          1           0       -4.555071    5.915370    1.156382
     78          1           0       -6.059633    6.819951    1.603329
     79          1           0       -5.180495    5.743267    2.784733
     80          1           0       -8.118027    6.856012    1.447795
     81          1           0       -9.260462    6.129683   -1.373204
     82          1           0       -9.569650    7.727067   -0.640556
     83          1           0      -12.517580    3.151965   -0.333870
     84          1           0      -11.890485    3.722517   -1.835851
     85          1           0      -13.291946    2.502459   -1.761260
     86          1           0      -12.655249   -1.226849   -1.197525
     87          1           0      -13.543126    0.140043   -1.581337
     88          1           0      -12.607695    0.327336   -3.802841
     89          1           0      -11.501128   -1.145685   -3.349602
     90          1           0      -13.293461   -1.227452   -3.525126
     91          1           0      -10.139242   -4.428412   -0.772773
     92          1           0       -9.223205   -4.473217   -2.355738
     93          1           0       -8.507834   -5.563866   -0.790641
     94          1           0       -3.630734   -3.366445   -0.293429
     95          1           0       -1.413677   -5.868412    2.508072
     96          1           0       -2.411803   -4.702455    3.599842
     97          1           0       -3.455525   -6.311969    3.013076
     98          1           0        2.555696   -2.023006   -1.443687
     99          1           0        2.428111   -0.321504   -2.039878
    100          1           0        4.274081   -0.858004    0.686266
    101          1           0        5.173999    1.683638   -2.170097
    102          1           0        5.819777    0.248782   -2.910449
    103          1           0        3.895286    0.619686   -3.057265
    104          1           0        6.256547    1.663463   -0.360994
    105          1           0        6.047866    0.251552    0.779511
    106          1           0        7.322144   -1.501592   -0.666443
    107          1           0        7.676983   -0.218557   -1.962599
    108          1           0        8.855104    0.930927   -0.219605
    109          1           0        8.851459   -0.581890    1.133130
    110          1           0       10.392402   -0.477873   -1.754792
    111          1           0        9.141622   -2.475075   -1.251704
    112          1           0       10.901380   -2.685227   -1.073269
    113          1           0        9.783706   -2.559793    0.325944
    114          1           0       11.250062    1.061630    0.152742
    115          1           0       11.470978   -0.429551    1.153009
    116          1           0       12.707363   -1.777503   -0.402247
    117          1           0       12.830906   -0.419214   -1.710831
    118          1           0       13.803813    1.348861    0.179970
    119          1           0       13.935454   -0.039982    1.455273
    120          1           0       15.264300    0.229836   -1.338232
    121          1           0       14.819356   -2.209618   -1.193324
    122          1           0       16.600306   -1.952793   -0.856267
    123          1           0       15.316437   -2.398053    0.531549
    124          1           0       16.064204    1.646535    0.557943
    125          1           0       16.271244    0.089543    1.702370
    126          1           0       18.064103   -0.344630   -0.685865
    127          1           0       17.577274    1.177142   -1.409446
    128          1           0       18.275152    2.531856    0.612296
    129          1           0       18.974184    1.153987    1.426131
    130          1           0       20.609335    0.525743   -0.077583
    131          1           0       19.809117    3.063788   -1.566115
    132          1           0       21.231314    2.186820   -1.524303
    133          1           0       19.975054    1.225055   -2.135100
    134          1           0       20.656351    2.177340    1.674564
    135          1           0       22.194380    2.255472    0.551606
    136          1           0       20.648481    3.593011    0.678637
    137          1           0       -7.171529    1.729313    0.231137
    138          1           0       -7.472631   -0.209384   -0.064988
 ---------------------------------------------------------------------

 SCF Done:  E(RB3LYP) =  -2733.02994998     A.U. after   17 cycles

 Excitation energies and oscillator strengths:

 Excited State   1:      Singlet-A      2.0990 eV  590.69 nm  f=0.1824  <S**2>=0.000
     235 -> 237       -0.16054
     235 -> 238        0.25296
     236 -> 237        0.61486
     236 -> 238        0.15660
 This state for optimization and/or second-order correction.
 Total Energy, E(TD-HF/TD-KS) =  -2732.95281398
 Copying the excited state density for this state as the 1-particle RhoCI density.

 The electronic state is 1-A.
 Alpha  occ. eigenvalues --  -19.19437 -19.17337 -19.12845 -19.12296 -19.11016
 Alpha  occ. eigenvalues --  -14.37666 -14.37121 -14.32662 -14.29053 -10.32250
 Alpha  occ. eigenvalues --  -10.30588 -10.28776 -10.27190 -10.26211 -10.24358
 Alpha  occ. eigenvalues --  -10.23793 -10.23731 -10.23600 -10.23559 -10.23109
 Alpha  occ. eigenvalues --  -10.22780 -10.21957 -10.21642 -10.21440 -10.21091
 Alpha  occ. eigenvalues --  -10.20991 -10.20935 -10.20784 -10.20665 -10.20662
 Alpha  occ. eigenvalues --  -10.20656 -10.20636 -10.20530 -10.20466 -10.20380
 Alpha  occ. eigenvalues --  -10.20349 -10.20317 -10.20140 -10.20107 -10.20082
 Alpha  occ. eigenvalues --  -10.19959 -10.19942 -10.19870 -10.19855 -10.19851
 Alpha  occ. eigenvalues --  -10.19842 -10.19773 -10.19609 -10.19449 -10.19262
 Alpha  occ. eigenvalues --  -10.19242 -10.19195 -10.19086 -10.18777 -10.18708
 Alpha  occ. eigenvalues --  -10.18376 -10.18168 -10.18002 -10.17996 -10.17973
 Alpha  occ. eigenvalues --  -10.17840 -10.17493 -10.17229 -10.15860  -1.11667
 Alpha  occ. eigenvalues --   -1.10141  -1.04675  -1.01385  -0.99352  -0.95974
 Alpha  occ. eigenvalues --   -0.94901  -0.94808  -0.92019  -0.83994  -0.83425
 Alpha  occ. eigenvalues --   -0.81807  -0.81438  -0.81065  -0.81008  -0.80150
 Alpha  occ. eigenvalues --   -0.79937  -0.79535  -0.78993  -0.78965  -0.77469
 Alpha  occ. eigenvalues --   -0.76714  -0.75925  -0.75396  -0.74752  -0.74336
 Alpha  occ. eigenvalues --   -0.73818  -0.73023  -0.72397  -0.71608  -0.70553
 Alpha  occ. eigenvalues --   -0.69692  -0.69338  -0.68768  -0.68584  -0.68243
 Alpha  occ. eigenvalues --   -0.67432  -0.66665  -0.65917  -0.65712  -0.64370
 Alpha  occ. eigenvalues --   -0.63616  -0.62199  -0.61757  -0.61488  -0.61166
 Alpha  occ. eigenvalues --   -0.60347  -0.58374  -0.58175  -0.57605  -0.56599
 Alpha  occ. eigenvalues --   -0.55905  -0.55583  -0.55125  -0.55053  -0.54638
 Alpha  occ. eigenvalues --   -0.54097  -0.54087  -0.53670  -0.53329  -0.52890
 Alpha  occ. eigenvalues --   -0.52410  -0.51694  -0.51217  -0.50760  -0.50411
 Alpha  occ. eigenvalues --   -0.49810  -0.49368  -0.49131  -0.48449  -0.48052
 Alpha  occ. eigenvalues --   -0.47898  -0.47347  -0.47181  -0.47050  -0.46893
 Alpha  occ. eigenvalues --   -0.46821  -0.46748  -0.46266  -0.46032  -0.46024
 Alpha  occ. eigenvalues --   -0.45649  -0.45496  -0.45245  -0.45172  -0.44732
 Alpha  occ. eigenvalues --   -0.44307  -0.44157  -0.44098  -0.44028  -0.43773
 Alpha  occ. eigenvalues --   -0.43584  -0.43349  -0.43083  -0.42854  -0.42784
 Alpha  occ. eigenvalues --   -0.42530  -0.42418  -0.42247  -0.41708  -0.41375
 Alpha  occ. eigenvalues --   -0.41252  -0.40788  -0.40662  -0.40500  -0.40279
 Alpha  occ. eigenvalues --   -0.39910  -0.39807  -0.39621  -0.39300  -0.39259
 Alpha  occ. eigenvalues --   -0.39118  -0.38940  -0.38913  -0.38553  -0.38480
 Alpha  occ. eigenvalues --   -0.38169  -0.37961  -0.37953  -0.37775  -0.37604
 Alpha  occ. eigenvalues --   -0.37313  -0.37117  -0.37024  -0.36922  -0.36669
 Alpha  occ. eigenvalues --   -0.36558  -0.36463  -0.36259  -0.36092  -0.35950
 Alpha  occ. eigenvalues --   -0.35782  -0.35468  -0.35291  -0.34870  -0.34507
 Alpha  occ. eigenvalues --   -0.34482  -0.34357  -0.34170  -0.34084  -0.33744
 Alpha  occ. eigenvalues --   -0.33588  -0.33314  -0.33169  -0.32499  -0.32426
 Alpha  occ. eigenvalues --   -0.32335  -0.31824  -0.31406  -0.31131  -0.30834
 Alpha  occ. eigenvalues --   -0.30620  -0.30618  -0.30013  -0.29818  -0.29793
 Alpha  occ. eigenvalues --   -0.29345  -0.28812  -0.28183  -0.27991  -0.27095
 Alpha  occ. eigenvalues --   -0.26960  -0.26340  -0.26284  -0.25966  -0.25823
 Alpha  occ. eigenvalues --   -0.25351  -0.24421  -0.24311  -0.21717  -0.20242
 Alpha  occ. eigenvalues --   -0.18455
 Alpha virt. eigenvalues --   -0.09856  -0.07838  -0.04707  -0.02504  -0.01712
 Alpha virt. eigenvalues --   -0.00235   0.00619   0.01593   0.02197   0.03704
 Alpha virt. eigenvalues --    0.03775   0.03793   0.03936   0.03995   0.04262

 Mulliken charges:
               1
     1  C    0.020419
     2  C   -0.056869
     3  C   -0.013087
     4  C   -0.090361
     5  N   -0.130160
     6  C   -0.059919
     7  C    0.068438
     8  C   -0.067682
     9  C   -0.057776
    10  C   -0.011069
    11  C    0.005356
    12  C   -0.000414
    13  C    0.146660
    14  O   -0.203854
    15  O   -0.309322
    16  N   -0.069482
    17  C    0.074623
    18  C   -0.162313
    19  C    0.005028
    20  C    0.083017
    21  C    0.140681
    22  C   -0.078770
    23  C   -0.019545
    24  N   -0.294897
    25  C    0.063275
    26  C   -0.167724
    27  C   -0.069460
    28  C    0.022209
    29  C    0.161201
    30  C    0.067978
    31  C    0.027916
    32  N   -0.112512
    33  C    0.195063
    34  C   -0.142614
    35  C   -0.060010
    36  C    0.082437
    37  C    0.024150
    38  C    0.114792
    39  O   -0.133751
    40  C   -0.064436
    41  C    0.205499
    42  O   -0.344519
    43  O   -0.214967
    44  C    0.083677
    45  C    0.194374
    46  C   -0.051127
    47  C   -0.176446
    48  C    0.094061
    49  C    0.040606
    50  C   -0.037213
    51  C    0.020928
    52  C   -0.188222
    53  C    0.147155
    54  C    0.084021
    55  C   -0.094057
    56  C   -0.039364
    57  C   -0.039209
    58  C    0.031670
    59  C   -0.054006
    60  C   -0.017607
    61  C    0.059858
    62  C   -0.208383
    63  C    0.153617
    64  C    0.072683
    65  H    0.007534
    66  H   -0.115134
    67  H   -0.005327
    68  H   -0.014296
    69  H    0.007693
    70  H    0.022487
    71  H    0.037956
    72  H    0.026804
    73  H    0.013815
    74  H    0.023363
    75  H    0.042273
    76  H    0.036478
    77  H    0.027238
    78  H    0.011623
    79  H    0.031593
    80  H    0.032811
    81  H    0.001039
    82  H    0.042438
    83  H    0.005645
    84  H    0.012783
    85  H    0.022445
    86  H   -0.019469
    87  H   -0.018940
    88  H    0.013408
    89  H    0.012870
    90  H   -0.001800
    91  H    0.036815
    92  H    0.049102
    93  H    0.070918
    94  H    0.077219
    95  H    0.052440
    96  H    0.054438
    97  H    0.081573
    98  H    0.047409
    99  H    0.044371
   100  H    0.005639
   101  H   -0.002857
   102  H    0.024406
   103  H    0.039806
   104  H    0.028581
   105  H   -0.003389
   106  H    0.015626
   107  H    0.030032
   108  H   -0.008501
   109  H    0.031237
   110  H   -0.007673
   111  H   -0.031006
   112  H    0.003501
   113  H   -0.009274
   114  H    0.011764
   115  H   -0.011867
   116  H    0.021412
   117  H    0.021942
   118  H    0.014549
   119  H    0.017212
   120  H   -0.020665
   121  H    0.012348
   122  H    0.022933
   123  H    0.030849
   124  H    0.005187
   125  H    0.017394
   126  H   -0.004590
   127  H    0.021430
   128  H   -0.006253
   129  H   -0.028168
   130  H   -0.000463
   131  H   -0.011412
   132  H   -0.042735
   133  H    0.006442
   134  H   -0.034831
   135  H    0.034303
   136  H    0.016074
   137  H    0.204578
   138  H    0.164576
 Sum of Mulliken charges =   0.00000

 Dipole moment (field-independent basis, Debye):
    X=              3.4423    Y=              4.0500    Z=             -0.2607  Tot=              5.3216
 Quadrupole moment (field-independent basis, Debye-Ang):
   XX=           -352.2639   YY=           -383.2850   ZZ=           -399.0940
   XY=            -25.5789   XZ=              9.5786   YZ=              2.6945

 Normal termination of Gaussian 09 at Fri Aug  2 09:24:10 2019.
