 Gaussian 09, Revision D.01,
 Gaussian 09:  ES64L-G09RevD.01 24-Apr-2013

 --------------------------
 # td=(NStates=1) B3LYP/SVP
 --------------------------

 --
 TD
 --
 Symbolic Z-matrix:
 Charge =  0 Multiplicity = 1

                         Standard orientation:
 ---------------------------------------------------------------------
 Center     Atomic      Atomic             Coordinates (Angstroms)
 Number     Number       Type             X           Y           Z
 ---------------------------------------------------------------------
      1          6           0       -5.037548   -1.869850    0.495772
      2          6           0       -4.772184    2.826769    1.375547
      3          6           0       -9.488085    3.265463   -0.218066
      4          6           0       -9.748372   -1.461719   -1.024400
      5          7           0       -5.130137    0.473399    0.816508
      6          6           0       -4.431058   -0.704711    0.813085
      7          6           0       -3.030469   -0.506791    1.273947
      8          6           0       -3.048389    0.992803    1.840374
      9          6           0       -4.489855    1.488315    1.230166
     10          6           0       -2.975509    1.077817    3.314391
     11          6           0       -2.064382   -0.629935    0.120492
     12          6           0       -0.565982   -0.685743    0.584502
     13          6           0        0.378091   -0.940713   -0.653056
     14          8           0        0.054887   -1.463538   -1.696559
     15          8           0        1.619734   -0.685545   -0.367153
     16          7           0       -7.171579    2.680756    0.536109
     17          6           0       -6.023123    3.387640    0.986278
     18          6           0       -6.333756    4.742493    1.094401
     19          6           0       -7.653014    4.938979    0.580447
     20          6           0       -8.193640    3.624281    0.267230
     21          6           0       -5.318099    5.825940    1.528456
     22          6           0       -8.332966    6.191532    0.484707
     23          6           0       -9.306121    6.529505   -0.373435
     24          7           0       -9.177907    0.822465   -0.473817
     25          6           0       -9.949940    1.984638   -0.518790
     26          6           0      -11.298593    1.708048   -1.064082
     27          6           0      -11.298347    0.343367   -1.265956
     28          6           0       -9.928697   -0.137536   -0.944198
     29          6           0      -12.267372    2.852050   -1.230474
     30          6           0      -12.477774   -0.357398   -1.915843
     31          6           0      -12.338802   -0.554443   -3.403465
     32          7           0       -7.413011   -1.279214   -0.227035
     33          6           0       -8.418223   -2.070025   -0.637344
     34          6           0       -8.101700   -3.460838   -0.585406
     35          6           0       -6.754284   -3.372011   -0.170382
     36          6           0       -6.349699   -2.057070    0.082609
     37          6           0       -8.921710   -4.611165   -0.955961
     38          6           0       -5.596979   -4.230017    0.086765
     39          8           0       -5.642211   -5.475257   -0.019876
     40          6           0       -4.406452   -3.316661    0.625875
     41          6           0       -3.926950   -3.648777    1.987940
     42          8           0       -4.382207   -3.254082    3.033974
     43          8           0       -2.955876   -4.573975    1.891617
     44          6           0       -2.640206   -5.224238    3.152213
     45          6           0        2.583132   -1.177335   -1.344010
     46          6           0        3.911804   -0.801154   -0.814764
     47          6           0        4.920868   -0.047602   -1.377529
     48          6           0        4.828418    0.691175   -2.802745
     49          6           0        6.257107    0.176568   -0.628911
     50          6           0        7.582917   -0.464586   -1.173979
     51          6           0        8.682590   -0.148027   -0.165525
     52          6           0       10.096166   -0.759421   -0.773988
     53          6           0       10.030254   -2.264586   -0.817766
     54          6           0       11.290451   -0.204138    0.089843
     55          6           0       12.745771   -0.542862   -0.527792
     56          6           0       13.871782   -0.108133    0.333252
     57          6           0       15.241050   -0.201516   -0.385176
     58          6           0       15.633244   -1.624289   -0.702646
     59          6           0       16.308462    0.511767    0.533999
     60          6           0       17.647471    0.695880   -0.237577
     61          6           0       18.763906    1.404795    0.764430
     62          6           0       20.096845    1.728646    0.207142
     63          6           0       20.007128    2.470889   -1.187220
     64          6           0       20.900586    2.396428    1.161733
     65          1           0       -3.992917    3.453831    1.822116
     66          1           0      -10.130325    4.125218   -0.425896
     67          1           0      -10.395564   -2.282046   -1.390806
     68          1           0       -2.664341   -1.158300    2.202796
     69          1           0       -2.214791    1.480917    1.544186
     70          1           0       -1.885990    0.673364    3.475187
     71          1           0       -3.215455    1.955223    3.869210
     72          1           0       -3.645023    0.387568    3.719451
     73          1           0       -2.302663   -1.532113   -0.533679
     74          1           0       -2.333583   -0.038998   -0.597481
     75          1           0       -0.345307    0.269700    0.855157
     76          1           0       -0.458959   -1.515733    1.423580
     77          1           0       -4.687688    5.772405    0.571391
     78          1           0       -5.966133    6.648536    1.906363
     79          1           0       -4.612439    5.414835    2.403849
     80          1           0       -8.335694    6.820191    1.343422
     81          1           0       -9.512634    6.006153   -1.127739
     82          1           0       -9.719423    7.644177   -0.330230
     83          1           0      -12.606161    3.282856   -0.389885
     84          1           0      -11.735318    3.459425   -1.879759
     85          1           0      -13.197818    2.382166   -1.669182
     86          1           0      -12.714790   -1.377319   -1.519518
     87          1           0      -13.364732    0.133043   -1.697223
     88          1           0      -12.482046    0.308603   -4.123369
     89          1           0      -11.465886   -1.028230   -3.755019
     90          1           0      -13.267569   -1.203676   -3.644129
     91          1           0       -9.721338   -4.822755   -0.351935
     92          1           0       -9.372482   -4.378774   -1.984583
     93          1           0       -8.292044   -5.513996   -1.250213
     94          1           0       -3.444021   -3.457708   -0.053980
     95          1           0       -2.262601   -6.157287    3.046870
     96          1           0       -1.842215   -4.641893    3.657500
     97          1           0       -3.633004   -5.191078    3.833021
     98          1           0        2.473078   -2.132354   -1.603559
     99          1           0        2.304035   -0.426808   -2.201400
    100          1           0        4.227674   -1.353887    0.121980
    101          1           0        5.175682    1.593377   -2.535771
    102          1           0        5.403992    0.153196   -3.351208
    103          1           0        3.870734    0.527893   -3.156975
    104          1           0        6.137832    1.216605   -0.319153
    105          1           0        6.036701   -0.371048    0.243675
    106          1           0        7.414327   -1.671412   -1.194331
    107          1           0        7.784073   -0.030553   -2.157335
    108          1           0        8.858104    1.039645   -0.131100
    109          1           0        8.559831   -0.433663    0.968048
    110          1           0       10.055113   -0.309848   -1.854726
    111          1           0        9.266297   -2.716609   -1.352336
    112          1           0       11.053953   -2.666925   -0.703537
    113          1           0        9.622738   -2.759614    0.329518
    114          1           0       11.420945    0.863706    0.018217
    115          1           0       11.166899   -0.605587    1.031975
    116          1           0       12.930374   -1.598484   -0.775700
    117          1           0       12.743667   -0.097285   -1.656246
    118          1           0       13.848413    0.926909    0.732977
    119          1           0       14.024653   -0.833565    1.154924
    120          1           0       15.132974    0.248846   -1.355672
    121          1           0       14.700800   -2.056922   -1.224239
    122          1           0       16.652891   -1.578688   -1.464336
    123          1           0       15.864426   -2.207882    0.225064
    124          1           0       15.852101    1.493225    0.718434
    125          1           0       16.574762    0.138983    1.396937
    126          1           0       18.166848   -0.337749   -0.639034
    127          1           0       17.595655    1.290831   -1.249987
    128          1           0       18.207487    2.451188    1.225197
    129          1           0       18.840872    0.959602    1.719029
    130          1           0       20.471081    0.756652    0.007387
    131          1           0       19.484896    3.492393   -0.999502
    132          1           0       21.190285    2.467715   -1.762001
    133          1           0       19.402415    1.996558   -1.866446
    134          1           0       21.008893    2.051467    2.206959
    135          1           0       21.850140    2.431432    0.700686
    136          1           0       20.387065    3.494255    1.307501
    137          1           0       -7.288900    1.661309    0.586722
    138          1           0       -7.697594   -0.282872   -0.079151
 ---------------------------------------------------------------------

 SCF Done:  E(RB3LYP) =  -2733.04301597     A.U. after   16 cycles

 Excitation energies and oscillator strengths:

 Excited State   1:      Singlet-A      2.1018 eV  589.89 nm  f=0.2221  <S**2>=0.000
     235 -> 238       -0.28500
     236 -> 237        0.64119
 This state for optimization and/or second-order correction.
 Total Energy, E(TD-HF/TD-KS) =  -2732.96577550
 Copying the excited state density for this state as the 1-particle RhoCI density.

 The electronic state is 1-A.
 Alpha  occ. eigenvalues --  -19.17817 -19.17627 -19.12105 -19.11506 -19.11414
 Alpha  occ. eigenvalues --  -14.36648 -14.36555 -14.31478 -14.30319 -10.31240
 Alpha  occ. eigenvalues --  -10.30797 -10.27592 -10.24630 -10.24461 -10.24217
 Alpha  occ. eigenvalues --  -10.23598 -10.22857 -10.22626 -10.22210 -10.22186
 Alpha  occ. eigenvalues --  -10.22016 -10.21988 -10.21913 -10.21097 -10.21009
 Alpha  occ. eigenvalues --  -10.20822 -10.20708 -10.20691 -10.20645 -10.20596
 Alpha  occ. eigenvalues --  -10.20548 -10.20541 -10.20506 -10.20325 -10.20310
 Alpha  occ. eigenvalues --  -10.20045 -10.20019 -10.19979 -10.19705 -10.19670
 Alpha  occ. eigenvalues --  -10.19472 -10.19388 -10.19378 -10.19267 -10.18958
 Alpha  occ. eigenvalues --  -10.18955 -10.18904 -10.18900 -10.18754 -10.18679
 Alpha  occ. eigenvalues --  -10.18591 -10.18478 -10.18386 -10.18376 -10.18348
 Alpha  occ. eigenvalues --  -10.18301 -10.18287 -10.18090 -10.17908 -10.17847
 Alpha  occ. eigenvalues --  -10.17680 -10.17629 -10.17489 -10.16872  -1.10762
 Alpha  occ. eigenvalues --   -1.09415  -1.00393  -1.00161  -0.99865  -0.99021
 Alpha  occ. eigenvalues --   -0.96118  -0.94927  -0.94129  -0.84655  -0.82169
 Alpha  occ. eigenvalues --   -0.81869  -0.81778  -0.81409  -0.81122  -0.80762
 Alpha  occ. eigenvalues --   -0.80247  -0.79788  -0.79728  -0.79105  -0.77529
 Alpha  occ. eigenvalues --   -0.77086  -0.76014  -0.75902  -0.75134  -0.74740
 Alpha  occ. eigenvalues --   -0.73810  -0.73528  -0.73171  -0.71395  -0.70668
 Alpha  occ. eigenvalues --   -0.70307  -0.69738  -0.69099  -0.68722  -0.67992
 Alpha  occ. eigenvalues --   -0.67448  -0.66916  -0.66346  -0.66230  -0.64697
 Alpha  occ. eigenvalues --   -0.63964  -0.62930  -0.62371  -0.61894  -0.61657
 Alpha  occ. eigenvalues --   -0.61230  -0.58805  -0.57975  -0.57787  -0.57568
 Alpha  occ. eigenvalues --   -0.57157  -0.56764  -0.55791  -0.55656  -0.55135
 Alpha  occ. eigenvalues --   -0.55029  -0.54897  -0.54566  -0.54391  -0.53036
 Alpha  occ. eigenvalues --   -0.52701  -0.52172  -0.51501  -0.51048  -0.50606
 Alpha  occ. eigenvalues --   -0.50140  -0.49264  -0.48959  -0.48807  -0.48511
 Alpha  occ. eigenvalues --   -0.47946  -0.47673  -0.47412  -0.47180  -0.47130
 Alpha  occ. eigenvalues --   -0.46791  -0.46472  -0.46229  -0.46155  -0.45999
 Alpha  occ. eigenvalues --   -0.45742  -0.45627  -0.45578  -0.45564  -0.45355
 Alpha  occ. eigenvalues --   -0.44648  -0.44455  -0.44082  -0.44019  -0.43931
 Alpha  occ. eigenvalues --   -0.43663  -0.43343  -0.43080  -0.43042  -0.42823
 Alpha  occ. eigenvalues --   -0.42488  -0.42274  -0.42142  -0.41690  -0.41553
 Alpha  occ. eigenvalues --   -0.41483  -0.41280  -0.41153  -0.41020  -0.40636
 Alpha  occ. eigenvalues --   -0.40526  -0.39960  -0.39840  -0.39620  -0.39580
 Alpha  occ. eigenvalues --   -0.39364  -0.39217  -0.38930  -0.38804  -0.38704
 Alpha  occ. eigenvalues --   -0.38309  -0.37989  -0.37781  -0.37677  -0.37588
 Alpha  occ. eigenvalues --   -0.37509  -0.37441  -0.37333  -0.37007  -0.36969
 Alpha  occ. eigenvalues --   -0.36585  -0.36412  -0.36322  -0.36116  -0.35991
 Alpha  occ. eigenvalues --   -0.35831  -0.35556  -0.35105  -0.35061  -0.34667
 Alpha  occ. eigenvalues --   -0.34438  -0.34334  -0.34143  -0.33784  -0.33731
 Alpha  occ. eigenvalues --   -0.33260  -0.33230  -0.33029  -0.32731  -0.32294
 Alpha  occ. eigenvalues --   -0.32166  -0.31948  -0.31937  -0.31580  -0.31156
 Alpha  occ. eigenvalues --   -0.30635  -0.30504  -0.30308  -0.30221  -0.29889
 Alpha  occ. eigenvalues --   -0.29240  -0.28738  -0.28153  -0.27688  -0.27536
 Alpha  occ. eigenvalues --   -0.27334  -0.27200  -0.26870  -0.25654  -0.24910
 Alpha  occ. eigenvalues --   -0.24607  -0.24355  -0.23829  -0.23215  -0.19744
 Alpha  occ. eigenvalues --   -0.19362
 Alpha virt. eigenvalues --   -0.10773  -0.07001  -0.04357  -0.01773  -0.00173
 Alpha virt. eigenvalues --    0.00083   0.00706   0.01119   0.02827   0.03713
 Alpha virt. eigenvalues --    0.04121   0.04209   0.04355   0.04556   0.04663

 Mulliken charges:
               1
     1  C    0.044993
     2  C   -0.093777
     3  C   -0.097753
     4  C   -0.105784
     5  N   -0.094811
     6  C   -0.123356
     7  C   -0.089323
     8  C   -0.023920
     9  C   -0.017709
    10  C    0.078532
    11  C    0.099594
    12  C    0.100402
    13  C    0.137501
    14  O   -0.252197
    15  O   -0.283532
    16  N   -0.131331
    17  C    0.167372
    18  C   -0.179810
    19  C    0.059498
    20  C    0.102931
    21  C    0.060624
    22  C   -0.079872
    23  C    0.010751
    24  N   -0.239578
    25  C    0.089225
    26  C   -0.170703
    27  C   -0.124894
    28  C    0.173349
    29  C    0.214132
    30  C    0.119005
    31  C   -0.007812
    32  N    0.003953
    33  C   -0.059922
    34  C   -0.142351
    35  C    0.013656
    36  C    0.115349
    37  C    0.118522
    38  C    0.077098
    39  O   -0.208497
    40  C   -0.059950
    41  C    0.208402
    42  O   -0.223275
    43  O   -0.309299
    44  C    0.175846
    45  C    0.312311
    46  C   -0.099551
    47  C   -0.271894
    48  C    0.279356
    49  C    0.085505
    50  C    0.027592
    51  C   -0.053972
    52  C   -0.102723
    53  C    0.034104
    54  C    0.118969
    55  C   -0.057546
    56  C    0.079932
    57  C   -0.092808
    58  C   -0.042408
    59  C    0.152586
    60  C   -0.067151
    61  C   -0.043713
    62  C   -0.011918
    63  C   -0.012997
    64  C    0.057718
    65  H   -0.017099
    66  H   -0.035929
    67  H   -0.011682
    68  H    0.028125
    69  H   -0.051439
    70  H    0.014301
    71  H    0.002423
    72  H   -0.000199
    73  H    0.004027
    74  H   -0.071434
    75  H   -0.009015
    76  H    0.063713
    77  H    0.066262
    78  H    0.045257
    79  H    0.044632
    80  H    0.010257
    81  H   -0.047707
    82  H    0.042582
    83  H   -0.001964
    84  H    0.016611
    85  H    0.002147
    86  H   -0.006970
    87  H   -0.027989
    88  H    0.011978
    89  H    0.005329
    90  H    0.006617
    91  H    0.012173
    92  H    0.018056
    93  H    0.046088
    94  H    0.080148
    95  H    0.011217
    96  H    0.021914
    97  H    0.069049
    98  H    0.006702
    99  H    0.031902
   100  H   -0.002288
   101  H   -0.007055
   102  H   -0.036259
   103  H   -0.029723
   104  H    0.016103
   105  H   -0.035025
   106  H    0.033676
   107  H    0.012794
   108  H    0.006285
   109  H    0.024027
   110  H    0.005341
   111  H    0.010966
   112  H    0.020477
   113  H   -0.019550
   114  H   -0.000245
   115  H   -0.017462
   116  H   -0.000887
   117  H    0.000740
   118  H   -0.008188
   119  H   -0.011028
   120  H   -0.021428
   121  H    0.021293
   122  H    0.035715
   123  H    0.014376
   124  H   -0.008376
   125  H   -0.048032
   126  H    0.016534
   127  H    0.018545
   128  H   -0.024666
   129  H   -0.022017
   130  H   -0.023737
   131  H    0.022235
   132  H    0.024600
   133  H   -0.004659
   134  H    0.009263
   135  H   -0.007706
   136  H    0.006887
   137  H    0.154279
   138  H    0.151434
 Sum of Mulliken charges =   0.00000

 Dipole moment (field-independent basis, Debye):
    X=              2.1644    Y=              4.2129    Z=              0.7135  Tot=              4.7899
 Quadrupole moment (field-independent basis, Debye-Ang):
   XX=           -345.0632   YY=           -388.9586   ZZ=           -392.9136
   XY=            -35.6255   XZ=             12.3990   YZ=             -0.6691

 Normal termination of Gaussian 09 at Sun Aug  4 18:45:14 2019.
