 Gaussian 09, Revision D.01,
 Gaussian 09:  ES64L-G09RevD.01 24-Apr-2013

 --------------------------
 # td=(NStates=1) B3LYP/SVP
 --------------------------

 --
 TD
 --
 Symbolic Z-matrix:
 Charge =  0 Multiplicity = 1

                         Standard orientation:
 ---------------------------------------------------------------------
 Center     Atomic      Atomic             Coordinates (Angstroms)
 Number     Number       Type             X           Y           Z
 ---------------------------------------------------------------------
      1          6           0       -5.181359   -2.027609    0.451854
      2          6           0       -4.739805    2.680998    1.440026
      3          6           0       -9.306258    3.317434   -0.308703
      4          6           0       -9.738815   -1.369746   -1.155225
      5          7           0       -5.175572    0.404352    0.695365
      6          6           0       -4.413768   -0.760158    0.814019
      7          6           0       -3.076635   -0.596097    1.323503
      8          6           0       -3.088809    0.784531    1.869621
      9          6           0       -4.405563    1.385830    1.337051
     10          6           0       -2.973762    0.955665    3.410461
     11          6           0       -2.083976   -0.895253    0.032786
     12          6           0       -0.589918   -0.745884    0.421697
     13          6           0        0.325226   -1.190022   -0.614247
     14          8           0        0.055744   -1.685973   -1.674901
     15          8           0        1.643758   -0.855245   -0.156037
     16          7           0       -7.000386    2.821785    0.546937
     17          6           0       -5.958572    3.391437    1.019841
     18          6           0       -6.208346    4.701438    1.192361
     19          6           0       -7.533713    4.894339    0.506884
     20          6           0       -8.065970    3.669446    0.306610
     21          6           0       -5.211794    5.741858    1.597088
     22          6           0       -8.089551    6.255426    0.519209
     23          6           0       -8.892411    6.745917   -0.565751
     24          7           0       -9.151529    0.918748   -0.629197
     25          6           0       -9.823202    2.104234   -0.554819
     26          6           0      -11.277321    1.969257   -0.886706
     27          6           0      -11.435153    0.600259   -1.160033
     28          6           0      -10.094700   -0.025010   -0.903831
     29          6           0      -12.258045    3.073483   -0.831420
     30          6           0      -12.592696   -0.177051   -1.661316
     31          6           0      -12.861513   -0.163168   -3.251201
     32          7           0       -7.483059   -1.211955   -0.402541
     33          6           0       -8.468297   -2.016808   -0.809799
     34          6           0       -8.104833   -3.330809   -0.838892
     35          6           0       -6.878754   -3.343525   -0.399515
     36          6           0       -6.386635   -2.002547   -0.106777
     37          6           0       -8.866189   -4.606017   -1.298679
     38          6           0       -5.760294   -4.300424   -0.020389
     39          8           0       -5.706429   -5.447737   -0.042755
     40          6           0       -4.586374   -3.394945    0.458325
     41          6           0       -3.945676   -3.852237    1.789253
     42          8           0       -4.521776   -3.532618    2.870906
     43          8           0       -3.024170   -4.817533    1.704862
     44          6           0       -2.603728   -5.389027    2.896164
     45          6           0        2.689691   -1.060958   -1.150049
     46          6           0        3.962911   -0.677575   -0.418126
     47          6           0        5.039119   -0.062330   -1.171721
     48          6           0        4.900753    0.359179   -2.606019
     49          6           0        6.283176    0.262496   -0.392629
     50          6           0        7.493582   -0.333357   -0.873437
     51          6           0        8.769882   -0.133137   -0.059932
     52          6           0       10.064824   -0.842376   -0.580641
     53          6           0        9.935339   -2.454898   -0.427610
     54          6           0       11.361812   -0.289363    0.061454
     55          6           0       12.723641   -0.743868   -0.430639
     56          6           0       13.799759   -0.018758    0.310575
     57          6           0       15.224434   -0.242706   -0.252009
     58          6           0       15.658240   -1.797562   -0.390443
     59          6           0       16.324336    0.770108    0.329117
     60          6           0       17.710682    0.780919   -0.303504
     61          6           0       18.555090    1.770449    0.416342
     62          6           0       20.046009    1.820220   -0.028400
     63          6           0       20.190660    2.270505   -1.459319
     64          6           0       20.952639    2.554455    0.998070
     65          1           0       -3.888590    3.119152    1.963151
     66          1           0      -10.128003    4.183647   -0.310042
     67          1           0      -10.484481   -2.059151   -1.395028
     68          1           0       -2.878208   -1.456402    2.085173
     69          1           0       -2.227057    1.389425    1.314641
     70          1           0       -1.975330    0.543975    3.863123
     71          1           0       -3.123639    2.157881    3.514028
     72          1           0       -3.925013    0.432110    3.801131
     73          1           0       -2.227010   -1.993269   -0.426835
     74          1           0       -2.292352    0.012769   -0.558035
     75          1           0       -0.466568    0.282531    0.728568
     76          1           0       -0.444770   -1.208545    1.429967
     77          1           0       -4.211030    5.475110    1.095395
     78          1           0       -5.565387    6.798602    1.407467
     79          1           0       -5.186791    5.564216    2.782876
     80          1           0       -7.796370    6.904273    1.463327
     81          1           0       -8.882320    6.036085   -1.579914
     82          1           0       -9.160564    7.851597   -0.577531
     83          1           0      -12.462365    3.461332    0.189844
     84          1           0      -11.788908    3.753144   -1.648585
     85          1           0      -13.143775    2.648394   -1.577829
     86          1           0      -12.547585   -1.178295   -1.183007
     87          1           0      -13.505147    0.251239   -1.324146
     88          1           0      -12.849416    0.747052   -3.758184
     89          1           0      -11.910741   -0.672574   -3.626382
     90          1           0      -13.862635   -0.579069   -3.448437
     91          1           0       -9.832978   -4.371290   -0.767492
     92          1           0       -8.937806   -4.799489   -2.462059
     93          1           0       -8.259474   -5.428089   -0.768236
     94          1           0       -3.629261   -3.442300   -0.119570
     95          1           0       -1.910444   -5.818482    2.590325
     96          1           0       -2.176592   -4.551786    3.565639
     97          1           0       -3.436340   -5.871524    3.443276
     98          1           0        2.726706   -2.178459   -1.372093
     99          1           0        2.538834   -0.515100   -1.972160
    100          1           0        4.173650   -0.984209    0.702078
    101          1           0        4.730771    1.472057   -2.708033
    102          1           0        5.603636   -0.152362   -3.267694
    103          1           0        3.841355    0.264637   -3.341948
    104          1           0        6.357913    1.387756   -0.345988
    105          1           0        6.144759   -0.038099    0.584557
    106          1           0        7.423066   -1.464897   -1.088063
    107          1           0        7.710042    0.026314   -2.091800
    108          1           0        8.710834    1.061665    0.115563
    109          1           0        8.440054   -0.461809    0.914858
    110          1           0       10.205602   -0.564109   -1.631348
    111          1           0        9.028764   -2.573574   -1.053683
    112          1           0       10.815120   -2.911763   -0.630778
    113          1           0        9.583138   -2.602451    0.799273
    114          1           0       11.351991    0.898700   -0.166039
    115          1           0       11.080049   -0.710225    1.025367
    116          1           0       12.757766   -1.757292   -0.440521
    117          1           0       12.501620   -0.418254   -1.426757
    118          1           0       13.573786    1.046119    0.294060
    119          1           0       13.779596   -0.117349    1.483210
    120          1           0       15.067548    0.240978   -1.188871
    121          1           0       14.848284   -2.595383   -0.755603
    122          1           0       16.580945   -1.500426   -1.061898
    123          1           0       16.031058   -2.183405    0.550493
    124          1           0       15.817985    1.779322    0.175188
    125          1           0       16.537874    0.472724    1.344198
    126          1           0       18.106999   -0.265517   -0.411082
    127          1           0       17.630069    1.143927   -1.348812
    128          1           0       18.026788    2.775190    0.481296
    129          1           0       18.795092    1.469486    1.537734
    130          1           0       20.468255    0.878632    0.042416
    131          1           0       19.972551    3.408979   -1.712600
    132          1           0       21.128003    2.126266   -2.025674
    133          1           0       19.624739    1.704304   -2.090734
    134          1           0       20.665085    2.243919    2.017152
    135          1           0       22.060020    2.431814    0.608142
    136          1           0       20.576804    3.587415    0.962183
    137          1           0       -7.195386    1.707516    0.440578
    138          1           0       -7.664217   -0.232936   -0.286518
 ---------------------------------------------------------------------

 SCF Done:  E(RB3LYP) =  -2732.95532603     A.U. after   18 cycles

 Excitation energies and oscillator strengths:

 Excited State   1:      Singlet-A      2.0817 eV  595.59 nm  f=0.2787  <S**2>=0.000
     235 -> 237        0.18459
     235 -> 238       -0.21489
     236 -> 237        0.64005
     236 -> 238        0.10085
 This state for optimization and/or second-order correction.
 Total Energy, E(TD-HF/TD-KS) =  -2732.87882427
 Copying the excited state density for this state as the 1-particle RhoCI density.

 The electronic state is 1-A.
 Alpha  occ. eigenvalues --  -19.19644 -19.16610 -19.14279 -19.13863 -19.12383
 Alpha  occ. eigenvalues --  -14.36356 -14.35987 -14.32773 -14.30000 -10.32412
 Alpha  occ. eigenvalues --  -10.32192 -10.28800 -10.24179 -10.23923 -10.23693
 Alpha  occ. eigenvalues --  -10.23380 -10.23151 -10.22146 -10.21857 -10.21855
 Alpha  occ. eigenvalues --  -10.21844 -10.21842 -10.21804 -10.21773 -10.21680
 Alpha  occ. eigenvalues --  -10.21593 -10.21448 -10.21425 -10.21367 -10.21352
 Alpha  occ. eigenvalues --  -10.21042 -10.20962 -10.20937 -10.20722 -10.20538
 Alpha  occ. eigenvalues --  -10.20534 -10.20418 -10.20253 -10.20052 -10.20047
 Alpha  occ. eigenvalues --  -10.19902 -10.19822 -10.19756 -10.19541 -10.19327
 Alpha  occ. eigenvalues --  -10.19086 -10.19001 -10.18979 -10.18964 -10.18890
 Alpha  occ. eigenvalues --  -10.18833 -10.18755 -10.18703 -10.18623 -10.18613
 Alpha  occ. eigenvalues --  -10.18599 -10.18425 -10.18387 -10.18376 -10.18218
 Alpha  occ. eigenvalues --  -10.18185 -10.17922 -10.17315 -10.17052  -1.11239
 Alpha  occ. eigenvalues --   -1.07888  -1.07874  -1.00738  -0.99906  -0.99343
 Alpha  occ. eigenvalues --   -0.99109  -0.93639  -0.92921  -0.85784  -0.82941
 Alpha  occ. eigenvalues --   -0.81900  -0.81862  -0.81603  -0.81061  -0.80561
 Alpha  occ. eigenvalues --   -0.79349  -0.79084  -0.78981  -0.78645  -0.78254
 Alpha  occ. eigenvalues --   -0.77628  -0.76922  -0.75890  -0.75080  -0.74490
 Alpha  occ. eigenvalues --   -0.73269  -0.72841  -0.71949  -0.71342  -0.70351
 Alpha  occ. eigenvalues --   -0.69922  -0.69298  -0.68144  -0.68072  -0.68028
 Alpha  occ. eigenvalues --   -0.67684  -0.66540  -0.66520  -0.65883  -0.64738
 Alpha  occ. eigenvalues --   -0.63565  -0.62754  -0.62578  -0.62130  -0.61132
 Alpha  occ. eigenvalues --   -0.60263  -0.58600  -0.58485  -0.58102  -0.57191
 Alpha  occ. eigenvalues --   -0.56634  -0.56110  -0.55760  -0.55707  -0.55545
 Alpha  occ. eigenvalues --   -0.55319  -0.54807  -0.54518  -0.53543  -0.53382
 Alpha  occ. eigenvalues --   -0.52206  -0.51787  -0.51491  -0.50679  -0.50477
 Alpha  occ. eigenvalues --   -0.49907  -0.49775  -0.49305  -0.49233  -0.48882
 Alpha  occ. eigenvalues --   -0.48304  -0.48160  -0.47894  -0.47740  -0.47569
 Alpha  occ. eigenvalues --   -0.46872  -0.46497  -0.46131  -0.45864  -0.45812
 Alpha  occ. eigenvalues --   -0.45497  -0.45278  -0.45253  -0.44829  -0.44726
 Alpha  occ. eigenvalues --   -0.44677  -0.44260  -0.44158  -0.43936  -0.43904
 Alpha  occ. eigenvalues --   -0.43509  -0.43280  -0.43097  -0.42887  -0.42721
 Alpha  occ. eigenvalues --   -0.42661  -0.42182  -0.41984  -0.41513  -0.41277
 Alpha  occ. eigenvalues --   -0.41164  -0.40945  -0.40902  -0.40771  -0.40688
 Alpha  occ. eigenvalues --   -0.40247  -0.39874  -0.39828  -0.39635  -0.39424
 Alpha  occ. eigenvalues --   -0.39244  -0.39020  -0.38854  -0.38729  -0.38592
 Alpha  occ. eigenvalues --   -0.38397  -0.38330  -0.37967  -0.37898  -0.37614
 Alpha  occ. eigenvalues --   -0.37527  -0.37150  -0.37102  -0.37022  -0.36782
 Alpha  occ. eigenvalues --   -0.36695  -0.36492  -0.36166  -0.36077  -0.35771
 Alpha  occ. eigenvalues --   -0.35594  -0.35472  -0.35402  -0.35087  -0.34843
 Alpha  occ. eigenvalues --   -0.34744  -0.34606  -0.34082  -0.33947  -0.33765
 Alpha  occ. eigenvalues --   -0.33417  -0.33397  -0.33160  -0.32550  -0.32251
 Alpha  occ. eigenvalues --   -0.32024  -0.31610  -0.31444  -0.31291  -0.30877
 Alpha  occ. eigenvalues --   -0.30857  -0.30634  -0.30422  -0.29779  -0.29504
 Alpha  occ. eigenvalues --   -0.29293  -0.29074  -0.28898  -0.28284  -0.28188
 Alpha  occ. eigenvalues --   -0.27867  -0.27660  -0.26909  -0.26681  -0.25917
 Alpha  occ. eigenvalues --   -0.25842  -0.23579  -0.22331  -0.21673  -0.19919
 Alpha  occ. eigenvalues --   -0.18495
 Alpha virt. eigenvalues --   -0.10339  -0.06754  -0.04295  -0.02593  -0.01933
 Alpha virt. eigenvalues --   -0.01838  -0.01123  -0.00132   0.01402   0.03297
 Alpha virt. eigenvalues --    0.03445   0.03845   0.03948   0.04524   0.04657

 Mulliken charges:
               1
     1  C   -0.047980
     2  C   -0.035959
     3  C   -0.136911
     4  C   -0.035167
     5  N   -0.218990
     6  C   -0.018809
     7  C   -0.057707
     8  C   -0.031208
     9  C   -0.074235
    10  C    0.011098
    11  C   -0.022926
    12  C    0.050668
    13  C    0.229725
    14  O   -0.203201
    15  O   -0.392576
    16  N   -0.043612
    17  C    0.113926
    18  C   -0.194711
    19  C   -0.005754
    20  C    0.062882
    21  C    0.043065
    22  C   -0.083318
    23  C   -0.099845
    24  N   -0.260578
    25  C    0.096995
    26  C   -0.154655
    27  C   -0.085283
    28  C    0.073014
    29  C    0.048962
    30  C    0.060417
    31  C    0.013901
    32  N    0.007895
    33  C   -0.005543
    34  C   -0.186828
    35  C   -0.035950
    36  C    0.164101
    37  C    0.039961
    38  C    0.126445
    39  O   -0.081430
    40  C   -0.031036
    41  C    0.166946
    42  O   -0.285457
    43  O   -0.270978
    44  C    0.312346
    45  C    0.366633
    46  C   -0.143292
    47  C   -0.144155
    48  C   -0.032105
    49  C    0.192889
    50  C   -0.106583
    51  C    0.037388
    52  C   -0.059855
    53  C    0.014866
    54  C   -0.050087
    55  C    0.145879
    56  C    0.031414
    57  C   -0.032367
    58  C   -0.029963
    59  C    0.002248
    60  C    0.034518
    61  C   -0.028885
    62  C   -0.038136
    63  C    0.042868
    64  C    0.022655
    65  H   -0.044362
    66  H    0.025855
    67  H   -0.058767
    68  H    0.031972
    69  H    0.016817
    70  H    0.045541
    71  H    0.034545
    72  H    0.051088
    73  H    0.069784
    74  H    0.021133
    75  H    0.016825
    76  H    0.027490
    77  H    0.048899
    78  H    0.028841
    79  H    0.037072
    80  H    0.042891
    81  H    0.068901
    82  H    0.041994
    83  H    0.069738
    84  H    0.043992
    85  H    0.027776
    86  H    0.009783
    87  H   -0.020103
    88  H   -0.004438
    89  H    0.022451
    90  H    0.022885
    91  H    0.039038
    92  H    0.070410
    93  H    0.056869
    94  H    0.039239
    95  H   -0.083349
    96  H    0.017644
    97  H    0.050383
    98  H    0.030409
    99  H   -0.030710
   100  H    0.030892
   101  H    0.040899
   102  H    0.049575
   103  H    0.023659
   104  H    0.009328
   105  H   -0.044040
   106  H    0.001744
   107  H   -0.001569
   108  H    0.001847
   109  H   -0.021413
   110  H   -0.019707
   111  H    0.031344
   112  H    0.006894
   113  H    0.027577
   114  H    0.015265
   115  H   -0.016590
   116  H   -0.042552
   117  H   -0.026581
   118  H   -0.035226
   119  H   -0.009952
   120  H   -0.027157
   121  H    0.045827
   122  H    0.036432
   123  H    0.012135
   124  H    0.008978
   125  H   -0.007649
   126  H    0.005223
   127  H   -0.005544
   128  H    0.006339
   129  H   -0.002212
   130  H   -0.029574
   131  H    0.008082
   132  H   -0.013208
   133  H   -0.029978
   134  H    0.006148
   135  H    0.035763
   136  H   -0.003936
   137  H    0.202816
   138  H    0.113956
 Sum of Mulliken charges =   0.00000

 Dipole moment (field-independent basis, Debye):
    X=              3.1259    Y=              1.3080    Z=              0.3832  Tot=              3.4102
 Quadrupole moment (field-independent basis, Debye-Ang):
   XX=           -371.6010   YY=           -391.7081   ZZ=           -394.5744
   XY=            -14.4466   XZ=              3.5417   YZ=             -3.4985

 Normal termination of Gaussian 09 at Sun Aug  4 12:38:29 2019.
