 Gaussian 09, Revision D.01,
 Gaussian 09:  ES64L-G09RevD.01 24-Apr-2013

 --------------------------
 # td=(NStates=1) B3LYP/SVP
 --------------------------

 --
 TD
 --
 Symbolic Z-matrix:
 Charge =  0 Multiplicity = 1

                         Standard orientation:
 ---------------------------------------------------------------------
 Center     Atomic      Atomic             Coordinates (Angstroms)
 Number     Number       Type             X           Y           Z
 ---------------------------------------------------------------------
      1          6           0       -5.095072   -1.949849    0.477948
      2          6           0       -4.795517    2.793985    1.427027
      3          6           0       -9.377244    3.320464   -0.192407
      4          6           0       -9.827448   -1.377298   -0.908590
      5          7           0       -5.158570    0.368886    0.794245
      6          6           0       -4.440479   -0.745688    0.814108
      7          6           0       -3.080880   -0.598478    1.199190
      8          6           0       -3.081736    0.816338    1.797418
      9          6           0       -4.376636    1.387596    1.326423
     10          6           0       -2.855410    0.822529    3.372025
     11          6           0       -2.040033   -0.835042    0.078590
     12          6           0       -0.592841   -0.894644    0.483209
     13          6           0        0.440988   -1.062536   -0.682076
     14          8           0        0.104820   -1.732523   -1.703078
     15          8           0        1.688218   -0.534906   -0.379756
     16          7           0       -7.097095    2.775645    0.473618
     17          6           0       -5.945019    3.411429    1.050740
     18          6           0       -6.314244    4.821162    1.095173
     19          6           0       -7.619476    4.901180    0.595587
     20          6           0       -8.104070    3.657889    0.166171
     21          6           0       -5.301808    5.850424    1.570593
     22          6           0       -8.182238    6.170463    0.463041
     23          6           0       -9.028091    6.616304   -0.511760
     24          7           0       -9.231876    0.976609   -0.475313
     25          6           0       -9.892894    2.105096   -0.464819
     26          6           0      -11.347507    1.881122   -0.866044
     27          6           0      -11.474304    0.629312   -1.155058
     28          6           0      -10.091727    0.004592   -0.838044
     29          6           0      -12.311163    2.978036   -0.923177
     30          6           0      -12.715359   -0.156759   -1.658783
     31          6           0      -12.747318   -0.535615   -3.103538
     32          7           0       -7.548851   -1.293540   -0.106006
     33          6           0       -8.576062   -2.025719   -0.676063
     34          6           0       -8.152655   -3.338207   -0.730274
     35          6           0       -6.815182   -3.308757   -0.289088
     36          6           0       -6.449057   -2.072087    0.051920
     37          6           0       -8.988256   -4.640810   -1.062158
     38          6           0       -5.750901   -4.293785    0.053482
     39          8           0       -5.738631   -5.522678   -0.042196
     40          6           0       -4.593978   -3.389084    0.450233
     41          6           0       -3.984466   -3.986597    1.746591
     42          8           0       -4.296065   -3.553635    2.843619
     43          8           0       -3.073074   -4.885741    1.574999
     44          6           0       -2.631240   -5.550281    2.689185
     45          6           0        2.609162   -0.731024   -1.448226
     46          6           0        3.969365   -0.386086   -0.787504
     47          6           0        4.988155    0.247452   -1.391879
     48          6           0        4.894546    0.910563   -2.754954
     49          6           0        6.320962    0.363108   -0.609672
     50          6           0        7.506932   -0.510831   -1.157733
     51          6           0        8.734770   -0.112637   -0.350720
     52          6           0       10.179939   -0.911611   -0.800414
     53          6           0       10.191802   -2.357492   -0.637414
     54          6           0       11.224169   -0.262901    0.144240
     55          6           0       12.608408   -0.506592   -0.374609
     56          6           0       13.833972    0.089152    0.417232
     57          6           0       15.190688   -0.133919   -0.320963
     58          6           0       15.648794   -1.610377   -0.458631
     59          6           0       16.215135    0.658613    0.442689
     60          6           0       17.689146    0.620651   -0.066226
     61          6           0       18.662607    1.518717    0.706413
     62          6           0       20.176392    1.507931    0.221699
     63          6           0       20.299052    2.170132   -1.237515
     64          6           0       21.180327    2.282824    1.147108
     65          1           0       -3.835188    3.170418    1.818526
     66          1           0       -9.951284    4.324842   -0.383795
     67          1           0      -10.659733   -2.100904   -1.393815
     68          1           0       -2.781852   -1.353094    1.991884
     69          1           0       -2.248561    1.430504    1.313567
     70          1           0       -1.870113    0.271211    3.531698
     71          1           0       -2.802184    1.909264    3.845845
     72          1           0       -3.653526    0.166558    3.795039
     73          1           0       -2.229799   -1.682706   -0.626355
     74          1           0       -2.196940    0.023059   -0.535519
     75          1           0       -0.405270    0.098613    1.274705
     76          1           0       -0.596047   -1.529234    1.397946
     77          1           0       -4.305920    5.814463    0.849824
     78          1           0       -5.727663    7.039563    1.561611
     79          1           0       -4.903475    5.464263    2.670467
     80          1           0       -7.758418    6.854796    1.265767
     81          1           0       -9.103636    5.933658   -1.454056
     82          1           0       -9.540925    7.651505   -0.348151
     83          1           0      -12.022976    3.692790   -0.030290
     84          1           0      -12.169277    3.739808   -1.697032
     85          1           0      -13.324824    2.457793   -1.082191
     86          1           0      -13.016337   -0.937138   -0.942832
     87          1           0      -13.507913    0.525321   -1.330318
     88          1           0      -12.337583    0.183372   -3.685741
     89          1           0      -12.046735   -1.444650   -3.284280
     90          1           0      -13.848517   -0.970306   -3.366375
     91          1           0       -9.731270   -4.744489   -0.336673
     92          1           0       -9.541366   -4.398057   -2.075746
     93          1           0       -8.381402   -5.543216   -0.906798
     94          1           0       -3.796202   -3.540198   -0.515141
     95          1           0       -2.175806   -6.295034    2.347886
     96          1           0       -2.097309   -4.893847    3.441596
     97          1           0       -3.347107   -5.947750    3.323843
     98          1           0        2.642889   -1.816330   -1.678817
     99          1           0        2.173733   -0.058869   -2.274683
    100          1           0        4.181196   -0.596554    0.247331
    101          1           0        5.200191    1.959735   -2.681508
    102          1           0        5.799899    0.479192   -3.414525
    103          1           0        3.876795    0.730430   -3.355983
    104          1           0        6.601450    1.404811   -0.623266
    105          1           0        6.066886   -0.033811    0.270020
    106          1           0        7.486364   -1.652649   -1.337374
    107          1           0        7.747499   -0.274245   -2.362564
    108          1           0        9.011048    1.045314   -0.622445
    109          1           0        8.512078   -0.388849    0.738331
    110          1           0       10.344424   -0.725760   -1.929579
    111          1           0        9.313442   -3.041330   -0.951357
    112          1           0       10.966821   -2.917954   -1.252086
    113          1           0       10.491746   -2.640623    0.505843
    114          1           0       11.270595    0.691817    0.579332
    115          1           0       11.139378   -0.906210    1.064008
    116          1           0       12.633339   -1.617054   -0.529531
    117          1           0       12.673556    0.092697   -1.402153
    118          1           0       13.680377    1.276764    0.346977
    119          1           0       13.713674    0.010173    1.498832
    120          1           0       14.930955    0.317419   -1.254181
    121          1           0       15.044657   -2.288112   -1.078255
    122          1           0       16.587694   -1.399250   -1.214695
    123          1           0       15.792148   -2.003621    0.616173
    124          1           0       15.804129    1.730579    0.389440
    125          1           0       16.280851    0.407720    1.426992
    126          1           0       18.254663   -0.254713    0.002228
    127          1           0       17.767792    0.941700   -1.119019
    128          1           0       18.342870    2.721550    0.654951
    129          1           0       18.583972    1.071465    1.830846
    130          1           0       20.500053    0.479712    0.118105
    131          1           0       20.028267    3.359618   -1.160786
    132          1           0       21.198516    2.044640   -1.531691
    133          1           0       19.691538    1.779061   -2.030470
    134          1           0       21.196652    1.918809    2.307959
    135          1           0       22.099148    2.496769    0.782250
    136          1           0       20.654677    3.269177    1.063655
    137          1           0       -7.039361    1.844269    0.458355
    138          1           0       -7.468822   -0.300127    0.135556
 ---------------------------------------------------------------------

 SCF Done:  E(RB3LYP) =  -2733.03677335     A.U. after   16 cycles

 Excitation energies and oscillator strengths:

 Excited State   1:      Singlet-A      2.0650 eV  600.42 nm  f=0.1808  <S**2>=0.000
     235 -> 238       -0.31051
     236 -> 237        0.63486
 This state for optimization and/or second-order correction.
 Total Energy, E(TD-HF/TD-KS) =  -2732.96088729
 Copying the excited state density for this state as the 1-particle RhoCI density.

 The electronic state is 1-A.
 Alpha  occ. eigenvalues --  -19.19240 -19.18900 -19.14088 -19.11916 -19.11652
 Alpha  occ. eigenvalues --  -14.36062 -14.35980 -14.32675 -14.30055 -10.33810
 Alpha  occ. eigenvalues --  -10.31615 -10.27429 -10.26036 -10.24162 -10.24028
 Alpha  occ. eigenvalues --  -10.23724 -10.23573 -10.22935 -10.22603 -10.22562
 Alpha  occ. eigenvalues --  -10.22495 -10.22415 -10.21829 -10.21821 -10.21386
 Alpha  occ. eigenvalues --  -10.21235 -10.21188 -10.21037 -10.21012 -10.20818
 Alpha  occ. eigenvalues --  -10.20756 -10.20746 -10.20664 -10.20653 -10.20644
 Alpha  occ. eigenvalues --  -10.20513 -10.20452 -10.20315 -10.20282 -10.20280
 Alpha  occ. eigenvalues --  -10.19962 -10.19912 -10.19780 -10.19736 -10.19599
 Alpha  occ. eigenvalues --  -10.19569 -10.19565 -10.19415 -10.19370 -10.19261
 Alpha  occ. eigenvalues --  -10.19214 -10.19019 -10.18847 -10.18781 -10.18691
 Alpha  occ. eigenvalues --  -10.18572 -10.18310 -10.18100 -10.17813 -10.17726
 Alpha  occ. eigenvalues --  -10.17674 -10.17569 -10.17545 -10.17311  -1.12727
 Alpha  occ. eigenvalues --   -1.08978  -1.01412  -1.00524  -1.00114  -0.98629
 Alpha  occ. eigenvalues --   -0.97681  -0.95680  -0.94669  -0.85024  -0.82903
 Alpha  occ. eigenvalues --   -0.82218  -0.81817  -0.81637  -0.81304  -0.80641
 Alpha  occ. eigenvalues --   -0.80190  -0.79407  -0.78816  -0.78782  -0.77514
 Alpha  occ. eigenvalues --   -0.76963  -0.76351  -0.75571  -0.75017  -0.74667
 Alpha  occ. eigenvalues --   -0.74493  -0.73474  -0.72556  -0.71779  -0.70412
 Alpha  occ. eigenvalues --   -0.69941  -0.69419  -0.68460  -0.68009  -0.67626
 Alpha  occ. eigenvalues --   -0.67415  -0.66768  -0.66160  -0.65927  -0.65273
 Alpha  occ. eigenvalues --   -0.64597  -0.63205  -0.62236  -0.61802  -0.61587
 Alpha  occ. eigenvalues --   -0.60730  -0.59020  -0.58757  -0.58368  -0.58156
 Alpha  occ. eigenvalues --   -0.56791  -0.56540  -0.56014  -0.55830  -0.55533
 Alpha  occ. eigenvalues --   -0.54860  -0.54734  -0.54119  -0.53783  -0.53499
 Alpha  occ. eigenvalues --   -0.52745  -0.52171  -0.51793  -0.51242  -0.50492
 Alpha  occ. eigenvalues --   -0.49759  -0.49536  -0.49356  -0.49110  -0.48681
 Alpha  occ. eigenvalues --   -0.48467  -0.48405  -0.47566  -0.47496  -0.47417
 Alpha  occ. eigenvalues --   -0.46837  -0.46612  -0.46100  -0.45881  -0.45464
 Alpha  occ. eigenvalues --   -0.45347  -0.45024  -0.44693  -0.44178  -0.44043
 Alpha  occ. eigenvalues --   -0.43897  -0.43732  -0.43647  -0.43526  -0.43213
 Alpha  occ. eigenvalues --   -0.42941  -0.42886  -0.42631  -0.42261  -0.42130
 Alpha  occ. eigenvalues --   -0.42022  -0.41705  -0.41575  -0.41540  -0.41147
 Alpha  occ. eigenvalues --   -0.41016  -0.40878  -0.40770  -0.40612  -0.40395
 Alpha  occ. eigenvalues --   -0.40310  -0.40164  -0.39861  -0.39534  -0.39410
 Alpha  occ. eigenvalues --   -0.39249  -0.38978  -0.38907  -0.38572  -0.38287
 Alpha  occ. eigenvalues --   -0.38186  -0.37856  -0.37802  -0.37629  -0.37588
 Alpha  occ. eigenvalues --   -0.37207  -0.37049  -0.36945  -0.36835  -0.36650
 Alpha  occ. eigenvalues --   -0.36439  -0.36229  -0.36092  -0.36053  -0.35907
 Alpha  occ. eigenvalues --   -0.35661  -0.35508  -0.35235  -0.35194  -0.35081
 Alpha  occ. eigenvalues --   -0.34850  -0.34635  -0.34290  -0.34162  -0.34052
 Alpha  occ. eigenvalues --   -0.33634  -0.33387  -0.32937  -0.32514  -0.32203
 Alpha  occ. eigenvalues --   -0.32184  -0.31525  -0.31482  -0.31306  -0.31062
 Alpha  occ. eigenvalues --   -0.31025  -0.30840  -0.30811  -0.30605  -0.30578
 Alpha  occ. eigenvalues --   -0.30518  -0.29857  -0.29009  -0.28504  -0.28202
 Alpha  occ. eigenvalues --   -0.27447  -0.27433  -0.26383  -0.26236  -0.25254
 Alpha  occ. eigenvalues --   -0.24786  -0.24630  -0.24097  -0.23220  -0.19719
 Alpha  occ. eigenvalues --   -0.19120
 Alpha virt. eigenvalues --   -0.10467  -0.07157  -0.04357  -0.03107  -0.02302
 Alpha virt. eigenvalues --   -0.00096   0.00717   0.00724   0.01773   0.02899
 Alpha virt. eigenvalues --    0.03255   0.03637   0.03813   0.04032   0.04904

 Mulliken charges:
               1
     1  C    0.034157
     2  C   -0.038658
     3  C   -0.140953
     4  C   -0.122247
     5  N   -0.167706
     6  C   -0.076801
     7  C   -0.052386
     8  C   -0.050152
     9  C   -0.107464
    10  C    0.027149
    11  C    0.049219
    12  C   -0.026685
    13  C    0.274385
    14  O   -0.271974
    15  O   -0.312887
    16  N   -0.051761
    17  C    0.172371
    18  C   -0.079205
    19  C    0.036009
    20  C    0.082943
    21  C   -0.045602
    22  C   -0.088984
    23  C   -0.072189
    24  N   -0.144321
    25  C    0.094400
    26  C   -0.108714
    27  C   -0.140941
    28  C    0.041262
    29  C    0.081120
    30  C    0.086737
    31  C    0.044361
    32  N   -0.043847
    33  C    0.082572
    34  C   -0.165640
    35  C   -0.025510
    36  C    0.056513
    37  C    0.125814
    38  C    0.075732
    39  O   -0.193636
    40  C   -0.084639
    41  C    0.174170
    42  O   -0.251201
    43  O   -0.220481
    44  C    0.296408
    45  C    0.262761
    46  C   -0.086268
    47  C   -0.174962
    48  C    0.028717
    49  C    0.189028
    50  C   -0.060923
    51  C   -0.021618
    52  C   -0.066976
    53  C   -0.046683
    54  C    0.083539
    55  C   -0.014888
    56  C   -0.023137
    57  C   -0.023981
    58  C   -0.005251
    59  C    0.091845
    60  C    0.063094
    61  C   -0.070098
    62  C   -0.087743
    63  C    0.047637
    64  C    0.045691
    65  H   -0.026783
    66  H   -0.002036
    67  H    0.025107
    68  H    0.015919
    69  H    0.013984
    70  H    0.021858
    71  H    0.042089
    72  H    0.044010
    73  H    0.034567
    74  H   -0.015105
    75  H    0.018797
    76  H    0.025844
    77  H    0.061876
    78  H    0.057531
    79  H    0.060174
    80  H    0.012658
    81  H    0.059693
    82  H    0.048666
    83  H    0.030933
    84  H    0.012420
    85  H    0.029320
    86  H   -0.004175
    87  H   -0.030402
    88  H   -0.001496
    89  H    0.011367
    90  H    0.035083
    91  H    0.004031
    92  H    0.039301
    93  H    0.040381
    94  H    0.096699
    95  H   -0.038249
    96  H    0.017532
    97  H   -0.006439
    98  H    0.041611
    99  H    0.049098
   100  H   -0.012671
   101  H    0.019641
   102  H    0.025750
   103  H    0.039126
   104  H    0.001771
   105  H   -0.042751
   106  H    0.016602
   107  H   -0.003022
   108  H    0.033351
   109  H    0.018781
   110  H    0.009446
   111  H    0.023101
   112  H    0.023152
   113  H    0.019355
   114  H   -0.030585
   115  H   -0.020064
   116  H   -0.002123
   117  H   -0.000238
   118  H   -0.012086
   119  H   -0.015311
   120  H   -0.024299
   121  H    0.015134
   122  H    0.030392
   123  H    0.030925
   124  H   -0.003349
   125  H   -0.036951
   126  H   -0.014446
   127  H   -0.014141
   128  H    0.007833
   129  H    0.008986
   130  H   -0.009693
   131  H    0.016889
   132  H   -0.039623
   133  H    0.003834
   134  H    0.032785
   135  H   -0.014667
   136  H   -0.003189
   137  H    0.068240
   138  H    0.147728
 Sum of Mulliken charges =   0.00000

 Dipole moment (field-independent basis, Debye):
    X=              3.5968    Y=              4.0183    Z=              0.5166  Tot=              5.4176
 Quadrupole moment (field-independent basis, Debye-Ang):
   XX=           -366.0258   YY=           -389.4820   ZZ=           -395.0204
   XY=            -28.2090   XZ=              0.9215   YZ=             -4.1962

 Normal termination of Gaussian 09 at Fri Aug  2 23:09:18 2019.
