 Gaussian 09, Revision D.01,
 Gaussian 09:  ES64L-G09RevD.01 24-Apr-2013

 --------------------------
 # td=(NStates=1) B3LYP/SVP
 --------------------------

 --
 TD
 --
 Symbolic Z-matrix:
 Charge =  0 Multiplicity = 1

                         Standard orientation:
 ---------------------------------------------------------------------
 Center     Atomic      Atomic             Coordinates (Angstroms)
 Number     Number       Type             X           Y           Z
 ---------------------------------------------------------------------
      1          6           0       -5.099796   -1.899833    0.396978
      2          6           0       -4.824796    2.760749    1.246736
      3          6           0       -9.430992    3.283389   -0.099674
      4          6           0       -9.876587   -1.527912   -0.816324
      5          7           0       -5.190853    0.488583    0.732466
      6          6           0       -4.488102   -0.693599    0.752903
      7          6           0       -3.040281   -0.579418    1.082548
      8          6           0       -3.030893    0.942533    1.571199
      9          6           0       -4.418657    1.524501    1.155517
     10          6           0       -2.787947    1.128454    3.111850
     11          6           0       -2.066719   -0.790986    0.018390
     12          6           0       -0.573823   -0.814515    0.408335
     13          6           0        0.301020   -0.943033   -0.713418
     14          8           0        0.013042   -1.156360   -1.891813
     15          8           0        1.604985   -0.659145   -0.355729
     16          7           0       -7.127850    2.694510    0.522756
     17          6           0       -6.011744    3.363642    0.920472
     18          6           0       -6.387060    4.749213    1.004620
     19          6           0       -7.664114    4.977404    0.531941
     20          6           0       -8.177789    3.687388    0.274984
     21          6           0       -5.383971    5.777487    1.445372
     22          6           0       -8.265634    6.212142    0.367451
     23          6           0       -9.351663    6.521140   -0.550231
     24          7           0       -9.244930    0.856051   -0.423805
     25          6           0      -10.036521    2.003318   -0.479962
     26          6           0      -11.330154    1.754899   -0.821312
     27          6           0      -11.437232    0.427041   -1.093311
     28          6           0      -10.087716   -0.085486   -0.773856
     29          6           0      -12.379264    2.755518   -0.833839
     30          6           0      -12.622395   -0.489296   -1.435239
     31          6           0      -12.825542   -0.754544   -2.910087
     32          7           0       -7.573093   -1.339917   -0.142845
     33          6           0       -8.651404   -2.100606   -0.620047
     34          6           0       -8.223039   -3.545339   -0.554967
     35          6           0       -6.854793   -3.479092   -0.150260
     36          6           0       -6.469439   -2.155121    0.065194
     37          6           0       -8.941285   -4.766953   -0.830455
     38          6           0       -5.729487   -4.309722    0.143366
     39          8           0       -5.699674   -5.605776    0.174611
     40          6           0       -4.446979   -3.305414    0.407686
     41          6           0       -3.825265   -3.778321    1.737689
     42          8           0       -4.003579   -3.369868    2.807334
     43          8           0       -2.892349   -4.778753    1.485498
     44          6           0       -2.115995   -5.259151    2.706948
     45          6           0        2.703085   -0.776352   -1.347500
     46          6           0        4.002762   -0.614374   -0.674237
     47          6           0        4.994956    0.172413   -1.165052
     48          6           0        4.962334    1.072050   -2.467777
     49          6           0        6.260335    0.396933   -0.362385
     50          6           0        7.558692   -0.306995   -1.030241
     51          6           0        8.869062    0.145613   -0.251920
     52          6           0       10.002713   -0.539560   -0.920502
     53          6           0        9.947174   -2.105228   -0.964654
     54          6           0       11.295144   -0.156688   -0.047524
     55          6           0       12.655698   -0.365895   -0.750500
     56          6           0       13.784759   -0.007319    0.262125
     57          6           0       15.227683   -0.139478   -0.366028
     58          6           0       15.646961   -1.695438   -0.531206
     59          6           0       16.306386    0.488250    0.544594
     60          6           0       17.801366    0.486156   -0.033131
     61          6           0       18.698939    1.445672    0.755305
     62          6           0       20.155283    1.426586    0.308435
     63          6           0       20.444771    1.791360   -1.146919
     64          6           0       21.029117    2.291567    1.288141
     65          1           0       -3.953673    3.361587    1.617875
     66          1           0      -10.176965    4.067715   -0.401990
     67          1           0      -10.954427   -2.098871   -1.164876
     68          1           0       -2.891706   -1.412379    2.125189
     69          1           0       -2.223585    1.461901    1.027954
     70          1           0       -1.744875    0.780986    3.497022
     71          1           0       -3.141733    2.005589    3.277230
     72          1           0       -3.509412    0.451385    3.714890
     73          1           0       -2.208930   -1.938547   -0.510242
     74          1           0       -2.158968   -0.118343   -0.841214
     75          1           0       -0.166497    0.066772    0.929859
     76          1           0       -0.333755   -1.592314    1.245558
     77          1           0       -4.614899    6.152548    0.473422
     78          1           0       -5.984417    6.711122    1.648513
     79          1           0       -4.767728    5.643178    2.286793
     80          1           0       -7.918371    7.100447    0.951991
     81          1           0       -9.680628    5.739784   -1.331543
     82          1           0       -9.563371    7.733023   -0.561820
     83          1           0      -12.772367    3.207061    0.148115
     84          1           0      -12.116607    3.596155   -1.634854
     85          1           0      -13.270479    2.430429   -1.581748
     86          1           0      -12.576383   -1.435645   -0.899012
     87          1           0      -13.365360    0.010378   -1.218874
     88          1           0      -12.987359    0.123601   -3.720822
     89          1           0      -11.906535   -1.187686   -3.538447
     90          1           0      -13.962011   -1.310832   -3.077568
     91          1           0       -9.618033   -5.090084   -0.001131
     92          1           0       -9.746584   -4.759304   -1.776623
     93          1           0       -8.368466   -5.675464   -0.930423
     94          1           0       -3.729449   -3.366984   -0.421481
     95          1           0       -1.445100   -5.991119    2.327553
     96          1           0       -1.500172   -4.590154    3.068496
     97          1           0       -2.872612   -5.653290    3.630775
     98          1           0        2.587979   -1.820030   -1.823373
     99          1           0        2.439836   -0.065268   -2.232587
    100          1           0        4.227589   -1.032024    0.265900
    101          1           0        5.171967    2.167037   -2.188291
    102          1           0        5.542487    0.734988   -3.325035
    103          1           0        3.875362    1.174240   -2.870458
    104          1           0        6.454454    1.470423   -0.260998
    105          1           0        5.884652    0.244576    0.635736
    106          1           0        7.392247   -1.498863   -0.697156
    107          1           0        7.512143    0.031684   -2.147990
    108          1           0        9.193130    1.217320   -0.300281
    109          1           0        8.724427   -0.122525    0.835714
    110          1           0       10.262742    0.201890   -1.916604
    111          1           0        9.249194   -2.360709   -1.775441
    112          1           0       10.826994   -2.585646   -1.419158
    113          1           0        9.558932   -2.460077    0.064513
    114          1           0       11.223187    1.026834    0.248921
    115          1           0       11.290229   -0.723137    0.887695
    116          1           0       12.856281   -1.467729   -1.083172
    117          1           0       12.730989    0.465843   -1.591647
    118          1           0       13.725426    1.106919    0.661014
    119          1           0       13.562663   -0.771069    1.248579
    120          1           0       15.195582    0.251425   -1.454588
    121          1           0       14.901126   -2.244232   -1.061893
    122          1           0       16.539312   -1.722716   -1.194316
    123          1           0       16.006716   -2.316517    0.423758
    124          1           0       16.003690    1.520126    0.657912
    125          1           0       16.411627    0.209644    1.672173
    126          1           0       18.714308   -0.378363    0.058398
    127          1           0       17.880699    0.581928   -1.004408
    128          1           0       18.327534    2.527451    0.671074
    129          1           0       18.505374    1.276367    1.866542
    130          1           0       20.537570    0.470031    0.617587
    131          1           0       20.040594    2.858077   -1.428375
    132          1           0       21.390224    1.638622   -1.515486
    133          1           0       19.672736    1.021122   -1.741263
    134          1           0       20.827155    1.981556    2.469367
    135          1           0       22.044354    2.122562    0.979951
    136          1           0       20.771440    3.362397    1.088604
    137          1           0       -7.055971    1.788335    0.115128
    138          1           0       -7.744824   -0.239017    0.028858
 ---------------------------------------------------------------------

 SCF Done:  E(RB3LYP) =  -2732.97896759     A.U. after   17 cycles

 Excitation energies and oscillator strengths:

 Excited State   1:      Singlet-A      1.9960 eV  621.17 nm  f=0.1088  <S**2>=0.000
     235 -> 238       -0.36377
     236 -> 237        0.59922
 This state for optimization and/or second-order correction.
 Total Energy, E(TD-HF/TD-KS) =  -2732.90561711
 Copying the excited state density for this state as the 1-particle RhoCI density.

 The electronic state is 1-A.
 Alpha  occ. eigenvalues --  -19.16379 -19.16364 -19.12824 -19.12011 -19.11981
 Alpha  occ. eigenvalues --  -14.36939 -14.36552 -14.31825 -14.30117 -10.31193
 Alpha  occ. eigenvalues --  -10.31177 -10.28279 -10.25579 -10.24356 -10.24237
 Alpha  occ. eigenvalues --  -10.24034 -10.24009 -10.23890 -10.23312 -10.23179
 Alpha  occ. eigenvalues --  -10.22798 -10.22276 -10.22152 -10.21965 -10.21890
 Alpha  occ. eigenvalues --  -10.21760 -10.21721 -10.21540 -10.21248 -10.21231
 Alpha  occ. eigenvalues --  -10.21122 -10.21107 -10.21031 -10.20928 -10.20821
 Alpha  occ. eigenvalues --  -10.20818 -10.20771 -10.20648 -10.20581 -10.20558
 Alpha  occ. eigenvalues --  -10.20555 -10.20535 -10.20512 -10.20476 -10.20222
 Alpha  occ. eigenvalues --  -10.19849 -10.19536 -10.19460 -10.19427 -10.19267
 Alpha  occ. eigenvalues --  -10.19147 -10.19050 -10.18852 -10.18776 -10.18718
 Alpha  occ. eigenvalues --  -10.18666 -10.18615 -10.18592 -10.18565 -10.18446
 Alpha  occ. eigenvalues --  -10.18368 -10.18269 -10.18146 -10.17921  -1.09116
 Alpha  occ. eigenvalues --   -1.06998  -0.99564  -0.98542  -0.98145  -0.97496
 Alpha  occ. eigenvalues --   -0.96620  -0.94725  -0.93642  -0.84546  -0.83445
 Alpha  occ. eigenvalues --   -0.82137  -0.81653  -0.81059  -0.80918  -0.80572
 Alpha  occ. eigenvalues --   -0.80473  -0.79781  -0.79280  -0.78794  -0.77467
 Alpha  occ. eigenvalues --   -0.76941  -0.75855  -0.75373  -0.74606  -0.74150
 Alpha  occ. eigenvalues --   -0.73257  -0.72667  -0.72088  -0.71197  -0.70779
 Alpha  occ. eigenvalues --   -0.69985  -0.68916  -0.68550  -0.67920  -0.67561
 Alpha  occ. eigenvalues --   -0.66828  -0.66222  -0.66079  -0.65854  -0.64853
 Alpha  occ. eigenvalues --   -0.64529  -0.63018  -0.62459  -0.61773  -0.61249
 Alpha  occ. eigenvalues --   -0.60624  -0.58956  -0.58942  -0.57424  -0.56732
 Alpha  occ. eigenvalues --   -0.56254  -0.55820  -0.55075  -0.54795  -0.54574
 Alpha  occ. eigenvalues --   -0.54116  -0.54034  -0.53952  -0.53312  -0.53054
 Alpha  occ. eigenvalues --   -0.52604  -0.51802  -0.51540  -0.51057  -0.50330
 Alpha  occ. eigenvalues --   -0.49965  -0.49325  -0.48622  -0.48173  -0.47898
 Alpha  occ. eigenvalues --   -0.47549  -0.47325  -0.47036  -0.46841  -0.46722
 Alpha  occ. eigenvalues --   -0.46498  -0.46280  -0.46245  -0.45895  -0.45067
 Alpha  occ. eigenvalues --   -0.44973  -0.44852  -0.44686  -0.44410  -0.44301
 Alpha  occ. eigenvalues --   -0.44075  -0.43931  -0.43691  -0.43453  -0.43205
 Alpha  occ. eigenvalues --   -0.43045  -0.42991  -0.42655  -0.42618  -0.42463
 Alpha  occ. eigenvalues --   -0.42102  -0.41819  -0.41333  -0.41219  -0.41073
 Alpha  occ. eigenvalues --   -0.41060  -0.40858  -0.40596  -0.40311  -0.39903
 Alpha  occ. eigenvalues --   -0.39713  -0.39602  -0.39333  -0.39178  -0.39035
 Alpha  occ. eigenvalues --   -0.38953  -0.38750  -0.38552  -0.38513  -0.38283
 Alpha  occ. eigenvalues --   -0.38257  -0.38006  -0.37771  -0.37534  -0.37435
 Alpha  occ. eigenvalues --   -0.37122  -0.36768  -0.36553  -0.36465  -0.36421
 Alpha  occ. eigenvalues --   -0.36179  -0.36057  -0.35991  -0.35778  -0.35618
 Alpha  occ. eigenvalues --   -0.35158  -0.35132  -0.35054  -0.34946  -0.34903
 Alpha  occ. eigenvalues --   -0.34811  -0.34763  -0.34667  -0.33705  -0.33440
 Alpha  occ. eigenvalues --   -0.33287  -0.33206  -0.32920  -0.32430  -0.32345
 Alpha  occ. eigenvalues --   -0.32039  -0.31711  -0.31624  -0.31100  -0.31057
 Alpha  occ. eigenvalues --   -0.30814  -0.30754  -0.30134  -0.30021  -0.29798
 Alpha  occ. eigenvalues --   -0.29426  -0.28460  -0.28407  -0.28046  -0.27838
 Alpha  occ. eigenvalues --   -0.27496  -0.27417  -0.26894  -0.26381  -0.25493
 Alpha  occ. eigenvalues --   -0.24691  -0.24651  -0.23647  -0.23466  -0.19975
 Alpha  occ. eigenvalues --   -0.19481
 Alpha virt. eigenvalues --   -0.10717  -0.09079  -0.05188  -0.03234  -0.00680
 Alpha virt. eigenvalues --   -0.00320  -0.00223   0.00894   0.01637   0.02934
 Alpha virt. eigenvalues --    0.03502   0.03608   0.03938   0.04020   0.04368

 Mulliken charges:
               1
     1  C    0.027135
     2  C   -0.047916
     3  C   -0.077301
     4  C   -0.137826
     5  N   -0.200887
     6  C   -0.052038
     7  C   -0.095553
     8  C   -0.025237
     9  C   -0.058039
    10  C    0.121430
    11  C    0.022436
    12  C    0.017625
    13  C    0.189837
    14  O   -0.253739
    15  O   -0.367026
    16  N   -0.088228
    17  C    0.140458
    18  C   -0.130737
    19  C    0.174073
    20  C    0.119211
    21  C    0.048814
    22  C   -0.138483
    23  C   -0.092245
    24  N   -0.223688
    25  C   -0.000209
    26  C   -0.077556
    27  C   -0.137180
    28  C   -0.008468
    29  C    0.001789
    30  C    0.293387
    31  C   -0.143972
    32  N   -0.152585
    33  C    0.133981
    34  C   -0.066713
    35  C    0.067322
    36  C    0.086178
    37  C    0.032411
    38  C    0.052638
    39  O   -0.250480
    40  C   -0.045790
    41  C    0.209819
    42  O   -0.168371
    43  O   -0.364137
    44  C    0.214488
    45  C    0.245579
    46  C   -0.013110
    47  C   -0.174303
    48  C    0.019541
    49  C    0.075308
    50  C   -0.027050
    51  C    0.034431
    52  C   -0.118298
    53  C    0.046553
    54  C   -0.031282
    55  C    0.010572
    56  C   -0.062747
    57  C   -0.064348
    58  C   -0.000890
    59  C    0.068040
    60  C    0.037228
    61  C   -0.007908
    62  C   -0.095338
    63  C    0.017953
    64  C   -0.004660
    65  H   -0.018218
    66  H   -0.022984
    67  H    0.053534
    68  H    0.072858
    69  H    0.001267
    70  H    0.036572
    71  H   -0.056789
    72  H    0.020544
    73  H    0.043840
    74  H    0.022400
    75  H    0.029969
    76  H    0.046553
    77  H    0.043809
    78  H    0.006661
    79  H    0.022178
    80  H    0.019303
    81  H    0.069180
    82  H    0.061388
    83  H    0.060535
    84  H    0.022185
    85  H    0.015679
    86  H    0.013185
    87  H   -0.097815
    88  H    0.022462
    89  H    0.035239
    90  H    0.031008
    91  H    0.034570
    92  H    0.040585
    93  H    0.032789
    94  H    0.065531
    95  H    0.021774
    96  H   -0.014261
    97  H    0.067673
    98  H    0.033003
    99  H    0.040943
   100  H   -0.028481
   101  H    0.030868
   102  H    0.040449
   103  H    0.006546
   104  H   -0.014597
   105  H   -0.021242
   106  H    0.044754
   107  H    0.032487
   108  H    0.003316
   109  H    0.001750
   110  H    0.011127
   111  H    0.011364
   112  H    0.011555
   113  H    0.038174
   114  H    0.002465
   115  H   -0.013795
   116  H    0.029915
   117  H    0.011935
   118  H    0.011389
   119  H    0.017951
   120  H    0.014063
   121  H   -0.008724
   122  H    0.005454
   123  H    0.027727
   124  H   -0.015240
   125  H    0.015671
   126  H   -0.004092
   127  H   -0.045542
   128  H   -0.020773
   129  H   -0.001682
   130  H   -0.006311
   131  H    0.027523
   132  H    0.003680
   133  H    0.014853
   134  H    0.028255
   135  H    0.001487
   136  H    0.006836
   137  H    0.138938
   138  H    0.208904
 Sum of Mulliken charges =   0.00000

 Dipole moment (field-independent basis, Debye):
    X=              1.8689    Y=              5.1134    Z=              0.4305  Tot=              5.4612
 Quadrupole moment (field-independent basis, Debye-Ang):
   XX=           -347.8762   YY=           -389.1562   ZZ=           -396.8143
   XY=            -26.2228   XZ=              3.2090   YZ=             -3.3365

 Normal termination of Gaussian 09 at Fri Jul 26 10:53:12 2019.
