 Gaussian 09, Revision D.01,
 Gaussian 09:  ES64L-G09RevD.01 24-Apr-2013

 --------------------------
 # td=(NStates=1) B3LYP/SVP
 --------------------------

 --
 TD
 --
 Symbolic Z-matrix:
 Charge =  0 Multiplicity = 1

                         Standard orientation:
 ---------------------------------------------------------------------
 Center     Atomic      Atomic             Coordinates (Angstroms)
 Number     Number       Type             X           Y           Z
 ---------------------------------------------------------------------
      1          6           0       -5.074247   -1.796366    0.473446
      2          6           0       -4.827111    2.887035    1.415404
      3          6           0       -9.482281    3.200781   -0.350813
      4          6           0       -9.789224   -1.659334   -0.906367
      5          7           0       -5.207139    0.482818    0.756766
      6          6           0       -4.519386   -0.713036    0.869981
      7          6           0       -3.015914   -0.466154    1.311349
      8          6           0       -3.010423    0.921754    1.679129
      9          6           0       -4.448343    1.421060    1.335025
     10          6           0       -2.934328    1.087000    3.329617
     11          6           0       -2.019589   -0.594928    0.114740
     12          6           0       -0.612752   -0.641371    0.569167
     13          6           0        0.315248   -0.836792   -0.611850
     14          8           0       -0.008489   -1.101587   -1.726887
     15          8           0        1.632937   -0.665801   -0.132691
     16          7           0       -7.131703    2.634658    0.428186
     17          6           0       -6.079598    3.414570    0.959271
     18          6           0       -6.492566    4.816350    0.999457
     19          6           0       -7.832596    4.912689    0.536254
     20          6           0       -8.247136    3.531962    0.268832
     21          6           0       -5.590446    5.895940    1.399480
     22          6           0       -8.618995    6.202513    0.290421
     23          6           0       -9.484815    6.319903   -0.714901
     24          7           0       -9.290107    0.656754   -0.583274
     25          6           0       -9.963242    1.874131   -0.686019
     26          6           0      -11.414026    1.611802   -0.916623
     27          6           0      -11.526721    0.292245   -1.136981
     28          6           0      -10.163605   -0.276567   -0.903677
     29          6           0      -12.439854    2.667697   -1.174206
     30          6           0      -12.627638   -0.492510   -1.669476
     31          6           0      -12.439738   -0.967217   -3.199757
     32          7           0       -7.438443   -1.382096   -0.321810
     33          6           0       -8.637126   -2.203556   -0.539712
     34          6           0       -8.085154   -3.513918   -0.441663
     35          6           0       -6.680072   -3.445591   -0.156592
     36          6           0       -6.439323   -2.073623    0.052623
     37          6           0       -8.836928   -4.729853   -0.689416
     38          6           0       -5.528009   -4.234487    0.140975
     39          8           0       -5.365512   -5.490303    0.236715
     40          6           0       -4.385437   -3.286709    0.547930
     41          6           0       -3.670922   -3.596842    1.812574
     42          8           0       -4.034093   -3.161505    2.913813
     43          8           0       -2.614970   -4.498135    1.652549
     44          6           0       -2.031830   -4.860654    2.861092
     45          6           0        2.626290   -0.886938   -1.142772
     46          6           0        3.866641   -0.615698   -0.573748
     47          6           0        4.900940    0.174994   -1.010729
     48          6           0        4.838582    0.875520   -2.390465
     49          6           0        6.218677    0.400071   -0.262430
     50          6           0        7.468597   -0.236318   -1.075990
     51          6           0        8.787777   -0.225852   -0.259363
     52          6           0       10.112471   -0.715960   -0.925222
     53          6           0        9.972905   -2.228249   -1.134561
     54          6           0       11.319426   -0.262901   -0.162033
     55          6           0       12.627293   -0.545969   -0.797945
     56          6           0       13.827401   -0.048125    0.134366
     57          6           0       15.303280   -0.220949   -0.449430
     58          6           0       15.672050   -1.639091   -0.725245
     59          6           0       16.280550    0.510672    0.443039
     60          6           0       17.768088    0.634786    0.003208
     61          6           0       18.538140    1.654735    0.730544
     62          6           0       20.061400    1.585302    0.288395
     63          6           0       20.364803    1.921262   -1.194265
     64          6           0       20.900594    2.509800    1.255881
     65          1           0       -4.096332    3.639577    1.854451
     66          1           0      -10.225848    3.906751   -0.686992
     67          1           0      -10.465536   -2.301890   -1.343766
     68          1           0       -2.604168   -1.256824    2.018598
     69          1           0       -2.263444    1.591312    1.233614
     70          1           0       -2.083902    0.778427    3.777231
     71          1           0       -2.964306    2.171306    3.734779
     72          1           0       -3.811510    0.586769    3.919084
     73          1           0       -2.251089   -1.440245   -0.373599
     74          1           0       -2.450861    0.172055   -0.553567
     75          1           0       -0.507684    0.225187    1.170572
     76          1           0       -0.378992   -1.435223    1.379969
     77          1           0       -4.754245    6.157737    0.509595
     78          1           0       -6.194894    6.808194    1.577528
     79          1           0       -4.631472    5.550465    2.313388
     80          1           0       -8.319497    6.982768    0.994228
     81          1           0       -9.813227    5.540901   -1.584321
     82          1           0       -9.950768    7.426008   -0.713446
     83          1           0      -12.113828    3.476256   -0.459464
     84          1           0      -11.971860    3.169943   -2.214895
     85          1           0      -13.378495    2.153036   -1.292479
     86          1           0      -12.723996   -1.229219   -1.004931
     87          1           0      -13.570257    0.089973   -1.412313
     88          1           0      -12.341007    0.041260   -3.990479
     89          1           0      -11.545456   -1.536493   -3.508691
     90          1           0      -13.261923   -1.593998   -3.496396
     91          1           0       -9.852106   -4.802475   -0.347967
     92          1           0       -8.967861   -4.772898   -1.742970
     93          1           0       -8.502314   -5.788973   -0.572425
     94          1           0       -3.754030   -3.181266   -0.434690
     95          1           0       -1.081841   -5.474265    2.430162
     96          1           0       -1.753241   -4.068663    3.517319
     97          1           0       -2.812251   -5.650998    3.316526
     98          1           0        2.495400   -1.825522   -1.548914
     99          1           0        2.410206   -0.355053   -1.918727
    100          1           0        4.068837   -1.277960    0.312200
    101          1           0        5.237361    1.806677   -2.381490
    102          1           0        5.271797    0.231670   -3.123348
    103          1           0        3.820525    1.182383   -2.702749
    104          1           0        6.540846    1.483513   -0.067245
    105          1           0        6.210936   -0.280152    0.805301
    106          1           0        7.218419   -1.210709   -1.589487
    107          1           0        7.754595    0.338706   -1.949204
    108          1           0        8.850597    0.897543   -0.106637
    109          1           0        8.627008   -0.518056    0.773855
    110          1           0       10.328172   -0.292541   -1.803064
    111          1           0        9.230274   -2.621226   -1.675185
    112          1           0       10.787773   -2.653314   -1.834747
    113          1           0       10.225966   -3.032733   -0.064326
    114          1           0       11.273287    0.931763    0.076770
    115          1           0       11.237534   -0.629748    0.857734
    116          1           0       12.739981   -1.452357   -1.085302
    117          1           0       12.847032   -0.005914   -1.750605
    118          1           0       13.697757    0.977600    0.578756
    119          1           0       13.739933   -0.674399    1.085576
    120          1           0       15.280652    0.361457   -1.542771
    121          1           0       14.721589   -2.241322   -1.110232
    122          1           0       16.531556   -1.929131   -1.532358
    123          1           0       16.025537   -2.232188    0.196485
    124          1           0       15.878345    1.557513    0.666172
    125          1           0       16.340637    0.213149    1.557884
    126          1           0       18.344366   -0.391383    0.063921
    127          1           0       17.875578    0.576462   -1.061069
    128          1           0       18.333306    2.770377    0.482350
    129          1           0       18.573658    1.520291    1.871206
    130          1           0       20.608348    0.456925    0.619995
    131          1           0       19.683162    2.885848   -1.398366
    132          1           0       21.343819    1.988960   -1.584937
    133          1           0       19.894255    1.200058   -1.972649
    134          1           0       20.795737    2.106712    2.214110
    135          1           0       22.126180    2.374348    0.835971
    136          1           0       20.563314    3.318536    1.117867
    137          1           0       -7.029985    1.642142    0.681003
    138          1           0       -7.443986   -0.393811   -0.234161
 ---------------------------------------------------------------------

 SCF Done:  E(RB3LYP) =  -2732.92992053     A.U. after   17 cycles

 Excitation energies and oscillator strengths:

 Excited State   1:      Singlet-A      1.9933 eV  621.99 nm  f=0.2391  <S**2>=0.000
     235 -> 237       -0.11195
     235 -> 238       -0.19101
     236 -> 237        0.65632
     236 -> 238       -0.13245
 This state for optimization and/or second-order correction.
 Total Energy, E(TD-HF/TD-KS) =  -2732.85666677
 Copying the excited state density for this state as the 1-particle RhoCI density.

 The electronic state is 1-A.
 Alpha  occ. eigenvalues --  -19.17870 -19.16886 -19.14203 -19.13087 -19.10849
 Alpha  occ. eigenvalues --  -14.36913 -14.36837 -14.33037 -14.29719 -10.32267
 Alpha  occ. eigenvalues --  -10.32160 -10.27415 -10.25166 -10.25003 -10.24733
 Alpha  occ. eigenvalues --  -10.24422 -10.23598 -10.23432 -10.23386 -10.22324
 Alpha  occ. eigenvalues --  -10.22285 -10.22260 -10.22201 -10.22093 -10.21928
 Alpha  occ. eigenvalues --  -10.21876 -10.21602 -10.21564 -10.21312 -10.21286
 Alpha  occ. eigenvalues --  -10.21088 -10.21043 -10.20901 -10.20809 -10.20760
 Alpha  occ. eigenvalues --  -10.20738 -10.20700 -10.20571 -10.20476 -10.20394
 Alpha  occ. eigenvalues --  -10.20093 -10.19917 -10.19878 -10.19755 -10.19657
 Alpha  occ. eigenvalues --  -10.19446 -10.19288 -10.19223 -10.19209 -10.19158
 Alpha  occ. eigenvalues --  -10.18857 -10.18844 -10.18817 -10.18746 -10.18666
 Alpha  occ. eigenvalues --  -10.18625 -10.18429 -10.18293 -10.18260 -10.18208
 Alpha  occ. eigenvalues --  -10.17974 -10.17485 -10.17355 -10.17035  -1.08862
 Alpha  occ. eigenvalues --   -1.08698  -1.01853  -1.00268  -0.99841  -0.98529
 Alpha  occ. eigenvalues --   -0.95874  -0.94742  -0.93293  -0.84157  -0.83111
 Alpha  occ. eigenvalues --   -0.82503  -0.82099  -0.81707  -0.81542  -0.81012
 Alpha  occ. eigenvalues --   -0.80187  -0.79581  -0.79216  -0.79008  -0.77834
 Alpha  occ. eigenvalues --   -0.76794  -0.76370  -0.75754  -0.75071  -0.74673
 Alpha  occ. eigenvalues --   -0.73620  -0.73536  -0.72504  -0.72010  -0.70653
 Alpha  occ. eigenvalues --   -0.69551  -0.69041  -0.68204  -0.67968  -0.67858
 Alpha  occ. eigenvalues --   -0.67538  -0.66753  -0.66373  -0.65267  -0.65003
 Alpha  occ. eigenvalues --   -0.64296  -0.63424  -0.62916  -0.62574  -0.61944
 Alpha  occ. eigenvalues --   -0.61219  -0.58979  -0.58906  -0.58110  -0.57953
 Alpha  occ. eigenvalues --   -0.57516  -0.57180  -0.57019  -0.56400  -0.55672
 Alpha  occ. eigenvalues --   -0.54772  -0.54579  -0.54412  -0.53474  -0.53411
 Alpha  occ. eigenvalues --   -0.53135  -0.52405  -0.51714  -0.51159  -0.50785
 Alpha  occ. eigenvalues --   -0.50198  -0.49495  -0.49198  -0.48861  -0.48446
 Alpha  occ. eigenvalues --   -0.48018  -0.47921  -0.47544  -0.47251  -0.46966
 Alpha  occ. eigenvalues --   -0.46770  -0.46303  -0.46157  -0.45813  -0.45610
 Alpha  occ. eigenvalues --   -0.45487  -0.45331  -0.45158  -0.45040  -0.44910
 Alpha  occ. eigenvalues --   -0.44651  -0.44327  -0.44149  -0.43695  -0.43298
 Alpha  occ. eigenvalues --   -0.43185  -0.43131  -0.42997  -0.42673  -0.42542
 Alpha  occ. eigenvalues --   -0.42351  -0.42294  -0.41726  -0.41437  -0.41369
 Alpha  occ. eigenvalues --   -0.41171  -0.41011  -0.40933  -0.40836  -0.40477
 Alpha  occ. eigenvalues --   -0.40356  -0.39862  -0.39737  -0.39649  -0.39398
 Alpha  occ. eigenvalues --   -0.39279  -0.39167  -0.38847  -0.38630  -0.38261
 Alpha  occ. eigenvalues --   -0.38011  -0.37744  -0.37653  -0.37272  -0.37090
 Alpha  occ. eigenvalues --   -0.36894  -0.36855  -0.36668  -0.36564  -0.36278
 Alpha  occ. eigenvalues --   -0.36146  -0.36019  -0.35969  -0.35875  -0.35797
 Alpha  occ. eigenvalues --   -0.35541  -0.35464  -0.35105  -0.34873  -0.34849
 Alpha  occ. eigenvalues --   -0.34794  -0.34322  -0.34131  -0.34027  -0.33952
 Alpha  occ. eigenvalues --   -0.33380  -0.33240  -0.33127  -0.33063  -0.32696
 Alpha  occ. eigenvalues --   -0.32539  -0.32140  -0.31831  -0.31733  -0.31131
 Alpha  occ. eigenvalues --   -0.30862  -0.30825  -0.30458  -0.30114  -0.29795
 Alpha  occ. eigenvalues --   -0.29597  -0.29544  -0.28922  -0.28675  -0.28389
 Alpha  occ. eigenvalues --   -0.28246  -0.27975  -0.26507  -0.25952  -0.25660
 Alpha  occ. eigenvalues --   -0.24540  -0.24486  -0.24245  -0.22523  -0.20830
 Alpha  occ. eigenvalues --   -0.18417
 Alpha virt. eigenvalues --   -0.10643  -0.07730  -0.04664  -0.02283  -0.01839
 Alpha virt. eigenvalues --   -0.00885  -0.00540  -0.00396   0.01885   0.02095
 Alpha virt. eigenvalues --    0.03162   0.03900   0.04073   0.04093   0.04530

 Mulliken charges:
               1
     1  C   -0.015855
     2  C   -0.065927
     3  C   -0.065554
     4  C   -0.072433
     5  N   -0.206711
     6  C   -0.071105
     7  C   -0.038707
     8  C   -0.036899
     9  C    0.021157
    10  C    0.019962
    11  C    0.098014
    12  C    0.057743
    13  C    0.214863
    14  O   -0.196327
    15  O   -0.367310
    16  N   -0.117459
    17  C    0.074810
    18  C   -0.070772
    19  C   -0.025510
    20  C    0.157900
    21  C   -0.053648
    22  C    0.001561
    23  C   -0.080349
    24  N   -0.200260
    25  C    0.013220
    26  C   -0.185309
    27  C   -0.102034
    28  C    0.004228
    29  C    0.081256
    30  C    0.167832
    31  C   -0.032724
    32  N    0.024911
    33  C    0.165315
    34  C   -0.088540
    35  C    0.008920
    36  C    0.039385
    37  C    0.100779
    38  C    0.049491
    39  O   -0.234065
    40  C   -0.024801
    41  C    0.254068
    42  O   -0.248163
    43  O   -0.300048
    44  C    0.130576
    45  C    0.462951
    46  C   -0.107972
    47  C   -0.130251
    48  C    0.112642
    49  C    0.003848
    50  C   -0.014094
    51  C    0.028103
    52  C    0.079582
    53  C    0.003785
    54  C   -0.020389
    55  C    0.165616
    56  C   -0.036452
    57  C   -0.042084
    58  C   -0.045160
    59  C    0.019478
    60  C    0.057011
    61  C    0.024990
    62  C   -0.219810
    63  C    0.015086
    64  C    0.155722
    65  H   -0.008073
    66  H   -0.046107
    67  H   -0.053209
    68  H    0.020933
    69  H    0.023989
    70  H   -0.016154
    71  H    0.008043
    72  H    0.042281
    73  H   -0.053364
    74  H    0.009389
    75  H    0.000008
    76  H    0.043808
    77  H    0.056516
    78  H    0.029211
    79  H    0.053656
    80  H    0.018030
    81  H    0.087893
    82  H    0.044089
    83  H    0.039183
    84  H    0.038170
    85  H    0.023893
    86  H   -0.039565
    87  H   -0.014343
    88  H    0.032179
    89  H    0.026398
    90  H    0.017329
    91  H    0.002786
    92  H    0.004416
    93  H    0.033820
    94  H    0.087175
    95  H    0.043397
    96  H    0.034305
    97  H    0.052528
    98  H   -0.021593
    99  H   -0.090921
   100  H   -0.008223
   101  H   -0.020502
   102  H    0.030572
   103  H    0.009496
   104  H    0.032128
   105  H    0.030415
   106  H    0.004992
   107  H   -0.010854
   108  H   -0.022300
   109  H   -0.012429
   110  H   -0.054540
   111  H   -0.020421
   112  H   -0.003430
   113  H    0.018948
   114  H    0.000890
   115  H   -0.016491
   116  H   -0.072872
   117  H   -0.017362
   118  H   -0.000488
   119  H   -0.007049
   120  H    0.011675
   121  H    0.020247
   122  H    0.030685
   123  H    0.018748
   124  H   -0.010531
   125  H   -0.006898
   126  H   -0.008306
   127  H   -0.028732
   128  H    0.013757
   129  H    0.012174
   130  H    0.002123
   131  H    0.010428
   132  H    0.010995
   133  H    0.012595
   134  H    0.002871
   135  H    0.020473
   136  H   -0.085753
   137  H    0.167589
   138  H    0.117200
 Sum of Mulliken charges =   0.00000

 Dipole moment (field-independent basis, Debye):
    X=              1.1186    Y=              5.0964    Z=             -0.9585  Tot=              5.3050
 Quadrupole moment (field-independent basis, Debye-Ang):
   XX=           -354.6003   YY=           -388.7831   ZZ=           -394.4288
   XY=            -22.2964   XZ=              7.9547   YZ=              5.9672

 Normal termination of Gaussian 09 at Sun Aug  4 06:45:53 2019.
