 Gaussian 09, Revision D.01,
 Gaussian 09:  ES64L-G09RevD.01 24-Apr-2013

 --------------------------
 # td=(NStates=1) B3LYP/SVP
 --------------------------

 --
 TD
 --
 Symbolic Z-matrix:
 Charge =  0 Multiplicity = 1

                         Standard orientation:
 ---------------------------------------------------------------------
 Center     Atomic      Atomic             Coordinates (Angstroms)
 Number     Number       Type             X           Y           Z
 ---------------------------------------------------------------------
      1          6           0       -4.980488   -1.896392    0.414875
      2          6           0       -4.867580    2.849088    1.395440
      3          6           0       -9.579928    3.178722   -0.199335
      4          6           0       -9.818773   -1.658328   -0.928794
      5          7           0       -5.200926    0.487817    0.844320
      6          6           0       -4.460062   -0.700289    0.777081
      7          6           0       -2.985347   -0.400510    1.303528
      8          6           0       -3.032647    1.084517    1.749569
      9          6           0       -4.439670    1.498822    1.272198
     10          6           0       -2.835717    1.194082    3.265787
     11          6           0       -2.027370   -0.602288    0.009958
     12          6           0       -0.568360   -0.616273    0.448409
     13          6           0        0.375942   -0.695022   -0.739806
     14          8           0        0.055300   -0.957143   -1.913653
     15          8           0        1.600346   -0.585936   -0.300947
     16          7           0       -7.245630    2.694387    0.446118
     17          6           0       -6.122574    3.454797    1.011607
     18          6           0       -6.526752    4.793687    1.000058
     19          6           0       -7.769250    4.928732    0.486438
     20          6           0       -8.267882    3.600077    0.253978
     21          6           0       -5.669250    5.846765    1.541771
     22          6           0       -8.497489    6.171267    0.421887
     23          6           0       -9.404033    6.568603   -0.617399
     24          7           0       -9.342547    0.706270   -0.521092
     25          6           0      -10.011377    1.827246   -0.557525
     26          6           0      -11.427663    1.575372   -0.922219
     27          6           0      -11.470339    0.251508   -1.176514
     28          6           0      -10.139590   -0.299755   -0.828018
     29          6           0      -12.470830    2.641890   -1.284643
     30          6           0      -12.698462   -0.635072   -1.549127
     31          6           0      -12.477316   -0.981996   -3.089250
     32          7           0       -7.480896   -1.303950   -0.106077
     33          6           0       -8.483026   -2.189891   -0.616918
     34          6           0       -8.089458   -3.433420   -0.537351
     35          6           0       -6.695698   -3.425550   -0.146484
     36          6           0       -6.300257   -2.065127    0.060934
     37          6           0       -8.912813   -4.786136   -0.894397
     38          6           0       -5.544902   -4.280563   -0.039870
     39          8           0       -5.456207   -5.491497   -0.063649
     40          6           0       -4.458917   -3.349775    0.465415
     41          6           0       -3.673161   -3.764017    1.729409
     42          8           0       -3.951177   -3.442900    2.886464
     43          8           0       -2.841042   -4.755829    1.409615
     44          6           0       -2.094204   -5.388241    2.625410
     45          6           0        2.681583   -0.803231   -1.237732
     46          6           0        3.908671   -0.352562   -0.553616
     47          6           0        4.941377    0.434700   -0.990678
     48          6           0        4.922482    1.149388   -2.313985
     49          6           0        6.201759    0.502118   -0.251418
     50          6           0        7.442829   -0.264325   -0.897857
     51          6           0        8.796813   -0.120994    0.036707
     52          6           0       10.096972   -0.668517   -0.694203
     53          6           0        9.957307   -2.208970   -0.960667
     54          6           0       11.246556   -0.320087    0.229513
     55          6           0       12.667035   -0.560446   -0.369515
     56          6           0       13.947237   -0.080858    0.440480
     57          6           0       15.283041   -0.262350   -0.139510
     58          6           0       15.625358   -1.771820   -0.154750
     59          6           0       16.473340    0.533500    0.562781
     60          6           0       17.715368    0.678665   -0.135410
     61          6           0       18.745872    1.628825    0.566412
     62          6           0       20.153409    1.574927   -0.161804
     63          6           0       20.091298    1.871740   -1.692696
     64          6           0       21.116540    2.313098    0.751130
     65          1           0       -4.306268    3.681135    1.845354
     66          1           0      -10.287856    4.018300   -0.195009
     67          1           0      -10.567865   -2.265398   -1.296032
     68          1           0       -2.945519   -1.142686    2.144374
     69          1           0       -2.247724    1.474513    1.441694
     70          1           0       -1.762435    0.568219    3.371023
     71          1           0       -2.794231    2.166197    3.681392
     72          1           0       -3.532082    0.600187    3.714891
     73          1           0       -2.439596   -1.590015   -0.645027
     74          1           0       -2.074434    0.196417   -0.662984
     75          1           0       -0.584133    0.477095    0.938900
     76          1           0       -0.357083   -1.491602    1.013542
     77          1           0       -4.817282    6.395074    1.089178
     78          1           0       -6.101422    6.823270    1.727737
     79          1           0       -5.400450    5.694020    2.515958
     80          1           0       -8.267409    7.170032    1.058597
     81          1           0       -9.571447    5.827833   -1.453087
     82          1           0       -9.916463    7.492178   -0.589666
     83          1           0      -12.379084    3.544794   -0.416581
     84          1           0      -12.354014    3.163879   -2.444072
     85          1           0      -13.331387    2.189121   -1.395367
     86          1           0      -12.586715   -1.443350   -0.971384
     87          1           0      -13.582651   -0.119714   -1.583796
     88          1           0      -12.705198   -0.017004   -3.704682
     89          1           0      -11.331758   -1.231187   -3.283573
     90          1           0      -13.433783   -1.663253   -3.374625
     91          1           0       -9.625150   -4.816444   -0.124003
     92          1           0       -9.174408   -4.686616   -1.963174
     93          1           0       -8.248905   -5.607861   -0.513910
     94          1           0       -3.591023   -3.497462   -0.279006
     95          1           0       -1.380127   -6.082110    2.145051
     96          1           0       -1.612938   -4.649133    3.191523
     97          1           0       -2.791185   -5.974880    3.189316
     98          1           0        2.676496   -2.006667   -1.628904
     99          1           0        2.385872   -0.150098   -2.230107
    100          1           0        4.040955   -0.739274    0.428210
    101          1           0        5.464351    2.055296   -2.164309
    102          1           0        5.516388    0.538351   -2.965319
    103          1           0        3.977060    1.213221   -2.686141
    104          1           0        6.419236    1.564699   -0.157525
    105          1           0        6.087213    0.132897    0.747461
    106          1           0        6.933407   -1.389651   -0.970205
    107          1           0        7.636639    0.126570   -1.886268
    108          1           0        8.876040    0.879944    0.570227
    109          1           0        8.662734   -0.594691    1.099236
    110          1           0       10.128669   -0.281516   -1.595730
    111          1           0        9.285904   -2.245817   -1.845947
    112          1           0       10.994696   -2.418145   -1.569648
    113          1           0        9.649308   -2.754752    0.009422
    114          1           0       11.235104    0.622744    0.450903
    115          1           0       10.963636   -1.102186    0.994795
    116          1           0       12.635456   -1.551161   -0.599581
    117          1           0       12.723144   -0.044214   -1.404320
    118          1           0       13.737359    1.029662    0.534419
    119          1           0       13.791768   -0.698652    1.421755
    120          1           0       15.190218    0.053509   -1.227120
    121          1           0       14.879050   -2.374612   -0.566214
    122          1           0       16.544617   -2.137260   -0.632132
    123          1           0       15.809791   -2.203074    0.793404
    124          1           0       16.105321    1.618517    0.653144
    125          1           0       16.648575    0.079762    1.556812
    126          1           0       18.177933   -0.429093   -0.303607
    127          1           0       17.579434    1.145008   -1.347782
    128          1           0       18.220122    2.649366    0.521303
    129          1           0       18.930461    1.436945    1.485035
    130          1           0       20.388420    0.551679    0.031814
    131          1           0       19.677993    3.010579   -1.860871
    132          1           0       21.260141    1.883570   -2.144993
    133          1           0       19.549485    1.184012   -2.402970
    134          1           0       21.122629    1.885850    1.731634
    135          1           0       22.250472    1.977885    0.453178
    136          1           0       20.994537    3.297699    0.828456
    137          1           0       -7.246604    1.712007    0.429757
    138          1           0       -7.707386   -0.373673   -0.345047
 ---------------------------------------------------------------------

 SCF Done:  E(RB3LYP) =  -2732.98973840     A.U. after   17 cycles

 Excitation energies and oscillator strengths:

 Excited State   1:      Singlet-A      2.0599 eV  601.90 nm  f=0.1626  <S**2>=0.000
     235 -> 237       -0.24252
     235 -> 238       -0.26841
     236 -> 237        0.58812
     236 -> 238       -0.13663
 This state for optimization and/or second-order correction.
 Total Energy, E(TD-HF/TD-KS) =  -2732.91403914
 Copying the excited state density for this state as the 1-particle RhoCI density.

 The electronic state is 1-A.
 Alpha  occ. eigenvalues --  -19.18503 -19.18060 -19.11868 -19.11785 -19.10804
 Alpha  occ. eigenvalues --  -14.36474 -14.35456 -14.32447 -14.29792 -10.31477
 Alpha  occ. eigenvalues --  -10.31264 -10.27309 -10.26494 -10.25101 -10.24713
 Alpha  occ. eigenvalues --  -10.24298 -10.23751 -10.23200 -10.22952 -10.22642
 Alpha  occ. eigenvalues --  -10.22187 -10.22073 -10.21388 -10.21277 -10.21261
 Alpha  occ. eigenvalues --  -10.21076 -10.20923 -10.20810 -10.20792 -10.20759
 Alpha  occ. eigenvalues --  -10.20757 -10.20701 -10.20597 -10.20512 -10.20492
 Alpha  occ. eigenvalues --  -10.20453 -10.20437 -10.20200 -10.20126 -10.20123
 Alpha  occ. eigenvalues --  -10.20106 -10.20019 -10.19780 -10.19399 -10.19314
 Alpha  occ. eigenvalues --  -10.19136 -10.19091 -10.19002 -10.18881 -10.18766
 Alpha  occ. eigenvalues --  -10.18765 -10.18499 -10.18496 -10.18396 -10.18361
 Alpha  occ. eigenvalues --  -10.18248 -10.18127 -10.18031 -10.17929 -10.17892
 Alpha  occ. eigenvalues --  -10.17707 -10.17499 -10.17294 -10.16444  -1.10462
 Alpha  occ. eigenvalues --   -1.07829  -1.01531  -0.99134  -0.98528  -0.96945
 Alpha  occ. eigenvalues --   -0.96347  -0.95297  -0.93269  -0.85058  -0.83070
 Alpha  occ. eigenvalues --   -0.82939  -0.82052  -0.81219  -0.81019  -0.80186
 Alpha  occ. eigenvalues --   -0.79616  -0.79389  -0.79099  -0.78582  -0.78008
 Alpha  occ. eigenvalues --   -0.76384  -0.75712  -0.75034  -0.74803  -0.73759
 Alpha  occ. eigenvalues --   -0.73430  -0.73051  -0.72597  -0.72115  -0.71845
 Alpha  occ. eigenvalues --   -0.69683  -0.69465  -0.68495  -0.67867  -0.67610
 Alpha  occ. eigenvalues --   -0.67412  -0.67326  -0.66688  -0.66495  -0.65492
 Alpha  occ. eigenvalues --   -0.64285  -0.63139  -0.62624  -0.61815  -0.60915
 Alpha  occ. eigenvalues --   -0.60616  -0.59205  -0.58647  -0.58243  -0.57778
 Alpha  occ. eigenvalues --   -0.56892  -0.56431  -0.56305  -0.55283  -0.55191
 Alpha  occ. eigenvalues --   -0.55139  -0.54559  -0.53980  -0.53738  -0.52977
 Alpha  occ. eigenvalues --   -0.52624  -0.51942  -0.51756  -0.51118  -0.50134
 Alpha  occ. eigenvalues --   -0.49806  -0.49737  -0.49348  -0.49091  -0.48273
 Alpha  occ. eigenvalues --   -0.47837  -0.47552  -0.47516  -0.47250  -0.46821
 Alpha  occ. eigenvalues --   -0.46651  -0.46551  -0.46365  -0.46015  -0.45680
 Alpha  occ. eigenvalues --   -0.45660  -0.45131  -0.45106  -0.45037  -0.44816
 Alpha  occ. eigenvalues --   -0.44577  -0.44434  -0.44160  -0.43647  -0.43507
 Alpha  occ. eigenvalues --   -0.43366  -0.43073  -0.43019  -0.42922  -0.42492
 Alpha  occ. eigenvalues --   -0.42360  -0.42190  -0.41911  -0.41625  -0.41592
 Alpha  occ. eigenvalues --   -0.41140  -0.40962  -0.40847  -0.40745  -0.40614
 Alpha  occ. eigenvalues --   -0.40081  -0.39979  -0.39791  -0.39415  -0.39245
 Alpha  occ. eigenvalues --   -0.38973  -0.38850  -0.38636  -0.38442  -0.38105
 Alpha  occ. eigenvalues --   -0.37827  -0.37720  -0.37324  -0.37180  -0.36943
 Alpha  occ. eigenvalues --   -0.36837  -0.36806  -0.36736  -0.36624  -0.36523
 Alpha  occ. eigenvalues --   -0.36228  -0.36187  -0.36082  -0.35789  -0.35704
 Alpha  occ. eigenvalues --   -0.35655  -0.35319  -0.35277  -0.35149  -0.35067
 Alpha  occ. eigenvalues --   -0.34723  -0.34709  -0.34529  -0.34516  -0.34094
 Alpha  occ. eigenvalues --   -0.33754  -0.33701  -0.33185  -0.32884  -0.32519
 Alpha  occ. eigenvalues --   -0.32084  -0.32037  -0.31733  -0.31377  -0.31216
 Alpha  occ. eigenvalues --   -0.30981  -0.30628  -0.30517  -0.30379  -0.30279
 Alpha  occ. eigenvalues --   -0.29858  -0.29680  -0.28507  -0.28213  -0.27374
 Alpha  occ. eigenvalues --   -0.27184  -0.26431  -0.26240  -0.26093  -0.25349
 Alpha  occ. eigenvalues --   -0.24285  -0.24224  -0.24112  -0.23072  -0.19688
 Alpha  occ. eigenvalues --   -0.19589
 Alpha virt. eigenvalues --   -0.10952  -0.07551  -0.04570  -0.02603  -0.00975
 Alpha virt. eigenvalues --   -0.00552   0.00244   0.00496   0.02494   0.03374
 Alpha virt. eigenvalues --    0.03864   0.04054   0.04154   0.04543   0.04964

 Mulliken charges:
               1
     1  C    0.085241
     2  C   -0.016028
     3  C   -0.074086
     4  C   -0.042182
     5  N   -0.166569
     6  C   -0.143047
     7  C   -0.079510
     8  C    0.115315
     9  C    0.055077
    10  C    0.050160
    11  C   -0.006597
    12  C    0.052661
    13  C    0.169894
    14  O   -0.270761
    15  O   -0.267268
    16  N   -0.103282
    17  C    0.025849
    18  C   -0.039326
    19  C    0.101144
    20  C    0.070482
    21  C    0.107216
    22  C   -0.142608
    23  C   -0.048030
    24  N   -0.139348
    25  C    0.049629
    26  C   -0.151701
    27  C   -0.137323
    28  C    0.033103
    29  C    0.062507
    30  C    0.220813
    31  C   -0.113140
    32  N   -0.083353
    33  C    0.064077
    34  C   -0.181062
    35  C   -0.059307
    36  C    0.131849
    37  C    0.155569
    38  C    0.084224
    39  O   -0.174172
    40  C   -0.040005
    41  C    0.195419
    42  O   -0.259309
    43  O   -0.319520
    44  C    0.211489
    45  C    0.157431
    46  C   -0.045140
    47  C   -0.208973
    48  C    0.192947
    49  C    0.091760
    50  C   -0.014779
    51  C   -0.020069
    52  C   -0.034676
    53  C   -0.016610
    54  C    0.125541
    55  C    0.006144
    56  C    0.044529
    57  C   -0.034167
    58  C    0.061760
    59  C    0.078651
    60  C   -0.096597
    61  C    0.092383
    62  C   -0.055917
    63  C   -0.053085
    64  C    0.076280
    65  H   -0.025702
    66  H   -0.018222
    67  H   -0.049825
    68  H    0.035085
    69  H   -0.102615
    70  H    0.019679
    71  H    0.014446
    72  H    0.003798
    73  H    0.046472
    74  H   -0.004884
    75  H    0.054431
    76  H    0.027637
    77  H    0.023096
    78  H   -0.034379
    79  H   -0.006408
    80  H    0.044162
    81  H    0.048008
    82  H    0.024498
    83  H    0.051577
    84  H    0.039892
    85  H   -0.034803
    86  H   -0.015081
    87  H   -0.027326
    88  H    0.020515
    89  H    0.056089
    90  H    0.032001
    91  H    0.003508
    92  H    0.054855
    93  H    0.033903
    94  H    0.055751
    95  H    0.041502
    96  H    0.036041
    97  H    0.046994
    98  H    0.064428
    99  H    0.054971
   100  H   -0.027623
   101  H   -0.002207
   102  H    0.011128
   103  H   -0.019195
   104  H   -0.008603
   105  H   -0.016370
   106  H    0.034394
   107  H    0.008466
   108  H   -0.002579
   109  H   -0.010842
   110  H   -0.062452
   111  H    0.014171
   112  H    0.025901
   113  H    0.046043
   114  H   -0.055364
   115  H   -0.003110
   116  H   -0.035862
   117  H   -0.015982
   118  H   -0.001894
   119  H    0.004349
   120  H   -0.011630
   121  H   -0.018967
   122  H   -0.007058
   123  H   -0.025650
   124  H   -0.009764
   125  H   -0.001735
   126  H    0.004541
   127  H    0.015501
   128  H   -0.002194
   129  H   -0.070398
   130  H   -0.019862
   131  H    0.026340
   132  H    0.019664
   133  H    0.045575
   134  H   -0.007913
   135  H    0.005990
   136  H   -0.016334
   137  H    0.123295
   138  H    0.122538
 Sum of Mulliken charges =   0.00000

 Dipole moment (field-independent basis, Debye):
    X=              3.4124    Y=              5.0595    Z=              1.3824  Tot=              6.2574
 Quadrupole moment (field-independent basis, Debye-Ang):
   XX=           -354.4699   YY=           -375.6894   ZZ=           -396.8835
   XY=            -36.7306   XZ=             14.9658   YZ=             -0.6421

 Normal termination of Gaussian 09 at Wed Jul 31 02:29:15 2019.
