 Gaussian 09, Revision D.01,
 Gaussian 09:  ES64L-G09RevD.01 24-Apr-2013

 --------------------------
 # td=(NStates=1) B3LYP/SVP
 --------------------------

 --
 TD
 --
 Symbolic Z-matrix:
 Charge =  0 Multiplicity = 1

                         Standard orientation:
 ---------------------------------------------------------------------
 Center     Atomic      Atomic             Coordinates (Angstroms)
 Number     Number       Type             X           Y           Z
 ---------------------------------------------------------------------
      1          6           0       -5.207233   -2.025216    0.529528
      2          6           0       -4.551455    2.783738    1.383554
      3          6           0       -9.144786    3.368427   -0.156022
      4          6           0       -9.878580   -1.288922   -0.933742
      5          7           0       -5.114382    0.425070    0.862214
      6          6           0       -4.552533   -0.860958    0.899661
      7          6           0       -3.116721   -0.636385    1.295563
      8          6           0       -3.088105    0.767253    1.867899
      9          6           0       -4.345593    1.354707    1.368172
     10          6           0       -3.095953    0.688236    3.479084
     11          6           0       -2.105160   -0.876880    0.157962
     12          6           0       -0.580441   -0.915916    0.625296
     13          6           0        0.264764   -1.102048   -0.573320
     14          8           0       -0.061060   -1.421547   -1.693190
     15          8           0        1.505709   -0.917412   -0.153468
     16          7           0       -6.866841    2.802490    0.536686
     17          6           0       -5.759287    3.395041    0.978359
     18          6           0       -5.967221    4.785829    1.083388
     19          6           0       -7.331496    4.993036    0.624398
     20          6           0       -7.886416    3.739130    0.270568
     21          6           0       -5.077097    5.765712    1.508519
     22          6           0       -8.009173    6.346087    0.498618
     23          6           0       -8.769126    6.699025   -0.553819
     24          7           0       -9.100026    1.010207   -0.445509
     25          6           0       -9.712815    2.150641   -0.491946
     26          6           0      -11.107287    2.023463   -0.860228
     27          6           0      -11.245896    0.663596   -1.337156
     28          6           0       -9.998630    0.071970   -0.979044
     29          6           0      -12.034592    3.196187   -1.075789
     30          6           0      -12.521418    0.006258   -1.875164
     31          6           0      -12.630899   -0.069174   -3.427706
     32          7           0       -7.599399   -1.260848   -0.053067
     33          6           0       -8.676389   -1.948128   -0.535588
     34          6           0       -8.249192   -3.335287   -0.786752
     35          6           0       -6.950893   -3.436216   -0.336751
     36          6           0       -6.606466   -2.074633    0.126584
     37          6           0       -9.179514   -4.413504   -1.304353
     38          6           0       -5.821855   -4.323429   -0.043101
     39          8           0       -5.814776   -5.573319   -0.253076
     40          6           0       -4.611524   -3.394928    0.427542
     41          6           0       -4.013529   -3.978021    1.790418
     42          8           0       -4.211546   -3.527385    2.910636
     43          8           0       -3.179466   -4.955961    1.559525
     44          6           0       -2.630024   -5.575775    2.732746
     45          6           0        2.553973   -1.084876   -1.215356
     46          6           0        3.820078   -0.775718   -0.561045
     47          6           0        4.964380   -0.143548   -1.122315
     48          6           0        4.989664    0.495812   -2.443325
     49          6           0        6.115893    0.127032   -0.135002
     50          6           0        7.372688   -0.511978   -0.797811
     51          6           0        8.705852   -0.384454    0.060977
     52          6           0       10.099808   -0.764943   -0.702913
     53          6           0       10.163044   -2.313801   -0.978817
     54          6           0       11.306317   -0.287351    0.023493
     55          6           0       12.588194   -0.504063   -0.626974
     56          6           0       13.790177   -0.030296    0.187893
     57          6           0       15.188516   -0.080988   -0.518970
     58          6           0       15.605953   -1.559283   -0.730907
     59          6           0       16.181996    0.797783    0.309301
     60          6           0       17.662076    0.780997   -0.226917
     61          6           0       18.494087    1.815016    0.490984
     62          6           0       19.950719    1.635986    0.210820
     63          6           0       20.290326    2.170830   -1.254861
     64          6           0       20.845224    2.557265    1.227328
     65          1           0       -3.739217    3.548414    1.762761
     66          1           0       -9.903091    4.276503   -0.181039
     67          1           0      -10.646061   -1.909106   -1.311032
     68          1           0       -2.807220   -1.568831    1.938000
     69          1           0       -2.102497    1.181061    1.424296
     70          1           0       -2.242265    0.063304    3.991434
     71          1           0       -3.048386    1.654564    3.838496
     72          1           0       -4.039817    0.019637    3.618223
     73          1           0       -2.296959   -1.880194   -0.277263
     74          1           0       -2.075131   -0.344588   -0.913273
     75          1           0        0.000938    0.011992    1.035667
     76          1           0       -0.335541   -1.652532    1.267466
     77          1           0       -4.470504    6.282114    0.513328
     78          1           0       -5.643960    6.791372    1.985326
     79          1           0       -4.286989    5.327540    2.332870
     80          1           0       -7.610298    7.103976    1.278118
     81          1           0       -9.102861    5.997054   -1.510201
     82          1           0       -9.276720    7.857736   -0.660766
     83          1           0      -12.281797    3.679776   -0.209873
     84          1           0      -11.935518    4.029675   -1.835729
     85          1           0      -13.003019    2.854979   -1.098881
     86          1           0      -12.940328   -1.082295   -1.348212
     87          1           0      -13.363106    0.730668   -1.413618
     88          1           0      -12.271053    0.973566   -3.862367
     89          1           0      -11.769819   -0.715881   -3.708256
     90          1           0      -13.639193   -0.467533   -3.735274
     91          1           0      -10.213378   -4.414423   -0.872859
     92          1           0       -9.229087   -4.390398   -2.512737
     93          1           0       -8.800064   -5.441791   -0.946590
     94          1           0       -3.798876   -3.776373   -0.277909
     95          1           0       -1.975737   -6.325579    2.402248
     96          1           0       -2.058229   -5.020153    3.255224
     97          1           0       -3.421428   -5.814487    3.573726
     98          1           0        2.314293   -2.136327   -1.253587
     99          1           0        2.254612   -0.686911   -2.153227
    100          1           0        3.892803   -1.297094    0.295705
    101          1           0        5.183818    1.621934   -2.511147
    102          1           0        5.821038   -0.126884   -3.053737
    103          1           0        4.002883    0.355134   -3.033419
    104          1           0        6.115717    1.237087   -0.111298
    105          1           0        5.883364   -0.091912    0.831797
    106          1           0        7.193780   -1.567992   -0.985678
    107          1           0        7.526123   -0.213222   -1.700678
    108          1           0        8.850651    0.731978    0.437025
    109          1           0        8.596870   -1.069992    0.849490
    110          1           0       10.069608   -0.255466   -1.685025
    111          1           0        9.323226   -2.736183   -1.527519
    112          1           0       11.105713   -2.654491   -1.687451
    113          1           0       10.326132   -2.802123    0.096375
    114          1           0       11.094005    0.787339    0.405323
    115          1           0       11.233056   -1.014265    1.063659
    116          1           0       12.745571   -1.452347   -0.966811
    117          1           0       12.624255    0.172900   -1.598850
    118          1           0       13.678113    0.898403    0.527498
    119          1           0       14.014647   -0.644339    0.995269
    120          1           0       15.104677    0.351796   -1.606763
    121          1           0       14.818145   -2.053026   -1.350536
    122          1           0       16.598909   -1.718356   -1.120194
    123          1           0       15.735733   -2.283569    0.219057
    124          1           0       15.769126    1.870678    0.102751
    125          1           0       16.091130    0.395813    1.464482
    126          1           0       18.177286   -0.146421   -0.157799
    127          1           0       17.576140    1.018095   -1.301556
    128          1           0       18.171116    2.918171    0.396737
    129          1           0       18.340319    1.480725    1.641259
    130          1           0       20.285250    0.552804    0.339490
    131          1           0       19.918762    3.097623   -1.456361
    132          1           0       21.311115    2.296238   -1.367827
    133          1           0       19.962609    1.370937   -2.043722
    134          1           0       20.885544    1.905775    2.037765
    135          1           0       21.979356    2.623123    0.715195
    136          1           0       20.451273    3.548870    1.358344
    137          1           0       -7.182725    1.722957    0.529089
    138          1           0       -7.641772   -0.154693    0.122102
 ---------------------------------------------------------------------

 SCF Done:  E(RB3LYP) =  -2733.05016719     A.U. after   18 cycles

 Excitation energies and oscillator strengths:

 Excited State   1:      Singlet-A      2.1007 eV  590.21 nm  f=0.1504  <S**2>=0.000
     235 -> 237        0.19142
     235 -> 238        0.29149
     236 -> 237        0.59797
     236 -> 238       -0.11559
 This state for optimization and/or second-order correction.
 Total Energy, E(TD-HF/TD-KS) =  -2732.97296868
 Copying the excited state density for this state as the 1-particle RhoCI density.

 The electronic state is 1-A.
 Alpha  occ. eigenvalues --  -19.19076 -19.16809 -19.12098 -19.11766 -19.11754
 Alpha  occ. eigenvalues --  -14.38115 -14.36610 -14.31622 -14.30347 -10.31861
 Alpha  occ. eigenvalues --  -10.30209 -10.28144 -10.23947 -10.23795 -10.23725
 Alpha  occ. eigenvalues --  -10.23614 -10.23383 -10.23358 -10.23322 -10.22943
 Alpha  occ. eigenvalues --  -10.22912 -10.22711 -10.22538 -10.22072 -10.21983
 Alpha  occ. eigenvalues --  -10.21804 -10.21460 -10.21441 -10.21093 -10.21050
 Alpha  occ. eigenvalues --  -10.21028 -10.20911 -10.20906 -10.20368 -10.20261
 Alpha  occ. eigenvalues --  -10.20194 -10.20112 -10.20109 -10.20079 -10.20036
 Alpha  occ. eigenvalues --  -10.19961 -10.19902 -10.19808 -10.19654 -10.19605
 Alpha  occ. eigenvalues --  -10.19582 -10.19573 -10.19516 -10.19416 -10.19406
 Alpha  occ. eigenvalues --  -10.19318 -10.19235 -10.19187 -10.19159 -10.18994
 Alpha  occ. eigenvalues --  -10.18614 -10.18487 -10.18464 -10.18063 -10.17985
 Alpha  occ. eigenvalues --  -10.17942 -10.17631 -10.16858 -10.16200  -1.11221
 Alpha  occ. eigenvalues --   -1.09283  -1.00178  -1.00079  -1.00024  -0.99123
 Alpha  occ. eigenvalues --   -0.97940  -0.94678  -0.94402  -0.84272  -0.82649
 Alpha  occ. eigenvalues --   -0.82023  -0.81600  -0.81136  -0.80720  -0.80319
 Alpha  occ. eigenvalues --   -0.79986  -0.79389  -0.78981  -0.78477  -0.77828
 Alpha  occ. eigenvalues --   -0.76570  -0.75844  -0.75741  -0.74597  -0.74341
 Alpha  occ. eigenvalues --   -0.74130  -0.73074  -0.72511  -0.71522  -0.70429
 Alpha  occ. eigenvalues --   -0.69864  -0.69421  -0.68827  -0.68088  -0.67698
 Alpha  occ. eigenvalues --   -0.67146  -0.66753  -0.65830  -0.65635  -0.64702
 Alpha  occ. eigenvalues --   -0.64084  -0.62898  -0.62706  -0.61558  -0.60820
 Alpha  occ. eigenvalues --   -0.60252  -0.59929  -0.58554  -0.58211  -0.57957
 Alpha  occ. eigenvalues --   -0.57194  -0.56374  -0.55667  -0.55274  -0.55063
 Alpha  occ. eigenvalues --   -0.54962  -0.54808  -0.53457  -0.53434  -0.53179
 Alpha  occ. eigenvalues --   -0.52110  -0.51888  -0.51362  -0.50704  -0.50330
 Alpha  occ. eigenvalues --   -0.49961  -0.49387  -0.49017  -0.48984  -0.48454
 Alpha  occ. eigenvalues --   -0.47757  -0.47423  -0.47188  -0.46967  -0.46491
 Alpha  occ. eigenvalues --   -0.46313  -0.45973  -0.45854  -0.45555  -0.45464
 Alpha  occ. eigenvalues --   -0.45318  -0.45041  -0.44961  -0.44680  -0.44184
 Alpha  occ. eigenvalues --   -0.44079  -0.43716  -0.43581  -0.43365  -0.43051
 Alpha  occ. eigenvalues --   -0.42765  -0.42730  -0.42589  -0.42479  -0.42398
 Alpha  occ. eigenvalues --   -0.42212  -0.42051  -0.41666  -0.41412  -0.41326
 Alpha  occ. eigenvalues --   -0.41241  -0.40994  -0.40841  -0.40712  -0.40398
 Alpha  occ. eigenvalues --   -0.40311  -0.40192  -0.40062  -0.39533  -0.39182
 Alpha  occ. eigenvalues --   -0.38960  -0.38768  -0.38696  -0.38676  -0.38356
 Alpha  occ. eigenvalues --   -0.38094  -0.38016  -0.37781  -0.37720  -0.37552
 Alpha  occ. eigenvalues --   -0.37391  -0.37109  -0.37003  -0.36747  -0.36547
 Alpha  occ. eigenvalues --   -0.36369  -0.36185  -0.35896  -0.35826  -0.35699
 Alpha  occ. eigenvalues --   -0.35572  -0.35258  -0.35055  -0.34900  -0.34874
 Alpha  occ. eigenvalues --   -0.34550  -0.34363  -0.34299  -0.34045  -0.33614
 Alpha  occ. eigenvalues --   -0.33537  -0.33225  -0.32925  -0.32696  -0.32662
 Alpha  occ. eigenvalues --   -0.32138  -0.32037  -0.31842  -0.31702  -0.31405
 Alpha  occ. eigenvalues --   -0.30799  -0.30739  -0.30551  -0.30501  -0.29787
 Alpha  occ. eigenvalues --   -0.29771  -0.29336  -0.28608  -0.28064  -0.27598
 Alpha  occ. eigenvalues --   -0.27413  -0.27324  -0.26672  -0.26323  -0.25322
 Alpha  occ. eigenvalues --   -0.24582  -0.23861  -0.23596  -0.22708  -0.19704
 Alpha  occ. eigenvalues --   -0.19301
 Alpha virt. eigenvalues --   -0.10373  -0.07874  -0.04767  -0.02109  -0.01945
 Alpha virt. eigenvalues --   -0.00631   0.00391   0.01499   0.02356   0.02879
 Alpha virt. eigenvalues --    0.03714   0.04049   0.04458   0.04532   0.04639

 Mulliken charges:
               1
     1  C    0.066598
     2  C   -0.120126
     3  C   -0.121883
     4  C   -0.070527
     5  N   -0.179295
     6  C   -0.041392
     7  C   -0.026768
     8  C   -0.021218
     9  C    0.011717
    10  C    0.040414
    11  C   -0.018335
    12  C    0.056822
    13  C    0.141290
    14  O   -0.247380
    15  O   -0.346518
    16  N   -0.117102
    17  C    0.118735
    18  C   -0.051909
    19  C    0.010752
    20  C    0.077722
    21  C   -0.106775
    22  C   -0.008398
    23  C   -0.132394
    24  N   -0.239889
    25  C    0.055741
    26  C   -0.164597
    27  C   -0.066971
    28  C    0.120034
    29  C    0.200228
    30  C   -0.072254
    31  C    0.006307
    32  N   -0.004680
    33  C    0.046729
    34  C   -0.143712
    35  C    0.023183
    36  C    0.026597
    37  C    0.013439
    38  C    0.087744
    39  O   -0.225195
    40  C   -0.090930
    41  C    0.182310
    42  O   -0.247836
    43  O   -0.263459
    44  C    0.270356
    45  C    0.307110
    46  C   -0.029251
    47  C   -0.161724
    48  C    0.005280
    49  C    0.159093
    50  C    0.073173
    51  C    0.038663
    52  C   -0.066784
    53  C   -0.048251
    54  C   -0.016979
    55  C    0.111333
    56  C    0.142019
    57  C   -0.125222
    58  C   -0.008157
    59  C   -0.018195
    60  C    0.063946
    61  C    0.008940
    62  C   -0.158421
    63  C    0.080393
    64  C    0.023498
    65  H    0.013113
    66  H    0.015251
    67  H   -0.035887
    68  H    0.017368
    69  H    0.015642
    70  H    0.027535
    71  H   -0.000159
    72  H    0.049692
    73  H    0.003187
    74  H    0.034732
    75  H    0.045539
    76  H   -0.012349
    77  H    0.064394
    78  H    0.048499
    79  H    0.058863
    80  H    0.028768
    81  H    0.075644
    82  H    0.053378
    83  H   -0.037111
    84  H    0.037741
    85  H   -0.055775
    86  H    0.031605
    87  H    0.023952
    88  H    0.034164
    89  H    0.015502
    90  H    0.041094
    91  H    0.033807
    92  H    0.056660
    93  H    0.050370
    94  H    0.079553
    95  H    0.015534
    96  H   -0.042457
    97  H    0.047560
    98  H   -0.004440
    99  H    0.014400
   100  H   -0.048746
   101  H    0.046250
   102  H    0.049201
   103  H    0.023171
   104  H    0.003421
   105  H   -0.033013
   106  H   -0.008656
   107  H   -0.064386
   108  H    0.010310
   109  H   -0.013124
   110  H   -0.015409
   111  H    0.014807
   112  H    0.029502
   113  H    0.025078
   114  H    0.007282
   115  H   -0.007118
   116  H   -0.040044
   117  H   -0.010858
   118  H   -0.057997
   119  H   -0.033199
   120  H   -0.003066
   121  H    0.016204
   122  H    0.003317
   123  H    0.003623
   124  H    0.015772
   125  H    0.021537
   126  H   -0.012235
   127  H   -0.005371
   128  H    0.011339
   129  H   -0.004342
   130  H    0.006549
   131  H   -0.021039
   132  H   -0.023325
   133  H    0.015693
   134  H    0.003655
   135  H    0.016806
   136  H    0.019582
   137  H    0.200707
   138  H    0.205119
 Sum of Mulliken charges =   0.00000

 Dipole moment (field-independent basis, Debye):
    X=              2.9066    Y=              4.2029    Z=              0.3924  Tot=              5.1251
 Quadrupole moment (field-independent basis, Debye-Ang):
   XX=           -351.4640   YY=           -384.7699   ZZ=           -397.1927
   XY=            -27.6461   XZ=              2.7775   YZ=             -4.3941

 Normal termination of Gaussian 09 at Sun Jul 28 09:06:07 2019.
