 Gaussian 09, Revision D.01,
 Gaussian 09:  ES64L-G09RevD.01 24-Apr-2013

 --------------------------
 # td=(NStates=1) B3LYP/SVP
 --------------------------

 --
 TD
 --
 Symbolic Z-matrix:
 Charge =  0 Multiplicity = 1

                         Standard orientation:
 ---------------------------------------------------------------------
 Center     Atomic      Atomic             Coordinates (Angstroms)
 Number     Number       Type             X           Y           Z
 ---------------------------------------------------------------------
      1          6           0       -5.136512   -1.921358    0.373344
      2          6           0       -4.846515    2.672456    1.582052
      3          6           0       -9.199138    3.441011   -0.219612
      4          6           0       -9.893393   -1.403294   -1.089169
      5          7           0       -5.164676    0.417399    0.809877
      6          6           0       -4.477162   -0.778449    0.732816
      7          6           0       -3.083925   -0.715015    1.326813
      8          6           0       -3.078869    0.804161    1.874591
      9          6           0       -4.427451    1.322294    1.399692
     10          6           0       -2.779300    0.861015    3.423990
     11          6           0       -2.099697   -0.783750    0.122076
     12          6           0       -0.609505   -0.903998    0.681686
     13          6           0        0.336651   -1.279987   -0.432487
     14          8           0        0.104412   -2.029251   -1.469966
     15          8           0        1.631963   -0.788622   -0.133977
     16          7           0       -7.074280    2.784275    0.582841
     17          6           0       -5.891388    3.430406    1.188439
     18          6           0       -6.152719    4.812969    1.084734
     19          6           0       -7.474240    5.067749    0.468163
     20          6           0       -7.919805    3.764017    0.258971
     21          6           0       -5.154265    5.803994    1.588520
     22          6           0       -8.040262    6.352752    0.298881
     23          6           0       -9.067403    6.783376   -0.513881
     24          7           0       -9.170540    0.951765   -0.613932
     25          6           0       -9.689703    2.172735   -0.673531
     26          6           0      -11.226875    2.044416   -0.952681
     27          6           0      -11.376471    0.714276   -1.245209
     28          6           0      -10.166049   -0.065962   -1.009256
     29          6           0      -12.231640    3.126883   -1.237791
     30          6           0      -12.677626   -0.077850   -1.698016
     31          6           0      -12.698104   -0.368719   -3.312895
     32          7           0       -7.522165   -1.220311   -0.292325
     33          6           0       -8.681854   -1.934001   -0.659226
     34          6           0       -8.314505   -3.343642   -0.731001
     35          6           0       -6.990576   -3.347369   -0.296049
     36          6           0       -6.549656   -2.007058   -0.056521
     37          6           0       -9.166635   -4.503982   -1.095497
     38          6           0       -5.899699   -4.278798   -0.016886
     39          8           0       -5.833107   -5.551501   -0.140526
     40          6           0       -4.613752   -3.395205    0.462874
     41          6           0       -3.934604   -3.829127    1.779860
     42          8           0       -4.253344   -3.418759    2.869523
     43          8           0       -3.059480   -4.799890    1.503756
     44          6           0       -2.432999   -5.387840    2.730481
     45          6           0        2.673109   -1.194447   -1.047953
     46          6           0        3.932513   -0.781037   -0.439191
     47          6           0        4.963624   -0.107345   -1.005281
     48          6           0        4.901564    0.482281   -2.445802
     49          6           0        6.205899    0.198313   -0.259938
     50          6           0        7.427784   -0.619909   -0.764365
     51          6           0        8.790404   -0.354320    0.000392
     52          6           0       10.119069   -0.840807   -0.645367
     53          6           0       10.272805   -2.333017   -0.728001
     54          6           0       11.310329   -0.242740    0.061152
     55          6           0       12.655467   -0.732202   -0.413514
     56          6           0       13.848632    0.071220    0.073064
     57          6           0       15.157049   -0.211422   -0.495565
     58          6           0       15.603847   -1.654934   -0.273286
     59          6           0       16.265046    0.713971    0.199372
     60          6           0       17.752990    0.696682   -0.235968
     61          6           0       18.631680    1.893483    0.474318
     62          6           0       20.011049    1.869622   -0.062738
     63          6           0       20.243999    2.284358   -1.463652
     64          6           0       20.836944    2.779195    0.884278
     65          1           0       -4.080990    3.147288    2.029161
     66          1           0       -9.947450    4.320103   -0.333653
     67          1           0      -10.837703   -1.854255   -1.493017
     68          1           0       -2.904947   -1.415688    2.070400
     69          1           0       -2.314207    1.470768    1.499939
     70          1           0       -1.860112    0.384357    3.763026
     71          1           0       -2.993447    1.928631    3.758852
     72          1           0       -3.511182    0.429551    4.073774
     73          1           0       -2.208849   -1.776983   -0.452922
     74          1           0       -2.411036   -0.141979   -0.645488
     75          1           0       -0.199266    0.003505    1.166394
     76          1           0       -0.649306   -1.668611    1.459801
     77          1           0       -4.286477    5.901945    0.903767
     78          1           0       -5.727010    6.877626    2.161124
     79          1           0       -4.783794    5.370750    2.441079
     80          1           0       -7.560907    7.226018    0.796966
     81          1           0       -9.561033    6.147190   -1.427619
     82          1           0       -9.413289    7.914925   -0.358183
     83          1           0      -12.323074    3.632987   -0.273591
     84          1           0      -11.885279    3.795223   -2.039009
     85          1           0      -13.170447    2.658042   -1.463610
     86          1           0      -12.707731   -1.202707   -1.229951
     87          1           0      -13.306392    0.612218   -1.428774
     88          1           0      -12.626531    0.492199   -3.821939
     89          1           0      -11.682321   -1.004375   -3.602475
     90          1           0      -13.621042   -1.072396   -3.354618
     91          1           0      -10.020037   -4.525364   -0.404415
     92          1           0       -9.382047   -4.329663   -2.226047
     93          1           0       -8.559697   -5.399235   -1.027295
     94          1           0       -3.906311   -3.684023   -0.415232
     95          1           0       -1.905900   -6.165800    2.210888
     96          1           0       -1.827985   -4.626975    3.138998
     97          1           0       -3.326991   -5.611218    3.476995
     98          1           0        2.662974   -2.268039   -1.188933
     99          1           0        2.572346   -0.938492   -1.999374
    100          1           0        4.262070   -1.282881    0.544822
    101          1           0        5.233781    1.655179   -2.638974
    102          1           0        5.473382   -0.092923   -3.236121
    103          1           0        3.893583    0.337728   -3.040760
    104          1           0        6.603199    1.198649   -0.432176
    105          1           0        6.165036    0.003911    0.894493
    106          1           0        7.263123   -1.760540   -0.980187
    107          1           0        7.791198   -0.399287   -1.835454
    108          1           0        8.774776    0.618227   -0.185451
    109          1           0        8.737914   -0.613553    1.067354
    110          1           0       10.175452   -0.348790   -1.616153
    111          1           0        9.135975   -2.912542   -0.968574
    112          1           0       10.965244   -2.838506   -1.523290
    113          1           0       10.496347   -2.656267    0.517206
    114          1           0       11.178263    0.808767    0.031586
    115          1           0       11.460908   -0.548605    1.164325
    116          1           0       12.684684   -2.017324   -0.146954
    117          1           0       12.960145   -0.718244   -1.542511
    118          1           0       13.746456    1.107870    0.026490
    119          1           0       13.681231   -0.224722    1.125349
    120          1           0       15.408186   -0.050398   -1.500213
    121          1           0       14.810725   -2.514808   -0.644444
    122          1           0       16.540382   -1.886971   -0.689881
    123          1           0       15.693661   -2.092986    0.935841
    124          1           0       15.994772    1.858817    0.139143
    125          1           0       16.280498    0.525975    1.303658
    126          1           0       18.319411   -0.390420    0.030219
    127          1           0       17.875917    0.780139   -1.395418
    128          1           0       18.136587    2.890264    0.113504
    129          1           0       18.725231    1.936711    1.630784
    130          1           0       20.406265    0.980962   -0.025232
    131          1           0       19.398803    3.154568   -1.754484
    132          1           0       21.329226    2.596045   -1.698476
    133          1           0       20.092210    1.461900   -2.306171
    134          1           0       20.690142    2.519284    1.915584
    135          1           0       21.811165    2.577222    0.627398
    136          1           0       20.781575    3.790247    0.575563
    137          1           0       -7.093280    1.787459    0.291344
    138          1           0       -7.567670   -0.291675   -0.275845
 ---------------------------------------------------------------------

 SCF Done:  E(RB3LYP) =  -2732.99673623     A.U. after   17 cycles

 Excitation energies and oscillator strengths:

 Excited State   1:      Singlet-A      1.9967 eV  620.95 nm  f=0.1803  <S**2>=0.000
     235 -> 237       -0.24698
     235 -> 238       -0.22669
     236 -> 237        0.60361
     236 -> 238       -0.13302
 This state for optimization and/or second-order correction.
 Total Energy, E(TD-HF/TD-KS) =  -2732.92335898
 Copying the excited state density for this state as the 1-particle RhoCI density.

 The electronic state is 1-A.
 Alpha  occ. eigenvalues --  -19.18284 -19.18039 -19.13412 -19.12549 -19.11406
 Alpha  occ. eigenvalues --  -14.37471 -14.35983 -14.32337 -14.29977 -10.33014
 Alpha  occ. eigenvalues --  -10.31569 -10.27887 -10.25253 -10.23919 -10.23724
 Alpha  occ. eigenvalues --  -10.23611 -10.23472 -10.23415 -10.23290 -10.22650
 Alpha  occ. eigenvalues --  -10.22135 -10.22128 -10.21923 -10.21842 -10.21613
 Alpha  occ. eigenvalues --  -10.21548 -10.21522 -10.21417 -10.21401 -10.21227
 Alpha  occ. eigenvalues --  -10.21173 -10.21117 -10.21110 -10.21102 -10.21051
 Alpha  occ. eigenvalues --  -10.20788 -10.20773 -10.20375 -10.20357 -10.20338
 Alpha  occ. eigenvalues --  -10.19999 -10.19980 -10.19918 -10.19913 -10.19873
 Alpha  occ. eigenvalues --  -10.19824 -10.19781 -10.19575 -10.19329 -10.19327
 Alpha  occ. eigenvalues --  -10.19325 -10.19289 -10.19071 -10.19064 -10.18901
 Alpha  occ. eigenvalues --  -10.18785 -10.18686 -10.18680 -10.18458 -10.18395
 Alpha  occ. eigenvalues --  -10.17856 -10.17233 -10.16867 -10.16173  -1.09152
 Alpha  occ. eigenvalues --   -1.06620  -1.00916  -1.00686  -0.98111  -0.97520
 Alpha  occ. eigenvalues --   -0.97118  -0.94971  -0.91046  -0.83488  -0.83041
 Alpha  occ. eigenvalues --   -0.82289  -0.81953  -0.81785  -0.81746  -0.81152
 Alpha  occ. eigenvalues --   -0.80832  -0.80636  -0.79291  -0.78329  -0.77803
 Alpha  occ. eigenvalues --   -0.76896  -0.75995  -0.74966  -0.74723  -0.74094
 Alpha  occ. eigenvalues --   -0.73540  -0.73001  -0.72612  -0.71256  -0.71130
 Alpha  occ. eigenvalues --   -0.70530  -0.69378  -0.69030  -0.67594  -0.67400
 Alpha  occ. eigenvalues --   -0.67335  -0.66325  -0.66103  -0.65716  -0.65398
 Alpha  occ. eigenvalues --   -0.64164  -0.63570  -0.63076  -0.62058  -0.61663
 Alpha  occ. eigenvalues --   -0.61382  -0.59371  -0.58583  -0.58304  -0.57887
 Alpha  occ. eigenvalues --   -0.57441  -0.56361  -0.56233  -0.55610  -0.55255
 Alpha  occ. eigenvalues --   -0.55185  -0.54887  -0.54384  -0.53531  -0.53337
 Alpha  occ. eigenvalues --   -0.52314  -0.51898  -0.51465  -0.50976  -0.50075
 Alpha  occ. eigenvalues --   -0.49452  -0.49399  -0.48705  -0.48641  -0.48480
 Alpha  occ. eigenvalues --   -0.48189  -0.47610  -0.47414  -0.47213  -0.46955
 Alpha  occ. eigenvalues --   -0.46816  -0.46357  -0.46185  -0.46090  -0.45939
 Alpha  occ. eigenvalues --   -0.45820  -0.45314  -0.45233  -0.44959  -0.44711
 Alpha  occ. eigenvalues --   -0.44401  -0.43894  -0.43750  -0.43455  -0.43259
 Alpha  occ. eigenvalues --   -0.43228  -0.43162  -0.43025  -0.42894  -0.42621
 Alpha  occ. eigenvalues --   -0.42278  -0.42232  -0.42111  -0.41797  -0.41573
 Alpha  occ. eigenvalues --   -0.41449  -0.40905  -0.40806  -0.40736  -0.40620
 Alpha  occ. eigenvalues --   -0.39768  -0.39507  -0.39462  -0.39423  -0.39175
 Alpha  occ. eigenvalues --   -0.38847  -0.38684  -0.38483  -0.38463  -0.38255
 Alpha  occ. eigenvalues --   -0.38190  -0.37831  -0.37659  -0.37478  -0.37247
 Alpha  occ. eigenvalues --   -0.36907  -0.36741  -0.36615  -0.36425  -0.36233
 Alpha  occ. eigenvalues --   -0.36103  -0.35946  -0.35866  -0.35636  -0.35568
 Alpha  occ. eigenvalues --   -0.35467  -0.35390  -0.35268  -0.35127  -0.34914
 Alpha  occ. eigenvalues --   -0.34727  -0.34667  -0.34494  -0.34362  -0.34216
 Alpha  occ. eigenvalues --   -0.34047  -0.33286  -0.33134  -0.32247  -0.32225
 Alpha  occ. eigenvalues --   -0.31740  -0.31518  -0.31505  -0.31422  -0.31417
 Alpha  occ. eigenvalues --   -0.31002  -0.30958  -0.30819  -0.30600  -0.30456
 Alpha  occ. eigenvalues --   -0.30281  -0.28660  -0.28654  -0.28323  -0.28110
 Alpha  occ. eigenvalues --   -0.27638  -0.27480  -0.26436  -0.26136  -0.24990
 Alpha  occ. eigenvalues --   -0.24971  -0.24176  -0.23378  -0.22581  -0.19687
 Alpha  occ. eigenvalues --   -0.19021
 Alpha virt. eigenvalues --   -0.10765  -0.07450  -0.04704  -0.03006  -0.02534
 Alpha virt. eigenvalues --   -0.00887  -0.00258   0.00404   0.02029   0.02765
 Alpha virt. eigenvalues --    0.03315   0.03408   0.03823   0.04339   0.04480

 Mulliken charges:
               1
     1  C    0.062673
     2  C   -0.009864
     3  C   -0.124861
     4  C   -0.059288
     5  N   -0.147327
     6  C   -0.116807
     7  C    0.028822
     8  C   -0.005020
     9  C   -0.064973
    10  C    0.044970
    11  C    0.002753
    12  C    0.087673
    13  C    0.230668
    14  O   -0.300952
    15  O   -0.342712
    16  N   -0.121932
    17  C    0.183972
    18  C   -0.137626
    19  C    0.098130
    20  C    0.112137
    21  C    0.065847
    22  C   -0.062977
    23  C   -0.119444
    24  N   -0.289881
    25  C    0.056072
    26  C   -0.219687
    27  C   -0.060754
    28  C    0.013065
    29  C    0.125672
    30  C    0.059428
    31  C   -0.010256
    32  N    0.142294
    33  C    0.115938
    34  C   -0.187661
    35  C    0.005871
    36  C    0.018756
    37  C    0.121068
    38  C    0.077978
    39  O   -0.241229
    40  C   -0.064220
    41  C    0.200299
    42  O   -0.230928
    43  O   -0.311830
    44  C    0.184160
    45  C    0.397745
    46  C   -0.111982
    47  C   -0.075536
    48  C   -0.045620
    49  C    0.103674
    50  C   -0.089959
    51  C    0.110171
    52  C   -0.019895
    53  C   -0.092183
    54  C    0.051373
    55  C   -0.095320
    56  C    0.119478
    57  C    0.036850
    58  C   -0.063036
    59  C   -0.016695
    60  C   -0.067424
    61  C    0.005773
    62  C   -0.013929
    63  C   -0.076342
    64  C    0.114187
    65  H   -0.098399
    66  H    0.000485
    67  H   -0.008035
    68  H   -0.010799
    69  H    0.003626
    70  H    0.023518
    71  H    0.005981
    72  H    0.001835
    73  H    0.037140
    74  H   -0.004486
    75  H    0.034274
    76  H    0.035390
    77  H    0.044641
    78  H    0.046060
    79  H    0.004309
    80  H    0.006571
    81  H    0.067313
    82  H    0.048540
    83  H    0.026086
    84  H    0.036205
    85  H   -0.002240
    86  H    0.033473
    87  H   -0.044616
    88  H    0.000586
    89  H    0.027848
    90  H    0.043340
    91  H    0.041725
    92  H    0.043203
    93  H    0.032823
    94  H    0.076436
    95  H    0.049787
    96  H    0.020300
    97  H    0.073501
    98  H    0.004844
    99  H   -0.054578
   100  H    0.007544
   101  H    0.045484
   102  H    0.032824
   103  H    0.021009
   104  H   -0.000687
   105  H    0.023408
   106  H    0.004884
   107  H   -0.006460
   108  H   -0.050724
   109  H   -0.001234
   110  H   -0.017176
   111  H    0.021632
   112  H    0.058094
   113  H    0.028582
   114  H   -0.022378
   115  H    0.000209
   116  H    0.036720
   117  H   -0.008435
   118  H   -0.027143
   119  H   -0.016117
   120  H   -0.020972
   121  H    0.023964
   122  H    0.002759
   123  H    0.008376
   124  H    0.001349
   125  H   -0.002045
   126  H    0.018407
   127  H    0.013642
   128  H    0.004695
   129  H    0.016299
   130  H   -0.059042
   131  H    0.018851
   132  H    0.021454
   133  H    0.021475
   134  H    0.003977
   135  H   -0.039536
   136  H   -0.008480
   137  H    0.163877
   138  H    0.054888
 Sum of Mulliken charges =   0.00000

 Dipole moment (field-independent basis, Debye):
    X=              2.8126    Y=              5.1902    Z=              0.6208  Tot=              5.9358
 Quadrupole moment (field-independent basis, Debye-Ang):
   XX=           -350.0513   YY=           -392.7858   ZZ=           -391.7166
   XY=            -23.9752   XZ=              6.8222   YZ=             -4.3438

 Normal termination of Gaussian 09 at Sun Jul 28 01:58:37 2019.
