 Gaussian 09, Revision D.01,
 Gaussian 09:  ES64L-G09RevD.01 24-Apr-2013

 --------------------------
 # td=(NStates=1) B3LYP/SVP
 --------------------------

 --
 TD
 --
 Symbolic Z-matrix:
 Charge =  0 Multiplicity = 1

                         Standard orientation:
 ---------------------------------------------------------------------
 Center     Atomic      Atomic             Coordinates (Angstroms)
 Number     Number       Type             X           Y           Z
 ---------------------------------------------------------------------
      1          6           0       -5.063223   -2.021437    0.320025
      2          6           0       -4.736059    2.659398    1.436295
      3          6           0       -9.258376    3.360625   -0.147403
      4          6           0       -9.930928   -1.433704   -0.547897
      5          7           0       -5.116591    0.395188    0.891796
      6          6           0       -4.395158   -0.860359    0.720260
      7          6           0       -3.087567   -0.662810    1.109397
      8          6           0       -3.006495    0.782793    1.861607
      9          6           0       -4.359114    1.309112    1.316517
     10          6           0       -2.913599    0.617172    3.334559
     11          6           0       -2.067501   -0.747165   -0.133990
     12          6           0       -0.682403   -0.785539    0.329474
     13          6           0        0.344305   -0.873666   -0.802769
     14          8           0        0.067797   -1.064477   -2.014329
     15          8           0        1.632615   -0.767657   -0.364293
     16          7           0       -6.969848    2.647340    0.554979
     17          6           0       -5.828934    3.313191    1.016545
     18          6           0       -6.134171    4.737813    1.090702
     19          6           0       -7.393757    4.968417    0.643189
     20          6           0       -7.924102    3.617311    0.279524
     21          6           0       -5.073688    5.723189    1.557608
     22          6           0       -8.001505    6.344632    0.514040
     23          6           0       -8.860033    6.606866   -0.591930
     24          7           0       -9.138052    0.945150   -0.452088
     25          6           0       -9.849236    2.073562   -0.455200
     26          6           0      -11.275675    1.995624   -0.813816
     27          6           0      -11.385412    0.646317   -0.909310
     28          6           0      -10.056345   -0.063184   -0.674508
     29          6           0      -12.226054    3.094191   -1.020666
     30          6           0      -12.616550   -0.026928   -1.427882
     31          6           0      -12.757482   -0.215712   -2.984741
     32          7           0       -7.527508   -1.301896   -0.157339
     33          6           0       -8.652802   -2.068477   -0.496329
     34          6           0       -8.283536   -3.498303   -0.480224
     35          6           0       -6.854549   -3.432819   -0.216644
     36          6           0       -6.489976   -2.165106   -0.004810
     37          6           0       -9.077018   -4.638314   -0.783876
     38          6           0       -5.784484   -4.405327   -0.017876
     39          8           0       -5.781576   -5.593020   -0.091422
     40          6           0       -4.584482   -3.426756    0.311502
     41          6           0       -3.914420   -3.993813    1.616309
     42          8           0       -4.166825   -3.566625    2.692888
     43          8           0       -3.101896   -4.945313    1.353292
     44          6           0       -2.448019   -5.620696    2.464471
     45          6           0        2.678311   -0.956166   -1.462502
     46          6           0        3.990266   -0.594704   -0.934939
     47          6           0        4.910718    0.397324   -1.244366
     48          6           0        4.738688    1.397306   -2.392813
     49          6           0        6.180425    0.470792   -0.383164
     50          6           0        7.454808   -0.253107   -1.036600
     51          6           0        8.722522   -0.000616   -0.278838
     52          6           0       10.004571   -0.637982   -0.888226
     53          6           0        9.880595   -2.102231   -1.051031
     54          6           0       11.224550   -0.254237   -0.046472
     55          6           0       12.644903   -0.604175   -0.637371
     56          6           0       13.744749   -0.046279    0.204280
     57          6           0       15.203444   -0.215455   -0.459179
     58          6           0       15.482846   -1.735724   -0.639873
     59          6           0       16.221718    0.451781    0.552208
     60          6           0       17.674595    0.537404   -0.055373
     61          6           0       18.590754    1.450811    0.884169
     62          6           0       20.120094    1.542370    0.322204
     63          6           0       20.190715    2.244724   -0.939787
     64          6           0       20.883031    2.129091    1.462027
     65          1           0       -3.761854    3.326716    1.658529
     66          1           0      -10.020251    4.099126   -0.304557
     67          1           0      -10.863500   -1.965907   -0.899236
     68          1           0       -2.744144   -1.432859    1.918525
     69          1           0       -2.301328    1.489762    1.313409
     70          1           0       -1.924012    0.135006    3.705116
     71          1           0       -2.816913    1.621494    3.729472
     72          1           0       -3.634860    0.078954    3.804956
     73          1           0       -2.273002   -1.571268   -0.751626
     74          1           0       -2.206227    0.053495   -0.787266
     75          1           0       -0.281648    0.063538    0.927989
     76          1           0       -0.398961   -1.589925    1.118253
     77          1           0       -3.741534    5.491349    1.052774
     78          1           0       -5.029062    6.849451    1.055095
     79          1           0       -5.166744    5.470800    2.759473
     80          1           0       -7.564810    7.123433    1.195201
     81          1           0       -8.817603    5.863381   -1.562209
     82          1           0       -9.218743    7.608391   -0.720567
     83          1           0      -12.283138    3.823477   -0.274309
     84          1           0      -11.724589    3.361294   -1.990417
     85          1           0      -13.234970    2.724595   -1.069214
     86          1           0      -12.901182   -0.946417   -0.881123
     87          1           0      -13.449421    0.806001   -1.085726
     88          1           0      -12.376058    0.630498   -3.458649
     89          1           0      -11.909671   -0.924250   -3.329032
     90          1           0      -13.700942   -0.498709   -3.488082
     91          1           0       -9.696940   -4.836438    0.111406
     92          1           0       -9.788810   -4.385314   -1.765300
     93          1           0       -8.197620   -5.551043   -1.142751
     94          1           0       -3.934323   -3.825839   -0.515248
     95          1           0       -2.197389   -6.539248    2.103324
     96          1           0       -1.577437   -4.925410    2.870754
     97          1           0       -3.323278   -5.949663    3.312093
     98          1           0        2.830459   -2.158534   -1.921489
     99          1           0        2.293819   -0.372120   -2.365152
    100          1           0        4.258575   -1.301152   -0.151878
    101          1           0        5.200747    2.464000   -2.289480
    102          1           0        5.395406    0.851834   -3.142797
    103          1           0        3.698262    1.362580   -2.779792
    104          1           0        6.182870    1.617595   -0.232656
    105          1           0        5.945401    0.131004    0.712183
    106          1           0        7.338587   -1.155558   -1.081851
    107          1           0        7.407518    0.065523   -2.022328
    108          1           0        9.117524    0.928819    0.095724
    109          1           0        8.599639   -0.315177    0.683003
    110          1           0       10.256873   -0.168817   -2.011457
    111          1           0        9.107751   -2.437131   -1.612085
    112          1           0       10.783072   -2.669886   -1.562331
    113          1           0       10.078986   -2.459058   -0.104744
    114          1           0       11.062117    0.811248    0.037678
    115          1           0       11.126475   -0.628676    0.820894
    116          1           0       12.783066   -1.724605   -0.625973
    117          1           0       12.839730   -0.198304   -1.690983
    118          1           0       13.453300    1.034178    0.290825
    119          1           0       13.537414   -0.538810    1.202022
    120          1           0       15.306429    0.212675   -1.317807
    121          1           0       14.660593   -2.164042   -1.363005
    122          1           0       16.314455   -1.738569   -1.112866
    123          1           0       15.674307   -2.310375    0.365804
    124          1           0       15.826810    1.529340    0.687369
    125          1           0       16.150199   -0.245941    1.432514
    126          1           0       18.114173   -0.514974   -0.011726
    127          1           0       17.792339    0.947009   -1.098342
    128          1           0       18.125497    2.539359    0.804529
    129          1           0       18.605642    0.968682    1.903813
    130          1           0       20.445637    0.356945    0.139452
    131          1           0       19.852924    3.188168   -1.043036
    132          1           0       21.113861    2.180620   -1.349430
    133          1           0       19.526612    1.742895   -1.666776
    134          1           0       20.921329    1.386833    2.471272
    135          1           0       21.931925    2.529292    1.093870
    136          1           0       20.428691    3.216574    1.919897
    137          1           0       -6.948324    1.607376    0.389355
    138          1           0       -7.500398   -0.339178    0.107155
 ---------------------------------------------------------------------

 SCF Done:  E(RB3LYP) =  -2732.94616423     A.U. after   16 cycles

 Excitation energies and oscillator strengths:

 Excited State   1:      Singlet-A      2.1180 eV  585.38 nm  f=0.1820  <S**2>=0.000
     235 -> 237        0.16137
     235 -> 238       -0.24116
     236 -> 237        0.62604
     236 -> 238        0.14322
 This state for optimization and/or second-order correction.
 Total Energy, E(TD-HF/TD-KS) =  -2732.86832822
 Copying the excited state density for this state as the 1-particle RhoCI density.

 The electronic state is 1-A.
 Alpha  occ. eigenvalues --  -19.18332 -19.17834 -19.12089 -19.11785 -19.10949
 Alpha  occ. eigenvalues --  -14.36853 -14.36474 -14.31696 -14.29511 -10.31457
 Alpha  occ. eigenvalues --  -10.30577 -10.27102 -10.26496 -10.26481 -10.25123
 Alpha  occ. eigenvalues --  -10.24907 -10.23571 -10.23092 -10.22838 -10.22366
 Alpha  occ. eigenvalues --  -10.22287 -10.22221 -10.21749 -10.21369 -10.21298
 Alpha  occ. eigenvalues --  -10.21288 -10.21269 -10.21022 -10.20954 -10.20919
 Alpha  occ. eigenvalues --  -10.20837 -10.20807 -10.20780 -10.20622 -10.20607
 Alpha  occ. eigenvalues --  -10.20566 -10.20336 -10.20272 -10.20128 -10.20122
 Alpha  occ. eigenvalues --  -10.19907 -10.19441 -10.19328 -10.19175 -10.19073
 Alpha  occ. eigenvalues --  -10.19055 -10.19047 -10.19041 -10.18664 -10.18553
 Alpha  occ. eigenvalues --  -10.18546 -10.18284 -10.18282 -10.18279 -10.18190
 Alpha  occ. eigenvalues --  -10.18007 -10.17984 -10.17601 -10.17494 -10.17295
 Alpha  occ. eigenvalues --  -10.17218 -10.16607 -10.16541 -10.16050  -1.11470
 Alpha  occ. eigenvalues --   -1.06781  -1.03755  -1.01114  -0.97606  -0.97593
 Alpha  occ. eigenvalues --   -0.97102  -0.94800  -0.93086  -0.84757  -0.82907
 Alpha  occ. eigenvalues --   -0.81801  -0.81510  -0.81182  -0.80723  -0.80112
 Alpha  occ. eigenvalues --   -0.80044  -0.79859  -0.79288  -0.78387  -0.77542
 Alpha  occ. eigenvalues --   -0.76970  -0.76030  -0.75349  -0.74697  -0.74088
 Alpha  occ. eigenvalues --   -0.73751  -0.73090  -0.72680  -0.72038  -0.70362
 Alpha  occ. eigenvalues --   -0.69273  -0.68850  -0.68803  -0.68468  -0.68411
 Alpha  occ. eigenvalues --   -0.67635  -0.67109  -0.65748  -0.65227  -0.64903
 Alpha  occ. eigenvalues --   -0.63652  -0.63504  -0.62263  -0.61406  -0.61166
 Alpha  occ. eigenvalues --   -0.60558  -0.59683  -0.57886  -0.57454  -0.56639
 Alpha  occ. eigenvalues --   -0.56127  -0.55863  -0.55490  -0.55185  -0.54703
 Alpha  occ. eigenvalues --   -0.54329  -0.54105  -0.54081  -0.53512  -0.52512
 Alpha  occ. eigenvalues --   -0.51940  -0.51330  -0.50822  -0.50493  -0.50067
 Alpha  occ. eigenvalues --   -0.49118  -0.49001  -0.48808  -0.48299  -0.48010
 Alpha  occ. eigenvalues --   -0.47823  -0.47732  -0.47146  -0.47070  -0.46800
 Alpha  occ. eigenvalues --   -0.46504  -0.46466  -0.46121  -0.46067  -0.45845
 Alpha  occ. eigenvalues --   -0.45385  -0.45117  -0.45050  -0.44893  -0.44790
 Alpha  occ. eigenvalues --   -0.44448  -0.44070  -0.43966  -0.43731  -0.43505
 Alpha  occ. eigenvalues --   -0.43357  -0.43137  -0.42947  -0.42578  -0.42339
 Alpha  occ. eigenvalues --   -0.42193  -0.41925  -0.41780  -0.41729  -0.41325
 Alpha  occ. eigenvalues --   -0.41218  -0.41163  -0.40922  -0.40777  -0.40573
 Alpha  occ. eigenvalues --   -0.40493  -0.40079  -0.40052  -0.39559  -0.39203
 Alpha  occ. eigenvalues --   -0.38977  -0.38783  -0.38598  -0.38539  -0.38399
 Alpha  occ. eigenvalues --   -0.38112  -0.37963  -0.37800  -0.37620  -0.37570
 Alpha  occ. eigenvalues --   -0.37438  -0.37296  -0.37020  -0.36887  -0.36819
 Alpha  occ. eigenvalues --   -0.36688  -0.36328  -0.36040  -0.35626  -0.35508
 Alpha  occ. eigenvalues --   -0.35102  -0.35031  -0.34829  -0.34804  -0.34484
 Alpha  occ. eigenvalues --   -0.34454  -0.33932  -0.33463  -0.33442  -0.33290
 Alpha  occ. eigenvalues --   -0.33236  -0.33062  -0.32853  -0.32751  -0.32741
 Alpha  occ. eigenvalues --   -0.32175  -0.31661  -0.31605  -0.31566  -0.31040
 Alpha  occ. eigenvalues --   -0.30997  -0.30726  -0.30407  -0.30318  -0.30006
 Alpha  occ. eigenvalues --   -0.29831  -0.29360  -0.27945  -0.27310  -0.27126
 Alpha  occ. eigenvalues --   -0.27063  -0.26220  -0.26031  -0.25561  -0.24742
 Alpha  occ. eigenvalues --   -0.24285  -0.24143  -0.23917  -0.22549  -0.19715
 Alpha  occ. eigenvalues --   -0.18429
 Alpha virt. eigenvalues --   -0.09717  -0.07113  -0.04514  -0.02694  -0.00994
 Alpha virt. eigenvalues --   -0.00414   0.00056   0.01375   0.02380   0.02583
 Alpha virt. eigenvalues --    0.03562   0.03756   0.03980   0.04134   0.04692

 Mulliken charges:
               1
     1  C    0.092567
     2  C   -0.080535
     3  C   -0.072893
     4  C   -0.070351
     5  N   -0.174290
     6  C    0.012827
     7  C   -0.135576
     8  C   -0.042573
     9  C   -0.101017
    10  C    0.145900
    11  C    0.171043
    12  C    0.009284
    13  C    0.196989
    14  O   -0.284505
    15  O   -0.334513
    16  N   -0.107742
    17  C    0.128106
    18  C   -0.055644
    19  C   -0.003643
    20  C    0.151709
    21  C   -0.112507
    22  C   -0.036991
    23  C   -0.065033
    24  N   -0.217477
    25  C   -0.034144
    26  C   -0.138268
    27  C   -0.105683
    28  C    0.058138
    29  C    0.160904
    30  C   -0.021357
    31  C    0.047734
    32  N   -0.026647
    33  C    0.077531
    34  C   -0.081464
    35  C   -0.040479
    36  C    0.053882
    37  C   -0.049922
    38  C    0.037343
    39  O   -0.143702
    40  C   -0.102736
    41  C    0.146219
    42  O   -0.213645
    43  O   -0.250835
    44  C    0.141259
    45  C    0.193197
    46  C   -0.075131
    47  C   -0.177516
    48  C    0.046046
    49  C   -0.009653
    50  C    0.273197
    51  C    0.116646
    52  C   -0.142054
    53  C    0.108750
    54  C    0.095295
    55  C    0.006827
    56  C    0.014540
    57  C   -0.011093
    58  C    0.063003
    59  C    0.021795
    60  C   -0.014634
    61  C   -0.031522
    62  C   -0.118115
    63  C    0.156943
    64  C   -0.049869
    65  H    0.003879
    66  H   -0.050224
    67  H    0.008016
    68  H    0.030414
    69  H    0.006725
    70  H    0.014392
    71  H   -0.001627
    72  H    0.010352
    73  H    0.000853
    74  H   -0.016860
    75  H    0.020307
    76  H    0.034853
    77  H    0.042796
    78  H    0.074122
    79  H    0.084821
    80  H    0.031738
    81  H    0.080947
    82  H    0.027685
    83  H    0.020066
    84  H    0.051310
    85  H   -0.002893
    86  H    0.011681
    87  H    0.005262
    88  H   -0.020448
    89  H    0.001427
    90  H    0.029234
    91  H    0.051525
    92  H    0.052774
    93  H    0.086789
    94  H    0.050056
    95  H    0.021940
    96  H    0.067211
    97  H    0.062901
    98  H    0.052671
    99  H    0.041603
   100  H   -0.008164
   101  H    0.043286
   102  H    0.034526
   103  H    0.027621
   104  H    0.012152
   105  H    0.015213
   106  H   -0.099220
   107  H   -0.034113
   108  H   -0.048149
   109  H   -0.061180
   110  H   -0.006519
   111  H   -0.010762
   112  H   -0.004379
   113  H   -0.031308
   114  H   -0.015786
   115  H   -0.073622
   116  H    0.009915
   117  H   -0.002885
   118  H   -0.011638
   119  H   -0.006102
   120  H   -0.069478
   121  H    0.027743
   122  H   -0.053136
   123  H    0.019522
   124  H    0.009234
   125  H    0.008862
   126  H    0.004921
   127  H    0.008539
   128  H    0.015536
   129  H    0.010447
   130  H    0.011939
   131  H   -0.028274
   132  H   -0.023163
   133  H   -0.018216
   134  H    0.038296
   135  H    0.015539
   136  H    0.018529
   137  H    0.167285
   138  H    0.126776
 Sum of Mulliken charges =   0.00000

 Dipole moment (field-independent basis, Debye):
    X=              3.5397    Y=              4.7635    Z=              0.5473  Tot=              5.9598
 Quadrupole moment (field-independent basis, Debye-Ang):
   XX=           -360.8062   YY=           -374.5151   ZZ=           -396.0168
   XY=            -33.7091   XZ=             -0.3193   YZ=             -7.1627

 Normal termination of Gaussian 09 at Thu Aug  1 19:47:00 2019.
