 Gaussian 09, Revision D.01,
 Gaussian 09:  ES64L-G09RevD.01 24-Apr-2013

 --------------------------
 # td=(NStates=1) B3LYP/SVP
 --------------------------

 --
 TD
 --
 Symbolic Z-matrix:
 Charge =  0 Multiplicity = 1

                         Standard orientation:
 ---------------------------------------------------------------------
 Center     Atomic      Atomic             Coordinates (Angstroms)
 Number     Number       Type             X           Y           Z
 ---------------------------------------------------------------------
      1          6           0       -5.128496   -2.034790    0.413137
      2          6           0       -4.633946    2.677486    1.574526
      3          6           0       -9.221594    3.412191   -0.225661
      4          6           0       -9.781397   -1.252004   -1.116199
      5          7           0       -5.112854    0.449756    0.847360
      6          6           0       -4.498400   -0.697209    0.839014
      7          6           0       -3.037631   -0.624336    1.265356
      8          6           0       -3.106837    0.788613    1.968977
      9          6           0       -4.346594    1.288281    1.461460
     10          6           0       -3.015593    0.672738    3.543395
     11          6           0       -2.086701   -0.798466    0.082389
     12          6           0       -0.556006   -0.651234    0.603337
     13          6           0        0.394387   -1.098815   -0.476406
     14          8           0        0.108045   -1.592608   -1.539535
     15          8           0        1.619664   -0.669387   -0.183596
     16          7           0       -7.042243    2.724303    0.594718
     17          6           0       -5.881502    3.332990    1.034592
     18          6           0       -6.075446    4.720555    1.120540
     19          6           0       -7.452377    4.949023    0.703440
     20          6           0       -7.947589    3.627431    0.300769
     21          6           0       -5.145077    5.717287    1.576573
     22          6           0       -8.025588    6.196027    0.545245
     23          6           0       -8.859201    6.579624   -0.548611
     24          7           0       -9.162861    0.962799   -0.461124
     25          6           0       -9.799494    2.150639   -0.491258
     26          6           0      -11.168686    1.995699   -1.081344
     27          6           0      -11.365639    0.683810   -1.244025
     28          6           0      -10.110826    0.069918   -0.948695
     29          6           0      -12.226131    3.059762   -1.229510
     30          6           0      -12.599349   -0.107771   -1.836217
     31          6           0      -12.461588   -0.423294   -3.273025
     32          7           0       -7.482779   -1.223140   -0.192881
     33          6           0       -8.537561   -1.979065   -0.719882
     34          6           0       -8.087601   -3.288469   -0.846189
     35          6           0       -6.817693   -3.386912   -0.431830
     36          6           0       -6.441057   -2.068749    0.009305
     37          6           0       -9.056060   -4.369009   -1.442538
     38          6           0       -5.661892   -4.341202   -0.175198
     39          8           0       -5.674592   -5.541741   -0.240127
     40          6           0       -4.507652   -3.395222    0.363047
     41          6           0       -4.043063   -3.833912    1.677796
     42          8           0       -4.426541   -3.443214    2.807156
     43          8           0       -3.159168   -4.879709    1.562265
     44          6           0       -2.844306   -5.633075    2.712950
     45          6           0        2.635197   -1.004877   -1.119351
     46          6           0        4.024036   -0.645539   -0.580574
     47          6           0        4.938761    0.118259   -1.108130
     48          6           0        4.896334    0.825901   -2.385994
     49          6           0        6.258925    0.361787   -0.293438
     50          6           0        7.515913   -0.398892   -0.819038
     51          6           0        8.736975   -0.125676   -0.016064
     52          6           0       10.016832   -0.774794   -0.600317
     53          6           0        9.859993   -2.319557   -0.523606
     54          6           0       11.213602   -0.219486    0.184899
     55          6           0       12.690602   -0.784916   -0.343723
     56          6           0       13.823031    0.065805    0.379546
     57          6           0       15.255478   -0.269551   -0.279733
     58          6           0       15.512366   -1.869824   -0.280196
     59          6           0       16.281909    0.545454    0.459326
     60          6           0       17.605946    0.627918   -0.213570
     61          6           0       18.594950    1.611518    0.445865
     62          6           0       20.014873    1.649327   -0.164818
     63          6           0       20.036611    2.104194   -1.703060
     64          6           0       20.805247    2.753600    0.603401
     65          1           0       -3.722757    3.423854    1.996961
     66          1           0       -9.895857    4.188364   -0.369088
     67          1           0      -10.486122   -2.025408   -1.364971
     68          1           0       -2.787473   -1.243703    2.079619
     69          1           0       -2.360183    1.498697    1.600319
     70          1           0       -2.030271    0.191110    3.952240
     71          1           0       -3.109019    1.654426    3.998190
     72          1           0       -3.856551    0.063184    3.984814
     73          1           0       -2.218418   -1.757465   -0.345795
     74          1           0       -2.396003    0.012183   -0.588468
     75          1           0       -0.404835    0.350282    1.111395
     76          1           0       -0.527907   -1.132903    1.429865
     77          1           0       -4.049478    5.557985    0.855100
     78          1           0       -5.209612    6.760050    1.434665
     79          1           0       -4.898931    5.553539    2.688711
     80          1           0       -7.827089    6.747126    1.431678
     81          1           0       -9.062860    5.863957   -1.561898
     82          1           0       -9.380011    7.421722   -0.759201
     83          1           0      -12.530085    3.741757   -0.231999
     84          1           0      -11.883732    3.816439   -1.837466
     85          1           0      -13.293191    2.749333   -1.708457
     86          1           0      -12.472334   -1.030690   -1.136712
     87          1           0      -13.482003    0.386339   -1.527659
     88          1           0      -12.203791    0.406453   -4.012380
     89          1           0      -11.497001   -1.116637   -3.157937
     90          1           0      -13.274819   -1.130030   -3.609208
     91          1           0       -9.830412   -4.594715   -0.586864
     92          1           0       -9.658031   -4.182094   -2.549642
     93          1           0       -8.395622   -5.139308   -1.608245
     94          1           0       -3.624945   -3.575475   -0.346569
     95          1           0       -2.019319   -6.443591    2.350658
     96          1           0       -2.453814   -4.840444    3.610978
     97          1           0       -3.720985   -6.322637    3.085251
     98          1           0        2.624011   -1.987101   -1.558373
     99          1           0        2.275156   -0.449826   -2.011369
    100          1           0        4.234001   -1.083112    0.429443
    101          1           0        5.273460    1.847532   -2.369534
    102          1           0        5.670704    0.469774   -3.071907
    103          1           0        3.921171    0.690970   -2.988861
    104          1           0        6.422531    1.388224   -0.156243
    105          1           0        6.128868    0.016617    0.789370
    106          1           0        7.233350   -1.349832   -0.795615
    107          1           0        7.475161   -0.213085   -1.795343
    108          1           0        8.848384    0.897238    0.006370
    109          1           0        8.638379   -0.419645    1.015493
    110          1           0        9.978924   -0.383332   -1.619124
    111          1           0        8.910999   -2.868650   -1.021437
    112          1           0       10.908953   -2.716785   -1.090308
    113          1           0        9.887747   -2.757026    0.621879
    114          1           0       11.172462    0.940663   -0.061137
    115          1           0       11.087084   -0.486904    1.246206
    116          1           0       12.640751   -1.962235   -0.231629
    117          1           0       12.621878   -0.599982   -1.370786
    118          1           0       13.675541    1.280967    0.344571
    119          1           0       13.859540   -0.090240    1.460850
    120          1           0       15.253541    0.081886   -1.261730
    121          1           0       14.927689   -2.326832   -1.075167
    122          1           0       16.551353   -1.947837   -0.557247
    123          1           0       15.248480   -2.450529    0.795786
    124          1           0       15.855630    1.560650    0.560963
    125          1           0       16.436808    0.140954    1.450053
    126          1           0       18.034197   -0.326756   -0.279488
    127          1           0       17.543779    0.793073   -1.294551
    128          1           0       18.188382    2.616619    0.439292
    129          1           0       18.635232    1.348718    1.509409
    130          1           0       20.369966    0.646813   -0.062115
    131          1           0       19.679231    3.154842   -1.543366
    132          1           0       20.971033    2.096447   -2.261792
    133          1           0       19.421683    1.574545   -2.498218
    134          1           0       20.997404    2.468175    1.687370
    135          1           0       22.008200    2.947292    0.277599
    136          1           0       20.230091    3.639919    0.568667
    137          1           0       -7.274978    1.678737    0.612152
    138          1           0       -7.637801   -0.230526   -0.017942
 ---------------------------------------------------------------------

 SCF Done:  E(RB3LYP) =  -2733.09514685     A.U. after   17 cycles

 Excitation energies and oscillator strengths:

 Excited State   1:      Singlet-A      1.9525 eV  635.00 nm  f=0.2496  <S**2>=0.000
     235 -> 237       -0.18683
     235 -> 238        0.23689
     236 -> 237        0.62723
     236 -> 238        0.13085
 This state for optimization and/or second-order correction.
 Total Energy, E(TD-HF/TD-KS) =  -2733.02339319
 Copying the excited state density for this state as the 1-particle RhoCI density.

 The electronic state is 1-A.
 Alpha  occ. eigenvalues --  -19.17963 -19.17942 -19.13782 -19.12589 -19.12526
 Alpha  occ. eigenvalues --  -14.37712 -14.36525 -14.32396 -14.30331 -10.32114
 Alpha  occ. eigenvalues --  -10.31676 -10.29572 -10.26936 -10.24449 -10.24260
 Alpha  occ. eigenvalues --  -10.23888 -10.23216 -10.23189 -10.23144 -10.22682
 Alpha  occ. eigenvalues --  -10.22091 -10.21478 -10.21467 -10.21381 -10.21356
 Alpha  occ. eigenvalues --  -10.21205 -10.21059 -10.21052 -10.20971 -10.20932
 Alpha  occ. eigenvalues --  -10.20860 -10.20456 -10.20232 -10.20164 -10.20063
 Alpha  occ. eigenvalues --  -10.19890 -10.19820 -10.19759 -10.19745 -10.19685
 Alpha  occ. eigenvalues --  -10.19660 -10.19657 -10.19551 -10.19523 -10.19390
 Alpha  occ. eigenvalues --  -10.19317 -10.19308 -10.19286 -10.19251 -10.19247
 Alpha  occ. eigenvalues --  -10.19143 -10.19101 -10.19042 -10.18811 -10.18644
 Alpha  occ. eigenvalues --  -10.18600 -10.18517 -10.18316 -10.18132 -10.17832
 Alpha  occ. eigenvalues --  -10.17116 -10.16816 -10.16802 -10.15996  -1.10653
 Alpha  occ. eigenvalues --   -1.08599  -1.04466  -1.01107  -0.99307  -0.98929
 Alpha  occ. eigenvalues --   -0.98416  -0.97890  -0.93750  -0.85340  -0.82816
 Alpha  occ. eigenvalues --   -0.82229  -0.81527  -0.81410  -0.80874  -0.80799
 Alpha  occ. eigenvalues --   -0.80367  -0.79466  -0.78907  -0.78516  -0.77928
 Alpha  occ. eigenvalues --   -0.76795  -0.75904  -0.75536  -0.74585  -0.74074
 Alpha  occ. eigenvalues --   -0.73443  -0.72871  -0.71358  -0.70587  -0.70028
 Alpha  occ. eigenvalues --   -0.69796  -0.68984  -0.68486  -0.67865  -0.67433
 Alpha  occ. eigenvalues --   -0.66780  -0.66285  -0.66007  -0.65664  -0.65041
 Alpha  occ. eigenvalues --   -0.64032  -0.63871  -0.62720  -0.61991  -0.61854
 Alpha  occ. eigenvalues --   -0.60873  -0.60119  -0.58918  -0.57802  -0.57744
 Alpha  occ. eigenvalues --   -0.57728  -0.57378  -0.56521  -0.56336  -0.55459
 Alpha  occ. eigenvalues --   -0.55399  -0.54965  -0.54232  -0.54063  -0.53882
 Alpha  occ. eigenvalues --   -0.53081  -0.52374  -0.51927  -0.51070  -0.50749
 Alpha  occ. eigenvalues --   -0.49814  -0.49615  -0.49413  -0.48481  -0.48341
 Alpha  occ. eigenvalues --   -0.47909  -0.47806  -0.47530  -0.47245  -0.47138
 Alpha  occ. eigenvalues --   -0.46965  -0.46456  -0.46355  -0.45736  -0.45413
 Alpha  occ. eigenvalues --   -0.45381  -0.45220  -0.44946  -0.44573  -0.44408
 Alpha  occ. eigenvalues --   -0.44250  -0.44193  -0.43663  -0.43536  -0.43383
 Alpha  occ. eigenvalues --   -0.43213  -0.42925  -0.42786  -0.42679  -0.42182
 Alpha  occ. eigenvalues --   -0.42005  -0.41764  -0.41531  -0.41341  -0.41048
 Alpha  occ. eigenvalues --   -0.40878  -0.40711  -0.40506  -0.40495  -0.40273
 Alpha  occ. eigenvalues --   -0.40040  -0.39910  -0.39602  -0.39450  -0.39372
 Alpha  occ. eigenvalues --   -0.39221  -0.39099  -0.38695  -0.38488  -0.38423
 Alpha  occ. eigenvalues --   -0.38123  -0.38070  -0.37793  -0.37629  -0.37427
 Alpha  occ. eigenvalues --   -0.37286  -0.37229  -0.37107  -0.36945  -0.36553
 Alpha  occ. eigenvalues --   -0.36259  -0.36196  -0.36006  -0.35961  -0.35776
 Alpha  occ. eigenvalues --   -0.35461  -0.35222  -0.34950  -0.34848  -0.34480
 Alpha  occ. eigenvalues --   -0.34464  -0.34376  -0.34060  -0.33686  -0.33611
 Alpha  occ. eigenvalues --   -0.33530  -0.33083  -0.32967  -0.32731  -0.32718
 Alpha  occ. eigenvalues --   -0.32395  -0.32353  -0.32201  -0.32146  -0.31810
 Alpha  occ. eigenvalues --   -0.31182  -0.31070  -0.30929  -0.30348  -0.29866
 Alpha  occ. eigenvalues --   -0.29796  -0.29601  -0.28795  -0.28127  -0.28087
 Alpha  occ. eigenvalues --   -0.27657  -0.27621  -0.27508  -0.27093  -0.26330
 Alpha  occ. eigenvalues --   -0.25931  -0.25241  -0.23573  -0.22828  -0.19922
 Alpha  occ. eigenvalues --   -0.18245
 Alpha virt. eigenvalues --   -0.10507  -0.07402  -0.04942  -0.03030  -0.01530
 Alpha virt. eigenvalues --   -0.00107   0.00158   0.01350   0.01901   0.03688
 Alpha virt. eigenvalues --    0.03838   0.04030   0.04388   0.04575   0.04938

 Mulliken charges:
               1
     1  C   -0.045028
     2  C   -0.137708
     3  C   -0.049805
     4  C   -0.063915
     5  N   -0.055511
     6  C   -0.072504
     7  C   -0.048196
     8  C   -0.054968
     9  C   -0.026482
    10  C    0.040954
    11  C    0.117353
    12  C    0.090278
    13  C    0.203640
    14  O   -0.232761
    15  O   -0.287803
    16  N   -0.025949
    17  C    0.091922
    18  C   -0.081985
    19  C    0.005328
    20  C    0.096878
    21  C    0.004303
    22  C   -0.025009
    23  C   -0.063106
    24  N   -0.265141
    25  C    0.037653
    26  C   -0.111910
    27  C   -0.099937
    28  C    0.114129
    29  C    0.028276
    30  C    0.079503
    31  C    0.004131
    32  N   -0.041656
    33  C   -0.004819
    34  C   -0.175734
    35  C   -0.025339
    36  C    0.127228
    37  C    0.040281
    38  C    0.110310
    39  O   -0.134913
    40  C   -0.048752
    41  C    0.219408
    42  O   -0.259550
    43  O   -0.298861
    44  C    0.079266
    45  C    0.262410
    46  C   -0.085966
    47  C   -0.115673
    48  C    0.102268
    49  C    0.015166
    50  C    0.177736
    51  C    0.100727
    52  C   -0.045662
    53  C   -0.095708
    54  C   -0.018866
    55  C    0.029803
    56  C   -0.000986
    57  C   -0.060584
    58  C    0.005907
    59  C    0.071397
    60  C    0.072244
    61  C    0.032227
    62  C   -0.048369
    63  C   -0.006721
    64  C   -0.007241
    65  H    0.038631
    66  H   -0.062543
    67  H   -0.021504
    68  H   -0.018252
    69  H   -0.005738
    70  H    0.028367
    71  H    0.006349
    72  H    0.036842
    73  H    0.006139
    74  H    0.011932
    75  H    0.027253
    76  H   -0.050710
    77  H    0.035601
    78  H    0.011811
    79  H    0.047217
    80  H    0.004090
    81  H    0.054371
    82  H    0.000437
    83  H    0.037475
    84  H   -0.004768
    85  H    0.033661
    86  H    0.017603
    87  H   -0.012906
    88  H    0.040523
    89  H    0.009908
    90  H    0.023889
    91  H    0.055390
    92  H    0.058238
    93  H    0.012813
    94  H    0.079909
    95  H    0.052473
    96  H    0.063193
    97  H    0.055989
    98  H    0.020335
    99  H   -0.004675
   100  H   -0.003260
   101  H    0.003242
   102  H    0.004724
   103  H    0.023687
   104  H   -0.018450
   105  H   -0.013742
   106  H   -0.061596
   107  H   -0.069871
   108  H   -0.047664
   109  H   -0.027188
   110  H   -0.013254
   111  H    0.047705
   112  H    0.029597
   113  H    0.029617
   114  H    0.014906
   115  H    0.003936
   116  H    0.036655
   117  H   -0.018729
   118  H    0.009389
   119  H   -0.004983
   120  H   -0.028877
   121  H    0.014836
   122  H   -0.000234
   123  H    0.034809
   124  H   -0.017530
   125  H   -0.019148
   126  H   -0.040858
   127  H   -0.029847
   128  H   -0.023216
   129  H   -0.011847
   130  H   -0.011537
   131  H    0.006433
   132  H    0.007513
   133  H    0.013410
   134  H    0.012067
   135  H    0.024651
   136  H    0.007499
   137  H    0.182604
   138  H    0.127603
 Sum of Mulliken charges =   0.00000

 Dipole moment (field-independent basis, Debye):
    X=              2.6514    Y=              3.9642    Z=              0.4933  Tot=              4.7946
 Quadrupole moment (field-independent basis, Debye-Ang):
   XX=           -362.5160   YY=           -386.6379   ZZ=           -391.7882
   XY=            -23.7325   XZ=              6.8317   YZ=              0.1793

 Normal termination of Gaussian 09 at Tue Jul 30 14:56:22 2019.
