 Gaussian 09, Revision D.01,
 Gaussian 09:  ES64L-G09RevD.01 24-Apr-2013

 --------------------------
 # td=(NStates=1) B3LYP/SVP
 --------------------------

 --
 TD
 --
 Symbolic Z-matrix:
 Charge =  0 Multiplicity = 1

                         Standard orientation:
 ---------------------------------------------------------------------
 Center     Atomic      Atomic             Coordinates (Angstroms)
 Number     Number       Type             X           Y           Z
 ---------------------------------------------------------------------
      1          6           0       -5.144748   -1.917539    0.432170
      2          6           0       -4.727691    2.771272    1.313135
      3          6           0       -9.372931    3.381452   -0.148577
      4          6           0       -9.716980   -1.479258   -1.020293
      5          7           0       -5.138602    0.499205    0.845780
      6          6           0       -4.483670   -0.765843    0.734632
      7          6           0       -3.091777   -0.642012    1.248772
      8          6           0       -3.090358    0.841835    1.860605
      9          6           0       -4.353815    1.476324    1.273908
     10          6           0       -3.133495    0.869084    3.449274
     11          6           0       -2.014460   -0.804831    0.037769
     12          6           0       -0.574177   -0.763807    0.542906
     13          6           0        0.466450   -1.196546   -0.498524
     14          8           0        0.160789   -1.875031   -1.511492
     15          8           0        1.684166   -0.575486   -0.316911
     16          7           0       -6.984140    2.736809    0.427289
     17          6           0       -5.900528    3.342524    0.915147
     18          6           0       -6.248996    4.770788    0.980638
     19          6           0       -7.538244    4.910327    0.498730
     20          6           0       -7.949064    3.600724    0.139681
     21          6           0       -5.223610    5.817487    1.445557
     22          6           0       -8.248627    6.263747    0.429977
     23          6           0       -8.974919    6.693210   -0.599066
     24          7           0       -9.239350    0.873036   -0.522637
     25          6           0       -9.813289    2.133258   -0.507080
     26          6           0      -11.201728    1.843320   -0.865635
     27          6           0      -11.445525    0.521240   -1.192881
     28          6           0      -10.079388   -0.092789   -0.879582
     29          6           0      -12.381303    2.987877   -1.042107
     30          6           0      -12.579719   -0.264812   -1.484392
     31          6           0      -12.821465   -0.500466   -3.068237
     32          7           0       -7.498589   -1.289353   -0.165436
     33          6           0       -8.529445   -2.097420   -0.732932
     34          6           0       -8.154139   -3.437204   -0.806311
     35          6           0       -6.789970   -3.416869   -0.261189
     36          6           0       -6.472388   -2.104377    0.011457
     37          6           0       -8.983504   -4.632882   -1.067195
     38          6           0       -5.643362   -4.288338    0.010471
     39          8           0       -5.623597   -5.466578   -0.115029
     40          6           0       -4.524651   -3.390940    0.348152
     41          6           0       -3.997969   -3.807197    1.801602
     42          8           0       -4.282187   -3.194035    2.810138
     43          8           0       -3.105354   -4.704026    1.741053
     44          6           0       -2.653947   -5.374341    2.963638
     45          6           0        2.659584   -1.064059   -1.260798
     46          6           0        4.054363   -0.760625   -0.717500
     47          6           0        4.961720    0.022234   -1.163318
     48          6           0        4.826962    0.799607   -2.390466
     49          6           0        6.226343    0.345769   -0.394523
     50          6           0        7.502589   -0.415696   -0.926208
     51          6           0        8.726855   -0.101601   -0.160229
     52          6           0       10.067276   -0.662316   -0.759618
     53          6           0        9.980154   -2.136977   -0.968445
     54          6           0       11.310692   -0.212515   -0.017666
     55          6           0       12.694667   -0.537359   -0.650913
     56          6           0       13.834722    0.027207    0.189213
     57          6           0       15.219119   -0.094965   -0.420060
     58          6           0       15.544639   -1.641739   -0.423993
     59          6           0       16.298311    0.548868    0.421032
     60          6           0       17.664083    0.679581   -0.169518
     61          6           0       18.615203    1.597165    0.576531
     62          6           0       20.086744    1.517068    0.281729
     63          6           0       20.371373    2.093611   -1.135768
     64          6           0       21.009166    2.408807    1.199357
     65          1           0       -3.859807    3.259821    1.829025
     66          1           0       -9.915621    4.217639   -0.251222
     67          1           0      -10.609101   -2.079600   -1.548866
     68          1           0       -2.672381   -1.217823    2.065081
     69          1           0       -1.967781    1.387620    1.639131
     70          1           0       -2.135284    0.486180    3.900291
     71          1           0       -3.340879    1.859791    4.027850
     72          1           0       -3.932551    0.104710    3.653896
     73          1           0       -2.243643   -1.621445   -0.782786
     74          1           0       -2.225985    0.053248   -0.600711
     75          1           0       -0.185905    0.153144    0.963601
     76          1           0       -0.185952   -1.399440    1.501592
     77          1           0       -4.347276    5.762136    0.759775
     78          1           0       -5.792000    6.942567    1.369874
     79          1           0       -4.990072    5.783895    2.394655
     80          1           0       -7.996146    6.843204    1.471487
     81          1           0       -9.099210    6.109648   -1.520904
     82          1           0       -9.605155    7.634754   -0.589699
     83          1           0      -12.366273    3.823714   -0.269007
     84          1           0      -12.298259    3.355396   -2.176060
     85          1           0      -13.416064    2.665008   -1.080027
     86          1           0      -12.573370   -1.076865   -0.924570
     87          1           0      -13.600166    0.244373   -0.927014
     88          1           0      -12.857607    0.421113   -3.286524
     89          1           0      -12.020604   -1.312603   -3.429638
     90          1           0      -13.777487   -0.819027   -3.183606
     91          1           0       -9.728527   -5.033835   -0.110812
     92          1           0       -9.821479   -4.075262   -1.898921
     93          1           0       -8.307419   -5.554648   -1.373903
     94          1           0       -3.729682   -3.328601   -0.488943
     95          1           0       -1.891404   -6.188411    2.661451
     96          1           0       -2.099493   -4.636907    3.559032
     97          1           0       -3.506115   -5.619830    3.615996
     98          1           0        2.368533   -2.146196   -1.537288
     99          1           0        2.694728   -0.595988   -2.276614
    100          1           0        4.345726   -1.070147    0.380285
    101          1           0        4.737763    1.905919   -2.293421
    102          1           0        5.707778    0.770481   -3.119498
    103          1           0        3.997432    0.437047   -3.071398
    104          1           0        6.443587    1.436464   -0.588602
    105          1           0        6.042381   -0.035925    0.629614
    106          1           0        7.457904   -1.458886   -1.137199
    107          1           0        7.619657   -0.018685   -1.949356
    108          1           0        8.825504    1.049952    0.008194
    109          1           0        8.552110   -0.491756    0.946536
    110          1           0       10.216690   -0.227320   -1.776399
    111          1           0        9.197774   -2.209974   -1.937097
    112          1           0       10.915081   -2.537763   -1.311727
    113          1           0        9.500870   -2.727940    0.016892
    114          1           0       11.171628    0.899831    0.137203
    115          1           0       11.338881   -0.819434    0.969412
    116          1           0       12.988158   -1.584999   -0.930137
    117          1           0       12.571772   -0.245969   -1.668911
    118          1           0       13.535832    1.303516    0.308051
    119          1           0       13.641141   -0.326456    1.185822
    120          1           0       15.162621    0.361728   -1.406637
    121          1           0       14.908960   -2.155484   -1.084236
    122          1           0       16.519627   -1.742071   -1.078980
    123          1           0       15.249544   -2.222638    0.473297
    124          1           0       15.664686    1.446640    0.501526
    125          1           0       16.400381    0.098341    1.340501
    126          1           0       18.115542   -0.456671   -0.123640
    127          1           0       17.317156    1.000684   -1.241725
    128          1           0       18.018109    2.624183    0.428913
    129          1           0       18.569723    1.291739    1.570554
    130          1           0       20.518127    0.479755    0.146627
    131          1           0       19.785994    2.985663   -1.253274
    132          1           0       21.319957    2.223978   -1.509052
    133          1           0       19.890028    1.408769   -1.912637
    134          1           0       20.862103    2.013521    2.321975
    135          1           0       22.059163    2.076601    0.957833
    136          1           0       20.977382    3.557806    1.040451
    137          1           0       -6.777882    1.744586   -0.041055
    138          1           0       -7.546001   -0.357563   -0.279756
 ---------------------------------------------------------------------

 SCF Done:  E(RB3LYP) =  -2732.99710760     A.U. after   17 cycles

 Excitation energies and oscillator strengths:

 Excited State   1:      Singlet-A      2.0541 eV  603.60 nm  f=0.2038  <S**2>=0.000
     235 -> 237       -0.15583
     235 -> 238       -0.22309
     236 -> 237        0.64042
     236 -> 238       -0.11497
 This state for optimization and/or second-order correction.
 Total Energy, E(TD-HF/TD-KS) =  -2732.92162206
 Copying the excited state density for this state as the 1-particle RhoCI density.

 The electronic state is 1-A.
 Alpha  occ. eigenvalues --  -19.18994 -19.18943 -19.12909 -19.11803 -19.11649
 Alpha  occ. eigenvalues --  -14.37459 -14.35943 -14.31819 -14.29282 -10.32386
 Alpha  occ. eigenvalues --  -10.31835 -10.26830 -10.26399 -10.25336 -10.23607
 Alpha  occ. eigenvalues --  -10.23269 -10.23262 -10.23080 -10.22883 -10.22713
 Alpha  occ. eigenvalues --  -10.22343 -10.22065 -10.22054 -10.22009 -10.21893
 Alpha  occ. eigenvalues --  -10.21611 -10.21532 -10.21298 -10.21060 -10.21035
 Alpha  occ. eigenvalues --  -10.20703 -10.20402 -10.20228 -10.20213 -10.20164
 Alpha  occ. eigenvalues --  -10.20123 -10.20071 -10.20007 -10.19831 -10.19824
 Alpha  occ. eigenvalues --  -10.19810 -10.19710 -10.19630 -10.19608 -10.19598
 Alpha  occ. eigenvalues --  -10.19446 -10.19420 -10.19178 -10.19148 -10.19064
 Alpha  occ. eigenvalues --  -10.19008 -10.18925 -10.18925 -10.18766 -10.18606
 Alpha  occ. eigenvalues --  -10.18442 -10.18315 -10.18258 -10.18216 -10.18067
 Alpha  occ. eigenvalues --  -10.17686 -10.17538 -10.16500 -10.16409  -1.12000
 Alpha  occ. eigenvalues --   -1.08622  -1.04144  -1.00469  -1.00023  -0.99316
 Alpha  occ. eigenvalues --   -0.99033  -0.93375  -0.92633  -0.85124  -0.83507
 Alpha  occ. eigenvalues --   -0.82777  -0.81807  -0.81482  -0.81048  -0.80441
 Alpha  occ. eigenvalues --   -0.80037  -0.79864  -0.79180  -0.78487  -0.77282
 Alpha  occ. eigenvalues --   -0.76531  -0.76036  -0.75633  -0.74954  -0.74309
 Alpha  occ. eigenvalues --   -0.74078  -0.72708  -0.72293  -0.71719  -0.70730
 Alpha  occ. eigenvalues --   -0.69904  -0.69397  -0.68497  -0.67918  -0.67676
 Alpha  occ. eigenvalues --   -0.66830  -0.66397  -0.66266  -0.66169  -0.65302
 Alpha  occ. eigenvalues --   -0.63749  -0.62806  -0.62482  -0.62327  -0.61930
 Alpha  occ. eigenvalues --   -0.61478  -0.58919  -0.58557  -0.58287  -0.57384
 Alpha  occ. eigenvalues --   -0.57304  -0.56501  -0.56128  -0.56092  -0.55303
 Alpha  occ. eigenvalues --   -0.54656  -0.54447  -0.54224  -0.53849  -0.52689
 Alpha  occ. eigenvalues --   -0.52284  -0.51919  -0.51444  -0.50971  -0.50480
 Alpha  occ. eigenvalues --   -0.50097  -0.49554  -0.49332  -0.48979  -0.48396
 Alpha  occ. eigenvalues --   -0.48199  -0.47843  -0.47436  -0.47107  -0.47079
 Alpha  occ. eigenvalues --   -0.46489  -0.46393  -0.46332  -0.46096  -0.45668
 Alpha  occ. eigenvalues --   -0.45302  -0.45178  -0.45037  -0.44726  -0.44695
 Alpha  occ. eigenvalues --   -0.44512  -0.43906  -0.43800  -0.43587  -0.43445
 Alpha  occ. eigenvalues --   -0.43377  -0.43166  -0.43043  -0.42779  -0.42707
 Alpha  occ. eigenvalues --   -0.42519  -0.42202  -0.42033  -0.41888  -0.41561
 Alpha  occ. eigenvalues --   -0.41249  -0.41164  -0.41011  -0.40782  -0.40499
 Alpha  occ. eigenvalues --   -0.40069  -0.39888  -0.39668  -0.39224  -0.38993
 Alpha  occ. eigenvalues --   -0.38768  -0.38580  -0.38445  -0.38282  -0.38215
 Alpha  occ. eigenvalues --   -0.38153  -0.37861  -0.37652  -0.37409  -0.37275
 Alpha  occ. eigenvalues --   -0.37200  -0.37155  -0.37015  -0.36645  -0.36419
 Alpha  occ. eigenvalues --   -0.36329  -0.36247  -0.35839  -0.35741  -0.35635
 Alpha  occ. eigenvalues --   -0.35362  -0.35098  -0.34921  -0.34510  -0.34422
 Alpha  occ. eigenvalues --   -0.34344  -0.34210  -0.34060  -0.33830  -0.33634
 Alpha  occ. eigenvalues --   -0.33443  -0.32890  -0.32814  -0.32195  -0.32079
 Alpha  occ. eigenvalues --   -0.32041  -0.31853  -0.31449  -0.31345  -0.31292
 Alpha  occ. eigenvalues --   -0.30500  -0.30443  -0.30239  -0.30206  -0.29840
 Alpha  occ. eigenvalues --   -0.29821  -0.29601  -0.28380  -0.28118  -0.28106
 Alpha  occ. eigenvalues --   -0.27754  -0.26864  -0.26026  -0.25637  -0.25389
 Alpha  occ. eigenvalues --   -0.25001  -0.24938  -0.24105  -0.21936  -0.20386
 Alpha  occ. eigenvalues --   -0.18582
 Alpha virt. eigenvalues --   -0.10546  -0.07203  -0.04087  -0.01794  -0.01376
 Alpha virt. eigenvalues --   -0.00085   0.00575   0.01058   0.01915   0.02835
 Alpha virt. eigenvalues --    0.03782   0.03883   0.04014   0.04490   0.04514

 Mulliken charges:
               1
     1  C    0.010489
     2  C   -0.048780
     3  C   -0.034347
     4  C   -0.121260
     5  N   -0.223808
     6  C   -0.046523
     7  C   -0.017093
     8  C   -0.130993
     9  C   -0.054877
    10  C   -0.009143
    11  C    0.048929
    12  C    0.044897
    13  C    0.176990
    14  O   -0.274017
    15  O   -0.307789
    16  N   -0.015448
    17  C    0.124169
    18  C   -0.152987
    19  C   -0.039665
    20  C    0.027115
    21  C    0.130333
    22  C   -0.036916
    23  C   -0.044879
    24  N   -0.227389
    25  C    0.146595
    26  C   -0.133128
    27  C   -0.023988
    28  C   -0.025333
    29  C    0.008584
    30  C   -0.030683
    31  C    0.149354
    32  N    0.050779
    33  C    0.130624
    34  C   -0.079012
    35  C   -0.034234
    36  C    0.098861
    37  C   -0.072690
    38  C    0.036473
    39  O   -0.144026
    40  C   -0.059798
    41  C    0.183065
    42  O   -0.242324
    43  O   -0.237631
    44  C    0.173799
    45  C    0.258902
    46  C   -0.096613
    47  C   -0.118621
    48  C    0.023638
    49  C    0.104265
    50  C    0.024591
    51  C    0.008600
    52  C   -0.065200
    53  C   -0.029419
    54  C    0.029430
    55  C    0.026488
    56  C   -0.027907
    57  C   -0.049996
    58  C    0.032137
    59  C    0.090509
    60  C   -0.032902
    61  C    0.108785
    62  C   -0.111770
    63  C    0.042009
    64  C   -0.011138
    65  H   -0.020502
    66  H   -0.071746
    67  H    0.017431
    68  H    0.009453
    69  H    0.017540
    70  H    0.022907
    71  H    0.039017
    72  H    0.045592
    73  H    0.056227
    74  H   -0.000023
    75  H    0.014222
    76  H    0.038790
    77  H    0.041361
    78  H    0.020952
    79  H   -0.012808
    80  H    0.052315
    81  H    0.041703
    82  H    0.041140
    83  H    0.034961
    84  H    0.031795
    85  H    0.000239
    86  H   -0.032731
    87  H    0.005858
    88  H   -0.043292
    89  H    0.046256
    90  H   -0.023576
    91  H    0.074075
    92  H    0.045645
    93  H    0.080263
    94  H    0.086642
    95  H    0.065797
    96  H    0.025951
    97  H    0.048603
    98  H    0.046308
    99  H    0.005574
   100  H   -0.014258
   101  H    0.026998
   102  H    0.013044
   103  H    0.009331
   104  H    0.007895
   105  H   -0.001732
   106  H   -0.007125
   107  H   -0.024554
   108  H   -0.006109
   109  H    0.000611
   110  H   -0.014197
   111  H    0.025995
   112  H    0.007954
   113  H    0.036170
   114  H    0.009376
   115  H   -0.003830
   116  H   -0.008878
   117  H   -0.037993
   118  H   -0.005583
   119  H   -0.004930
   120  H   -0.010103
   121  H   -0.028592
   122  H    0.024271
   123  H    0.017224
   124  H   -0.020910
   125  H   -0.039455
   126  H    0.011491
   127  H    0.004308
   128  H    0.016875
   129  H   -0.031176
   130  H    0.010490
   131  H   -0.013895
   132  H   -0.013111
   133  H   -0.005543
   134  H    0.016952
   135  H    0.009591
   136  H    0.037729
   137  H    0.206437
   138  H    0.069211
 Sum of Mulliken charges =   0.00000

 Dipole moment (field-independent basis, Debye):
    X=              3.0519    Y=              3.0151    Z=              0.5012  Tot=              4.3193
 Quadrupole moment (field-independent basis, Debye-Ang):
   XX=           -376.4516   YY=           -383.0753   ZZ=           -391.1774
   XY=            -25.2859   XZ=              2.9252   YZ=             -8.7776

 Normal termination of Gaussian 09 at Wed Jul 24 23:01:58 2019.
