 Gaussian 09, Revision D.01,
 Gaussian 09:  ES64L-G09RevD.01 24-Apr-2013

 --------------------------
 # td=(NStates=1) B3LYP/SVP
 --------------------------

 --
 TD
 --
 Symbolic Z-matrix:
 Charge =  0 Multiplicity = 1

                         Standard orientation:
 ---------------------------------------------------------------------
 Center     Atomic      Atomic             Coordinates (Angstroms)
 Number     Number       Type             X           Y           Z
 ---------------------------------------------------------------------
      1          6           0       -5.060982   -1.862345    0.345281
      2          6           0       -4.857248    2.735660    1.372296
      3          6           0       -9.422103    3.295699   -0.233953
      4          6           0       -9.847764   -1.464463   -0.880694
      5          7           0       -5.265522    0.406141    0.844820
      6          6           0       -4.527551   -0.742507    0.833841
      7          6           0       -3.012745   -0.613677    1.268119
      8          6           0       -3.078200    0.903079    1.837456
      9          6           0       -4.416709    1.432244    1.243683
     10          6           0       -2.989544    0.946960    3.368981
     11          6           0       -2.027566   -0.779978    0.157409
     12          6           0       -0.496522   -0.734465    0.559239
     13          6           0        0.442006   -0.857914   -0.654109
     14          8           0        0.132593   -1.210335   -1.788286
     15          8           0        1.647722   -0.687831   -0.227954
     16          7           0       -7.063733    2.729821    0.314362
     17          6           0       -6.033195    3.388349    0.941905
     18          6           0       -6.271175    4.743687    1.069778
     19          6           0       -7.523954    4.940434    0.504746
     20          6           0       -8.154950    3.604062    0.239711
     21          6           0       -5.369179    5.795522    1.619643
     22          6           0       -8.221946    6.249879    0.263854
     23          6           0       -9.026009    6.574281   -0.747320
     24          7           0       -9.299883    0.835377   -0.453385
     25          6           0       -9.950939    1.984026   -0.523859
     26          6           0      -11.290531    1.831155   -0.898062
     27          6           0      -11.446342    0.454257   -1.105025
     28          6           0      -10.178262   -0.148222   -0.825974
     29          6           0      -12.351619    2.893185   -1.107252
     30          6           0      -12.590969   -0.264729   -1.482652
     31          6           0      -12.792618   -0.488631   -3.112888
     32          7           0       -7.546984   -1.278994   -0.070747
     33          6           0       -8.640269   -2.099520   -0.585519
     34          6           0       -8.219777   -3.371596   -0.577633
     35          6           0       -6.822917   -3.443873   -0.195666
     36          6           0       -6.505027   -2.130589    0.142235
     37          6           0       -9.033240   -4.644908   -0.961123
     38          6           0       -5.692043   -4.290255    0.046190
     39          8           0       -5.433413   -5.528512   -0.005289
     40          6           0       -4.542606   -3.325418    0.305638
     41          6           0       -3.855996   -3.821779    1.667321
     42          8           0       -4.060324   -3.394242    2.775942
     43          8           0       -2.967443   -4.853766    1.428028
     44          6           0       -2.386757   -5.436662    2.615358
     45          6           0        2.730708   -0.949010   -1.155666
     46          6           0        4.052315   -0.687165   -0.505321
     47          6           0        4.962200    0.148436   -0.991910
     48          6           0        4.845192    0.723291   -2.472212
     49          6           0        6.263401    0.341919   -0.239418
     50          6           0        7.481827   -0.413797   -0.979399
     51          6           0        8.814642   -0.309870   -0.169875
     52          6           0       10.114938   -0.665922   -0.951388
     53          6           0       10.088260   -2.209412   -1.198436
     54          6           0       11.316147   -0.362570    0.046427
     55          6           0       12.678961   -0.510741   -0.714184
     56          6           0       13.744074    0.108644    0.168145
     57          6           0       15.185318   -0.094877   -0.366446
     58          6           0       15.651103   -1.511854   -0.398470
     59          6           0       16.216522    0.805820    0.360014
     60          6           0       17.612474    0.810715   -0.190787
     61          6           0       18.555760    1.601628    0.714109
     62          6           0       20.121946    1.538774    0.302547
     63          6           0       20.418305    1.835864   -1.192782
     64          6           0       21.002316    2.350154    1.158199
     65          1           0       -4.164197    3.476924    1.615302
     66          1           0      -10.095632    4.211354   -0.292746
     67          1           0      -10.564503   -2.207420   -1.112867
     68          1           0       -2.702255   -1.429848    2.054653
     69          1           0       -2.143241    1.495444    1.443299
     70          1           0       -2.206050    0.588065    3.848729
     71          1           0       -2.966245    2.023941    3.691740
     72          1           0       -3.680914    0.260682    3.744055
     73          1           0       -2.264982   -1.724941   -0.394738
     74          1           0       -2.382812   -0.292772   -0.694304
     75          1           0       -0.338995    0.468029    0.912034
     76          1           0       -0.186876   -1.407647    1.278196
     77          1           0       -4.604760    6.038108    0.734736
     78          1           0       -5.763012    6.827189    2.111438
     79          1           0       -4.753349    5.486225    2.598316
     80          1           0       -7.995802    7.033502    0.935767
     81          1           0       -9.383485    5.917067   -1.561197
     82          1           0       -9.471254    7.682843   -0.901341
     83          1           0      -12.503936    3.526413   -0.123133
     84          1           0      -11.915225    3.629028   -1.799722
     85          1           0      -13.213914    2.408932   -1.538136
     86          1           0      -12.768905   -1.263003   -1.033565
     87          1           0      -13.461895    0.375956   -1.106671
     88          1           0      -12.887336    0.611047   -3.579187
     89          1           0      -12.039346   -1.097800   -3.443267
     90          1           0      -13.879066   -0.750754   -3.357929
     91          1           0       -9.778987   -4.642330   -0.222752
     92          1           0       -9.418137   -4.793193   -1.982605
     93          1           0       -8.380086   -5.500692   -0.680323
     94          1           0       -3.778216   -3.659122   -0.204968
     95          1           0       -1.514490   -6.128506    2.301295
     96          1           0       -2.079152   -4.651550    3.357601
     97          1           0       -3.251968   -5.649059    3.151552
     98          1           0        2.529670   -2.120092   -1.527627
     99          1           0        2.384405   -0.394639   -2.136400
    100          1           0        4.142391   -1.072552    0.610004
    101          1           0        5.377217    1.834962   -2.547670
    102          1           0        5.492040    0.240954   -3.234617
    103          1           0        3.820588    0.561730   -2.896863
    104          1           0        6.290737    1.390423   -0.095786
    105          1           0        6.474918   -0.155080    0.804243
    106          1           0        7.064222   -1.353703   -0.923959
    107          1           0        7.666389   -0.026750   -1.966429
    108          1           0        9.113899    0.803824    0.022232
    109          1           0        8.754276   -0.856221    0.864738
    110          1           0       10.095538   -0.156054   -2.077518
    111          1           0        9.228881   -2.568588   -1.906853
    112          1           0       11.007499   -2.732462   -1.723403
    113          1           0       10.120184   -2.680234   -0.226812
    114          1           0       11.005718    0.642350    0.406850
    115          1           0       11.170544   -1.222180    0.804263
    116          1           0       12.706984   -1.736089   -0.675283
    117          1           0       12.787380    0.092723   -1.663626
    118          1           0       13.609111    1.216627   -0.036828
    119          1           0       13.688633   -0.185780    1.366330
    120          1           0       14.821809    0.327820   -1.231700
    121          1           0       14.890384   -2.239141   -0.785497
    122          1           0       16.708041   -1.582959   -0.884629
    123          1           0       15.900221   -1.962357    0.658619
    124          1           0       15.701417    1.829995    0.381452
    125          1           0       16.130225    0.484833    1.442915
    126          1           0       17.983277   -0.264921   -0.370837
    127          1           0       17.536279    1.352575   -1.218660
    128          1           0       18.286613    2.854815    0.543346
    129          1           0       18.428387    1.505757    1.765467
    130          1           0       20.391620    0.440245    0.484186
    131          1           0       20.272437    3.117795   -1.442020
    132          1           0       21.531778    1.478115   -1.239138
    133          1           0       19.816794    1.250572   -1.883221
    134          1           0       20.854321    1.967351    2.196771
    135          1           0       22.188412    2.054580    0.960569
    136          1           0       20.845250    3.434160    0.959701
    137          1           0       -7.005319    1.596426    0.330497
    138          1           0       -7.561308   -0.285723    0.034441
 ---------------------------------------------------------------------

 SCF Done:  E(RB3LYP) =  -2733.06163560     A.U. after   18 cycles

 Excitation energies and oscillator strengths:

 Excited State   1:      Singlet-A      2.1839 eV  567.72 nm  f=0.0622  <S**2>=0.000
     235 -> 237        0.55688
     236 -> 237        0.26752
     236 -> 238       -0.32009
 This state for optimization and/or second-order correction.
 Total Energy, E(TD-HF/TD-KS) =  -2732.98137931
 Copying the excited state density for this state as the 1-particle RhoCI density.

 The electronic state is 1-A.
 Alpha  occ. eigenvalues --  -19.18275 -19.16738 -19.12420 -19.11713 -19.10525
 Alpha  occ. eigenvalues --  -14.37178 -14.36092 -14.32915 -14.29205 -10.31187
 Alpha  occ. eigenvalues --  -10.31119 -10.26855 -10.26678 -10.24545 -10.24014
 Alpha  occ. eigenvalues --  -10.23829 -10.23671 -10.23401 -10.23344 -10.22657
 Alpha  occ. eigenvalues --  -10.22598 -10.22127 -10.21558 -10.21508 -10.21370
 Alpha  occ. eigenvalues --  -10.21328 -10.21310 -10.21245 -10.21188 -10.21160
 Alpha  occ. eigenvalues --  -10.21143 -10.20808 -10.20808 -10.20793 -10.20566
 Alpha  occ. eigenvalues --  -10.20466 -10.20404 -10.20158 -10.20044 -10.20034
 Alpha  occ. eigenvalues --  -10.19937 -10.19889 -10.19872 -10.19801 -10.19779
 Alpha  occ. eigenvalues --  -10.19709 -10.19653 -10.19535 -10.19463 -10.19449
 Alpha  occ. eigenvalues --  -10.19431 -10.19077 -10.18953 -10.18941 -10.18934
 Alpha  occ. eigenvalues --  -10.18816 -10.18703 -10.18669 -10.18561 -10.18493
 Alpha  occ. eigenvalues --  -10.18027 -10.17753 -10.17646 -10.17258  -1.11066
 Alpha  occ. eigenvalues --   -1.08059  -0.99829  -0.99725  -0.98807  -0.97763
 Alpha  occ. eigenvalues --   -0.96901  -0.94524  -0.93240  -0.84175  -0.82581
 Alpha  occ. eigenvalues --   -0.82260  -0.82058  -0.81348  -0.80649  -0.80422
 Alpha  occ. eigenvalues --   -0.80038  -0.79738  -0.79525  -0.79422  -0.77466
 Alpha  occ. eigenvalues --   -0.77056  -0.76148  -0.75673  -0.75094  -0.74268
 Alpha  occ. eigenvalues --   -0.73226  -0.73078  -0.72431  -0.71582  -0.70087
 Alpha  occ. eigenvalues --   -0.69641  -0.69003  -0.68902  -0.67751  -0.67557
 Alpha  occ. eigenvalues --   -0.66616  -0.66578  -0.66137  -0.65801  -0.65285
 Alpha  occ. eigenvalues --   -0.64640  -0.63142  -0.62588  -0.62140  -0.61652
 Alpha  occ. eigenvalues --   -0.61100  -0.58990  -0.58383  -0.57620  -0.56970
 Alpha  occ. eigenvalues --   -0.56147  -0.55716  -0.55578  -0.55175  -0.54779
 Alpha  occ. eigenvalues --   -0.54548  -0.53903  -0.53876  -0.53274  -0.53190
 Alpha  occ. eigenvalues --   -0.52956  -0.52347  -0.51305  -0.50512  -0.49895
 Alpha  occ. eigenvalues --   -0.49449  -0.49328  -0.48724  -0.48607  -0.48431
 Alpha  occ. eigenvalues --   -0.47696  -0.47533  -0.47082  -0.46905  -0.46686
 Alpha  occ. eigenvalues --   -0.46420  -0.46177  -0.45981  -0.45893  -0.45661
 Alpha  occ. eigenvalues --   -0.45467  -0.45115  -0.44927  -0.44780  -0.44592
 Alpha  occ. eigenvalues --   -0.44501  -0.44092  -0.43959  -0.43603  -0.43596
 Alpha  occ. eigenvalues --   -0.43316  -0.43067  -0.43013  -0.42824  -0.42476
 Alpha  occ. eigenvalues --   -0.42382  -0.42083  -0.42020  -0.41801  -0.41721
 Alpha  occ. eigenvalues --   -0.41246  -0.40714  -0.40514  -0.40318  -0.40070
 Alpha  occ. eigenvalues --   -0.39868  -0.39806  -0.39749  -0.39369  -0.39199
 Alpha  occ. eigenvalues --   -0.39103  -0.38820  -0.38566  -0.38424  -0.37941
 Alpha  occ. eigenvalues --   -0.37883  -0.37853  -0.37624  -0.37551  -0.37339
 Alpha  occ. eigenvalues --   -0.37225  -0.36749  -0.36534  -0.36243  -0.35999
 Alpha  occ. eigenvalues --   -0.35931  -0.35750  -0.35588  -0.35435  -0.35386
 Alpha  occ. eigenvalues --   -0.35289  -0.35224  -0.34931  -0.34865  -0.34670
 Alpha  occ. eigenvalues --   -0.34471  -0.34412  -0.34377  -0.34228  -0.33611
 Alpha  occ. eigenvalues --   -0.33439  -0.33405  -0.33177  -0.33046  -0.32936
 Alpha  occ. eigenvalues --   -0.32485  -0.32149  -0.31971  -0.31662  -0.31113
 Alpha  occ. eigenvalues --   -0.31066  -0.30532  -0.30464  -0.29845  -0.29633
 Alpha  occ. eigenvalues --   -0.28997  -0.28935  -0.28501  -0.27975  -0.27733
 Alpha  occ. eigenvalues --   -0.27677  -0.27227  -0.26396  -0.26051  -0.25608
 Alpha  occ. eigenvalues --   -0.25560  -0.25013  -0.24000  -0.21862  -0.20467
 Alpha  occ. eigenvalues --   -0.19626
 Alpha virt. eigenvalues --   -0.10912  -0.08132  -0.04148  -0.01893  -0.00547
 Alpha virt. eigenvalues --   -0.00180   0.00714   0.00939   0.02107   0.03381
 Alpha virt. eigenvalues --    0.03688   0.03758   0.03998   0.04071   0.04436

 Mulliken charges:
               1
     1  C    0.066971
     2  C   -0.037622
     3  C   -0.131993
     4  C   -0.073724
     5  N   -0.235997
     6  C   -0.014167
     7  C   -0.066761
     8  C   -0.053682
     9  C    0.054753
    10  C    0.155178
    11  C    0.083940
    12  C    0.029046
    13  C    0.167958
    14  O   -0.260927
    15  O   -0.263274
    16  N   -0.142730
    17  C    0.082460
    18  C   -0.058903
    19  C    0.013941
    20  C    0.109141
    21  C   -0.047250
    22  C    0.004219
    23  C   -0.084488
    24  N   -0.195645
    25  C    0.080251
    26  C   -0.179193
    27  C   -0.005386
    28  C    0.113980
    29  C    0.123229
    30  C   -0.038876
    31  C   -0.003245
    32  N   -0.078828
    33  C    0.083378
    34  C   -0.140001
    35  C   -0.020996
    36  C    0.041696
    37  C    0.126128
    38  C    0.086739
    39  O   -0.229314
    40  C    0.060969
    41  C    0.152029
    42  O   -0.225217
    43  O   -0.321951
    44  C    0.214947
    45  C    0.135803
    46  C   -0.054416
    47  C   -0.112432
    48  C    0.007182
    49  C    0.028296
    50  C    0.089433
    51  C   -0.022376
    52  C   -0.147129
    53  C   -0.024524
    54  C    0.007569
    55  C    0.014194
    56  C   -0.049758
    57  C    0.004121
    58  C    0.005720
    59  C   -0.001048
    60  C    0.046745
    61  C   -0.010222
    62  C   -0.109737
    63  C   -0.033003
    64  C    0.014726
    65  H   -0.055377
    66  H    0.001467
    67  H   -0.049258
    68  H    0.033720
    69  H    0.007893
    70  H   -0.039330
    71  H    0.009510
    72  H    0.003977
    73  H   -0.001608
    74  H   -0.029468
    75  H    0.052220
    76  H    0.020441
    77  H    0.062864
    78  H    0.053345
    79  H    0.049186
    80  H   -0.013297
    81  H    0.035581
    82  H    0.047538
    83  H    0.035332
    84  H    0.014926
    85  H    0.012263
    86  H    0.009903
    87  H    0.006660
    88  H    0.016924
    89  H    0.017256
    90  H    0.022202
    91  H    0.005821
    92  H    0.042903
    93  H    0.032704
    94  H   -0.032125
    95  H    0.069433
    96  H    0.008432
    97  H   -0.001249
    98  H    0.043873
    99  H    0.052564
   100  H    0.029855
   101  H    0.032225
   102  H    0.032371
   103  H    0.026722
   104  H   -0.000489
   105  H    0.014460
   106  H   -0.008441
   107  H   -0.001272
   108  H    0.007910
   109  H    0.015732
   110  H    0.022069
   111  H    0.025709
   112  H    0.018380
   113  H   -0.006148
   114  H    0.001275
   115  H    0.020818
   116  H    0.036838
   117  H    0.020772
   118  H   -0.006393
   119  H    0.007382
   120  H   -0.055886
   121  H    0.012177
   122  H    0.023143
   123  H    0.002246
   124  H   -0.011605
   125  H   -0.008026
   126  H    0.016838
   127  H    0.019385
   128  H   -0.008157
   129  H   -0.009034
   130  H   -0.001278
   131  H    0.027348
   132  H    0.025822
   133  H    0.020800
   134  H    0.012283
   135  H    0.015738
   136  H    0.022142
   137  H    0.218436
   138  H    0.110700
 Sum of Mulliken charges =   0.00000

 Dipole moment (field-independent basis, Debye):
    X=              2.0118    Y=              5.9439    Z=              0.9620  Tot=              6.3484
 Quadrupole moment (field-independent basis, Debye-Ang):
   XX=           -351.9735   YY=           -386.2801   ZZ=           -395.9100
   XY=            -42.7284   XZ=              9.3684   YZ=             -1.7409

 Normal termination of Gaussian 09 at Sat Aug  3 19:25:59 2019.
