 Gaussian 09, Revision D.01,
 Gaussian 09:  ES64L-G09RevD.01 24-Apr-2013

 --------------------------
 # td=(NStates=1) B3LYP/SVP
 --------------------------

 --
 TD
 --
 Symbolic Z-matrix:
 Charge =  0 Multiplicity = 1

                         Standard orientation:
 ---------------------------------------------------------------------
 Center     Atomic      Atomic             Coordinates (Angstroms)
 Number     Number       Type             X           Y           Z
 ---------------------------------------------------------------------
      1          6           0       -5.045935   -1.903803    0.461589
      2          6           0       -4.723558    2.807709    1.395568
      3          6           0       -9.417413    3.223810   -0.230790
      4          6           0       -9.835072   -1.584523   -0.787130
      5          7           0       -5.131745    0.583619    0.841982
      6          6           0       -4.424963   -0.609747    0.701975
      7          6           0       -2.973776   -0.463377    1.237862
      8          6           0       -2.954051    0.996929    1.703449
      9          6           0       -4.404500    1.434752    1.350786
     10          6           0       -2.829555    1.029393    3.347626
     11          6           0       -2.038870   -0.696917    0.024500
     12          6           0       -0.596014   -0.713900    0.370428
     13          6           0        0.369411   -0.905941   -0.729029
     14          8           0        0.019251   -1.291873   -1.885049
     15          8           0        1.612959   -0.733386   -0.273604
     16          7           0       -7.000599    2.690026    0.510072
     17          6           0       -5.896386    3.426393    1.053207
     18          6           0       -6.324149    4.751834    0.895894
     19          6           0       -7.616726    4.917905    0.411351
     20          6           0       -8.130984    3.508873    0.192782
     21          6           0       -5.453514    5.951957    1.365049
     22          6           0       -8.362910    6.143892    0.190100
     23          6           0       -9.240628    6.484564   -0.818828
     24          7           0       -9.210545    0.725135   -0.387950
     25          6           0       -9.884731    1.909749   -0.457297
     26          6           0      -11.342593    1.754700   -0.802506
     27          6           0      -11.372590    0.390536   -1.075914
     28          6           0      -10.163001   -0.237459   -0.800251
     29          6           0      -12.362305    2.810550   -0.932110
     30          6           0      -12.714505   -0.398473   -1.475164
     31          6           0      -12.819312   -0.498601   -3.067531
     32          7           0       -7.538981   -1.287196   -0.096632
     33          6           0       -8.603898   -2.155901   -0.441988
     34          6           0       -8.137608   -3.565100   -0.527010
     35          6           0       -6.764053   -3.402262   -0.060144
     36          6           0       -6.419904   -2.092187    0.174838
     37          6           0       -8.904732   -4.745621   -0.897196
     38          6           0       -5.604677   -4.291693    0.118283
     39          8           0       -5.366700   -5.454286   -0.018877
     40          6           0       -4.395298   -3.280761    0.438931
     41          6           0       -3.789049   -3.679921    1.715140
     42          8           0       -4.309188   -3.372032    2.806668
     43          8           0       -2.884840   -4.616301    1.632871
     44          6           0       -2.368676   -5.373997    2.813396
     45          6           0        2.674386   -1.135566   -1.326615
     46          6           0        4.050992   -0.838463   -0.755713
     47          6           0        4.917037    0.156582   -1.152791
     48          6           0        4.673585    0.927460   -2.442079
     49          6           0        6.241969    0.422778   -0.441560
     50          6           0        7.435216   -0.254130   -1.154601
     51          6           0        8.773560   -0.027713   -0.294173
     52          6           0       10.010337   -0.543126   -0.979143
     53          6           0        9.867340   -2.064341   -1.216091
     54          6           0       11.334438   -0.205590   -0.139075
     55          6           0       12.660121   -0.407673   -0.829503
     56          6           0       13.757102   -0.108453    0.087482
     57          6           0       15.176448   -0.124425   -0.533362
     58          6           0       15.452954   -1.566624   -0.880484
     59          6           0       16.214628    0.463920    0.541278
     60          6           0       17.688002    0.678962   -0.046335
     61          6           0       18.762097    1.288601    0.992060
     62          6           0       20.258635    1.518016    0.386404
     63          6           0       20.291926    2.324488   -0.951363
     64          6           0       21.214504    1.992275    1.555285
     65          1           0       -3.820492    3.381423    1.846945
     66          1           0      -10.045158    4.152564   -0.237231
     67          1           0      -10.850706   -2.163167   -0.935569
     68          1           0       -2.702707   -1.232737    2.166700
     69          1           0       -2.189970    1.740705    1.422955
     70          1           0       -1.854042    0.468509    3.568003
     71          1           0       -2.697047    2.069378    3.687703
     72          1           0       -3.704009    0.675815    3.730500
     73          1           0       -2.206114   -1.890395   -0.253573
     74          1           0       -2.273048   -0.034221   -0.985021
     75          1           0       -0.183314    0.363833    0.694595
     76          1           0       -0.288859   -1.336644    1.235769
     77          1           0       -4.685435    6.290848    0.690272
     78          1           0       -5.952008    6.955887    1.774271
     79          1           0       -4.949657    5.782754    2.317326
     80          1           0       -8.047861    6.974613    0.969623
     81          1           0       -9.694774    5.686892   -1.388344
     82          1           0       -9.627433    7.446071   -0.852332
     83          1           0      -12.608311    3.319562    0.033431
     84          1           0      -12.079231    3.560965   -1.539007
     85          1           0      -13.220794    2.235035   -1.341134
     86          1           0      -12.973489   -1.323772   -0.896900
     87          1           0      -13.589964    0.073479   -1.102089
     88          1           0      -12.866084    0.554868   -3.358151
     89          1           0      -11.884518   -0.981945   -3.419046
     90          1           0      -13.490308   -1.159036   -3.325091
     91          1           0       -9.927081   -4.804698   -0.264069
     92          1           0       -9.262837   -4.593191   -2.079313
     93          1           0       -8.334843   -5.742321   -0.779018
     94          1           0       -3.574119   -3.287772   -0.168243
     95          1           0       -1.511792   -5.991833    2.429701
     96          1           0       -2.109972   -4.486822    3.561393
     97          1           0       -3.254860   -6.062544    3.090933
     98          1           0        2.612476   -2.266552   -1.807070
     99          1           0        2.323051   -0.489870   -2.224616
    100          1           0        4.102549   -1.459815    0.300118
    101          1           0        4.590440    2.117620   -2.164872
    102          1           0        5.663619    0.815117   -3.080969
    103          1           0        3.649027    0.542988   -3.058100
    104          1           0        6.399409    1.488557   -0.119471
    105          1           0        6.140172   -0.026348    0.615607
    106          1           0        7.050656   -1.352964   -1.303094
    107          1           0        7.378061    0.231011   -2.160726
    108          1           0        8.824761    1.191460   -0.420122
    109          1           0        8.809723   -0.290582    0.764086
    110          1           0       10.097741   -0.059926   -1.894226
    111          1           0        9.073358   -2.358199   -1.908107
    112          1           0       10.664019   -2.570091   -1.681200
    113          1           0        9.601877   -2.678509   -0.327679
    114          1           0       11.241052    0.825890    0.557476
    115          1           0       11.216429   -1.122076    0.824416
    116          1           0       12.664619   -1.339496   -1.007614
    117          1           0       12.560233    0.195470   -1.916135
    118          1           0       13.636955    0.864193    0.434526
    119          1           0       13.835086   -0.837814    0.952651
    120          1           0       15.178743    0.401266   -1.394629
    121          1           0       14.759990   -2.178571   -1.341141
    122          1           0       16.318106   -1.781284   -1.590866
    123          1           0       15.784072   -2.160000   -0.114195
    124          1           0       15.975640    1.561224    0.857323
    125          1           0       16.329118   -0.225351    1.485087
    126          1           0       18.065536   -0.185452   -0.515312
    127          1           0       17.475828    1.301646   -1.012097
    128          1           0       18.472054    2.350844    1.293992
    129          1           0       18.737360    0.618854    1.959971
    130          1           0       20.821091    0.621941    0.051560
    131          1           0       19.781489    3.408547   -0.735974
    132          1           0       21.273192    2.328563   -1.203015
    133          1           0       19.698554    1.939901   -1.756742
    134          1           0       21.080655    1.381726    2.521959
    135          1           0       22.210320    2.057839    1.221912
    136          1           0       20.991465    3.166761    1.986485
    137          1           0       -6.977487    1.694614    0.752015
    138          1           0       -7.501505   -0.245319    0.017517
 ---------------------------------------------------------------------

 SCF Done:  E(RB3LYP) =  -2733.04224874     A.U. after   17 cycles

 Excitation energies and oscillator strengths:

 Excited State   1:      Singlet-A      2.0826 eV  595.34 nm  f=0.1169  <S**2>=0.000
     235 -> 237        0.15127
     235 -> 238        0.34014
     236 -> 237        0.58382
     236 -> 238       -0.13388
 This state for optimization and/or second-order correction.
 Total Energy, E(TD-HF/TD-KS) =  -2732.96571515
 Copying the excited state density for this state as the 1-particle RhoCI density.

 The electronic state is 1-A.
 Alpha  occ. eigenvalues --  -19.18608 -19.17251 -19.12489 -19.11529 -19.09731
 Alpha  occ. eigenvalues --  -14.36756 -14.36017 -14.32373 -14.29312 -10.31165
 Alpha  occ. eigenvalues --  -10.30104 -10.27979 -10.27026 -10.26967 -10.24193
 Alpha  occ. eigenvalues --  -10.24131 -10.23811 -10.23655 -10.23007 -10.22689
 Alpha  occ. eigenvalues --  -10.22394 -10.22334 -10.22262 -10.21819 -10.21778
 Alpha  occ. eigenvalues --  -10.21682 -10.21561 -10.21331 -10.21196 -10.21150
 Alpha  occ. eigenvalues --  -10.20997 -10.20946 -10.20847 -10.20672 -10.20670
 Alpha  occ. eigenvalues --  -10.20617 -10.20571 -10.20406 -10.20355 -10.20338
 Alpha  occ. eigenvalues --  -10.20194 -10.20095 -10.20078 -10.19954 -10.19791
 Alpha  occ. eigenvalues --  -10.19734 -10.19723 -10.19605 -10.19572 -10.19233
 Alpha  occ. eigenvalues --  -10.19210 -10.19186 -10.19051 -10.18779 -10.18580
 Alpha  occ. eigenvalues --  -10.18533 -10.18517 -10.18466 -10.18149 -10.17966
 Alpha  occ. eigenvalues --  -10.17547 -10.17357 -10.17292 -10.16411  -1.08566
 Alpha  occ. eigenvalues --   -1.07760  -1.03783  -0.97578  -0.97338  -0.97075
 Alpha  occ. eigenvalues --   -0.96060  -0.95112  -0.91965  -0.84585  -0.82615
 Alpha  occ. eigenvalues --   -0.81926  -0.81375  -0.80914  -0.80165  -0.80071
 Alpha  occ. eigenvalues --   -0.79326  -0.78587  -0.78317  -0.78087  -0.77258
 Alpha  occ. eigenvalues --   -0.76415  -0.76127  -0.75568  -0.74610  -0.74228
 Alpha  occ. eigenvalues --   -0.73531  -0.72726  -0.72427  -0.71318  -0.69911
 Alpha  occ. eigenvalues --   -0.69851  -0.69100  -0.68601  -0.67582  -0.67456
 Alpha  occ. eigenvalues --   -0.67397  -0.67189  -0.65528  -0.65273  -0.64578
 Alpha  occ. eigenvalues --   -0.63742  -0.63002  -0.62312  -0.61933  -0.61317
 Alpha  occ. eigenvalues --   -0.60640  -0.58746  -0.58185  -0.57087  -0.56859
 Alpha  occ. eigenvalues --   -0.56721  -0.56685  -0.55449  -0.54813  -0.54424
 Alpha  occ. eigenvalues --   -0.54335  -0.54136  -0.53947  -0.53280  -0.52596
 Alpha  occ. eigenvalues --   -0.52007  -0.51202  -0.51007  -0.50253  -0.49915
 Alpha  occ. eigenvalues --   -0.49281  -0.49148  -0.48969  -0.48547  -0.48198
 Alpha  occ. eigenvalues --   -0.47470  -0.47290  -0.47162  -0.47005  -0.46621
 Alpha  occ. eigenvalues --   -0.46119  -0.45895  -0.45665  -0.45585  -0.45116
 Alpha  occ. eigenvalues --   -0.44907  -0.44467  -0.44415  -0.44148  -0.43830
 Alpha  occ. eigenvalues --   -0.43805  -0.43466  -0.43398  -0.43205  -0.43136
 Alpha  occ. eigenvalues --   -0.42992  -0.42694  -0.42598  -0.42464  -0.42187
 Alpha  occ. eigenvalues --   -0.42079  -0.41946  -0.41615  -0.41508  -0.41377
 Alpha  occ. eigenvalues --   -0.41122  -0.40900  -0.40743  -0.40552  -0.40278
 Alpha  occ. eigenvalues --   -0.39904  -0.39811  -0.39585  -0.39401  -0.39247
 Alpha  occ. eigenvalues --   -0.39134  -0.38816  -0.38711  -0.38568  -0.38321
 Alpha  occ. eigenvalues --   -0.37999  -0.37986  -0.37800  -0.37593  -0.37418
 Alpha  occ. eigenvalues --   -0.37346  -0.37039  -0.36886  -0.36841  -0.36684
 Alpha  occ. eigenvalues --   -0.36426  -0.35876  -0.35743  -0.35439  -0.35278
 Alpha  occ. eigenvalues --   -0.35155  -0.35078  -0.34980  -0.34870  -0.34732
 Alpha  occ. eigenvalues --   -0.34467  -0.34415  -0.34153  -0.33765  -0.33610
 Alpha  occ. eigenvalues --   -0.33038  -0.33021  -0.32902  -0.32739  -0.32465
 Alpha  occ. eigenvalues --   -0.32106  -0.32048  -0.31751  -0.31582  -0.31487
 Alpha  occ. eigenvalues --   -0.31264  -0.30869  -0.30103  -0.29957  -0.29817
 Alpha  occ. eigenvalues --   -0.29739  -0.29214  -0.28768  -0.28344  -0.27480
 Alpha  occ. eigenvalues --   -0.26623  -0.26466  -0.25739  -0.25520  -0.25263
 Alpha  occ. eigenvalues --   -0.24964  -0.24628  -0.23925  -0.22248  -0.19765
 Alpha  occ. eigenvalues --   -0.18949
 Alpha virt. eigenvalues --   -0.09935  -0.08186  -0.04706  -0.02177  -0.01733
 Alpha virt. eigenvalues --   -0.00209   0.00229   0.00839   0.02079   0.03108
 Alpha virt. eigenvalues --    0.03650   0.04018   0.04074   0.04597   0.04644

 Mulliken charges:
               1
     1  C    0.000964
     2  C   -0.059473
     3  C   -0.145518
     4  C   -0.105208
     5  N   -0.094879
     6  C   -0.025734
     7  C   -0.057654
     8  C   -0.087873
     9  C   -0.077637
    10  C    0.049503
    11  C   -0.024157
    12  C    0.012763
    13  C    0.203835
    14  O   -0.295923
    15  O   -0.324402
    16  N   -0.160222
    17  C    0.141694
    18  C   -0.067361
    19  C    0.019828
    20  C    0.133475
    21  C    0.033285
    22  C   -0.103352
    23  C    0.015706
    24  N   -0.267999
    25  C    0.116841
    26  C   -0.185780
    27  C   -0.065083
    28  C    0.047512
    29  C    0.181282
    30  C   -0.019797
    31  C    0.099910
    32  N   -0.113422
    33  C    0.139171
    34  C   -0.059429
    35  C   -0.064268
    36  C    0.119306
    37  C   -0.023327
    38  C    0.097270
    39  O   -0.140054
    40  C    0.034055
    41  C    0.147953
    42  O   -0.294445
    43  O   -0.295937
    44  C    0.132872
    45  C    0.154414
    46  C   -0.093696
    47  C   -0.104182
    48  C   -0.046415
    49  C    0.033280
    50  C   -0.009811
    51  C    0.006379
    52  C    0.041811
    53  C    0.039898
    54  C   -0.160969
    55  C    0.204257
    56  C    0.044836
    57  C    0.018177
    58  C    0.069622
    59  C   -0.023208
    60  C    0.002015
    61  C    0.005974
    62  C   -0.101633
    63  C    0.044598
    64  C   -0.021487
    65  H   -0.003844
    66  H   -0.000885
    67  H    0.012838
    68  H    0.064020
    69  H    0.012446
    70  H    0.030289
    71  H    0.006511
    72  H    0.015232
    73  H    0.040832
    74  H    0.061250
    75  H    0.028541
    76  H    0.035894
    77  H    0.023482
    78  H    0.019291
    79  H    0.008915
    80  H    0.028034
    81  H    0.026364
    82  H    0.012724
    83  H    0.022109
    84  H   -0.013136
    85  H    0.016860
    86  H    0.000722
    87  H   -0.018121
    88  H    0.021385
    89  H    0.005265
    90  H   -0.028856
    91  H    0.057019
    92  H    0.057857
    93  H    0.065440
    94  H   -0.006733
    95  H    0.058648
    96  H    0.072975
    97  H    0.071404
    98  H    0.068898
    99  H    0.041923
   100  H    0.034612
   101  H    0.048426
   102  H    0.045930
   103  H    0.056628
   104  H    0.008831
   105  H   -0.002419
   106  H    0.028104
   107  H    0.007164
   108  H    0.009975
   109  H    0.011479
   110  H   -0.036874
   111  H   -0.005711
   112  H   -0.011092
   113  H    0.001527
   114  H    0.021207
   115  H   -0.007458
   116  H   -0.083205
   117  H    0.014117
   118  H   -0.035313
   119  H    0.002010
   120  H   -0.048180
   121  H   -0.023057
   122  H   -0.013832
   123  H   -0.033859
   124  H    0.016019
   125  H    0.014885
   126  H   -0.017372
   127  H   -0.001675
   128  H    0.013939
   129  H    0.019479
   130  H   -0.001472
   131  H    0.014386
   132  H   -0.010097
   133  H    0.012912
   134  H    0.029914
   135  H    0.003673
   136  H    0.006094
   137  H    0.154633
   138  H    0.167927
 Sum of Mulliken charges =   0.00000

 Dipole moment (field-independent basis, Debye):
    X=              3.3843    Y=              2.9774    Z=              0.8445  Tot=              4.5860
 Quadrupole moment (field-independent basis, Debye-Ang):
   XX=           -338.8587   YY=           -376.2827   ZZ=           -399.3157
   XY=            -29.0170   XZ=             -2.8337   YZ=             -0.5216

 Normal termination of Gaussian 09 at Sun Jul 28 03:47:04 2019.
