 Gaussian 09, Revision D.01,
 Gaussian 09:  ES64L-G09RevD.01 24-Apr-2013

 --------------------------
 # td=(NStates=1) B3LYP/SVP
 --------------------------

 --
 TD
 --
 Symbolic Z-matrix:
 Charge =  0 Multiplicity = 1

                         Standard orientation:
 ---------------------------------------------------------------------
 Center     Atomic      Atomic             Coordinates (Angstroms)
 Number     Number       Type             X           Y           Z
 ---------------------------------------------------------------------
      1          6           0       -5.145713   -1.952647    0.425194
      2          6           0       -4.631879    2.745706    1.289972
      3          6           0       -9.373247    3.295108   -0.251600
      4          6           0       -9.858138   -1.443070   -0.935971
      5          7           0       -5.218333    0.439897    0.776045
      6          6           0       -4.514538   -0.763394    0.758124
      7          6           0       -3.009958   -0.677211    1.172628
      8          6           0       -3.075229    0.804619    1.792093
      9          6           0       -4.424483    1.396678    1.274534
     10          6           0       -2.928142    0.869472    3.284343
     11          6           0       -2.009587   -0.823221    0.074957
     12          6           0       -0.600919   -0.665953    0.599609
     13          6           0        0.441612   -0.944177   -0.462979
     14          8           0        0.185044   -1.293504   -1.592844
     15          8           0        1.710529   -0.727119   -0.076536
     16          7           0       -6.907127    2.836021    0.518461
     17          6           0       -5.865762    3.397306    0.893686
     18          6           0       -6.141392    4.771078    0.874977
     19          6           0       -7.491837    4.980057    0.473699
     20          6           0       -8.075432    3.684441    0.170448
     21          6           0       -5.151587    5.805577    1.423040
     22          6           0       -8.137339    6.371353    0.409934
     23          6           0       -8.983616    6.709354   -0.524857
     24          7           0       -9.280636    0.832220   -0.304536
     25          6           0       -9.933170    2.027201   -0.532711
     26          6           0      -11.269229    1.925080   -0.920439
     27          6           0      -11.448921    0.611807   -1.128395
     28          6           0      -10.192477   -0.012593   -0.801746
     29          6           0      -12.225758    3.050446   -1.088135
     30          6           0      -12.706817   -0.066383   -1.573030
     31          6           0      -12.715252   -0.385983   -3.130191
     32          7           0       -7.515784   -1.263484   -0.191499
     33          6           0       -8.580790   -2.093377   -0.607629
     34          6           0       -8.242747   -3.507182   -0.669830
     35          6           0       -6.893973   -3.473330   -0.257894
     36          6           0       -6.535326   -2.034683    0.075164
     37          6           0       -9.096325   -4.583610   -0.937373
     38          6           0       -5.795372   -4.339216    0.025212
     39          8           0       -5.689917   -5.518032   -0.155504
     40          6           0       -4.571213   -3.365184    0.367106
     41          6           0       -3.991932   -3.928105    1.685584
     42          8           0       -4.264829   -3.407379    2.725493
     43          8           0       -3.014572   -4.806512    1.460013
     44          6           0       -2.572544   -5.419669    2.712271
     45          6           0        2.701652   -1.102354   -0.977727
     46          6           0        4.007784   -0.704877   -0.329009
     47          6           0        4.927395    0.090525   -0.893333
     48          6           0        4.849575    0.821151   -2.157636
     49          6           0        6.316559    0.168631   -0.118354
     50          6           0        7.556465   -0.434747   -0.861099
     51          6           0        8.820859   -0.379914   -0.202830
     52          6           0       10.092159   -0.746531   -0.889911
     53          6           0       10.042185   -2.249376   -1.324186
     54          6           0       11.364433   -0.485162   -0.025421
     55          6           0       12.668205   -0.561030   -0.827975
     56          6           0       13.853557   -0.211597    0.073085
     57          6           0       15.323110   -0.223782   -0.438385
     58          6           0       15.669566   -1.725727   -0.686508
     59          6           0       16.324268    0.364287    0.462144
     60          6           0       17.722119    0.751299   -0.246174
     61          6           0       18.554638    1.625907    0.700518
     62          6           0       19.960817    1.878855    0.181955
     63          6           0       20.099340    2.384241   -1.245584
     64          6           0       20.766556    2.660784    1.251898
     65          1           0       -4.009437    3.418375    1.599802
     66          1           0      -10.019350    4.008518   -0.449063
     67          1           0      -10.737373   -2.011163   -1.075238
     68          1           0       -2.775345   -1.383289    1.930704
     69          1           0       -2.227190    1.519019    1.248583
     70          1           0       -2.005713    0.400374    3.696339
     71          1           0       -3.101216    1.821944    3.726398
     72          1           0       -3.592297    0.129452    3.813464
     73          1           0       -2.143107   -1.725958   -0.477714
     74          1           0       -2.237808   -0.033740   -0.737814
     75          1           0       -0.370514    0.446818    1.104564
     76          1           0       -0.407663   -1.427373    1.331607
     77          1           0       -4.321138    5.782550    0.866752
     78          1           0       -5.684153    6.764689    1.238442
     79          1           0       -4.894234    5.570969    2.479281
     80          1           0       -7.805502    6.998603    1.114809
     81          1           0       -9.178466    5.954225   -1.214762
     82          1           0       -9.544613    7.813108   -0.595657
     83          1           0      -12.179239    3.660546   -0.292270
     84          1           0      -11.977382    3.600781   -2.144576
     85          1           0      -13.222353    2.576480   -1.330482
     86          1           0      -12.674130   -1.067806   -1.151215
     87          1           0      -13.547539    0.406887   -1.240949
     88          1           0      -12.840246    0.595520   -3.597160
     89          1           0      -11.932626   -0.901991   -3.673689
     90          1           0      -13.653599   -0.946326   -3.460583
     91          1           0      -10.107537   -4.628006   -0.254924
     92          1           0       -9.562436   -4.504798   -1.896493
     93          1           0       -8.540536   -5.688242   -0.855055
     94          1           0       -3.855176   -3.525922   -0.490627
     95          1           0       -1.793316   -6.152766    2.362011
     96          1           0       -2.358073   -4.666008    3.368586
     97          1           0       -3.516934   -6.068150    3.119073
     98          1           0        2.786252   -2.157329   -1.273326
     99          1           0        2.601430   -0.557595   -1.961978
    100          1           0        4.315876   -1.451357    0.442332
    101          1           0        5.692152    1.753201   -1.909486
    102          1           0        5.367663    0.201200   -3.037420
    103          1           0        3.919898    1.295202   -2.413604
    104          1           0        6.603535    1.226455    0.083727
    105          1           0        6.452726   -0.537483    0.877089
    106          1           0        6.909229   -1.452709   -1.177471
    107          1           0        7.719402    0.102495   -1.861956
    108          1           0        8.969247    0.686766    0.278623
    109          1           0        8.735766   -1.226200    0.786846
    110          1           0       10.194277   -0.162430   -1.961309
    111          1           0        9.364451   -2.662632   -2.229855
    112          1           0       11.085605   -2.626209   -1.728282
    113          1           0        9.561339   -2.870139   -0.393109
    114          1           0       11.311935    0.556060    0.413485
    115          1           0       11.438215   -1.364765    0.756570
    116          1           0       12.854816   -1.542415   -1.319294
    117          1           0       12.542904    0.251531   -1.675432
    118          1           0       13.608779    0.910436    0.355063
    119          1           0       13.868002   -0.919685    0.951998
    120          1           0       15.331363    0.282395   -1.407381
    121          1           0       14.723580   -2.053716   -1.411511
    122          1           0       16.665197   -1.865963   -0.951255
    123          1           0       15.685341   -2.529063    0.334365
    124          1           0       15.888848    1.355509    0.917248
    125          1           0       16.615528   -0.263954    1.407895
    126          1           0       18.204467   -0.169396   -0.253925
    127          1           0       17.522278    1.098923   -1.229342
    128          1           0       18.203175    2.759371    0.943094
    129          1           0       18.539373    1.203143    1.696691
    130          1           0       20.464505    0.857543    0.432290
    131          1           0       19.680761    3.485086   -1.047220
    132          1           0       21.098973    2.510967   -1.411351
    133          1           0       19.759157    1.803894   -2.047627
    134          1           0       20.863696    1.976521    2.250674
    135          1           0       21.834633    2.857117    0.970901
    136          1           0       20.377351    3.671406    1.440878
    137          1           0       -7.117838    1.785056    0.615510
    138          1           0       -7.617791   -0.168057   -0.221136
 ---------------------------------------------------------------------

 SCF Done:  E(RB3LYP) =  -2733.07383835     A.U. after   17 cycles

 Excitation energies and oscillator strengths:

 Excited State   1:      Singlet-A      2.0585 eV  602.32 nm  f=0.1716  <S**2>=0.000
     235 -> 237       -0.18374
     235 -> 238        0.28584
     236 -> 237        0.60754
     236 -> 238        0.10528
 This state for optimization and/or second-order correction.
 Total Energy, E(TD-HF/TD-KS) =  -2732.99819156
 Copying the excited state density for this state as the 1-particle RhoCI density.

 The electronic state is 1-A.
 Alpha  occ. eigenvalues --  -19.18134 -19.17759 -19.12286 -19.11976 -19.11930
 Alpha  occ. eigenvalues --  -14.38057 -14.36691 -14.31869 -14.30259 -10.31160
 Alpha  occ. eigenvalues --  -10.31151 -10.27107 -10.25268 -10.24532 -10.24302
 Alpha  occ. eigenvalues --  -10.24074 -10.23980 -10.23144 -10.22531 -10.22383
 Alpha  occ. eigenvalues --  -10.22362 -10.21443 -10.21442 -10.21421 -10.21370
 Alpha  occ. eigenvalues --  -10.21083 -10.20958 -10.20856 -10.20785 -10.20763
 Alpha  occ. eigenvalues --  -10.20615 -10.20535 -10.20530 -10.20482 -10.20417
 Alpha  occ. eigenvalues --  -10.19991 -10.19948 -10.19904 -10.19841 -10.19835
 Alpha  occ. eigenvalues --  -10.19834 -10.19781 -10.19733 -10.19559 -10.19372
 Alpha  occ. eigenvalues --  -10.19277 -10.19274 -10.19210 -10.19172 -10.19137
 Alpha  occ. eigenvalues --  -10.18943 -10.18914 -10.18906 -10.18884 -10.18806
 Alpha  occ. eigenvalues --  -10.18797 -10.18524 -10.18428 -10.18328 -10.17984
 Alpha  occ. eigenvalues --  -10.17883 -10.17781 -10.17670 -10.17576  -1.10468
 Alpha  occ. eigenvalues --   -1.10032  -1.03399  -1.01369  -1.00684  -0.99579
 Alpha  occ. eigenvalues --   -0.99192  -0.94911  -0.93079  -0.83507  -0.82551
 Alpha  occ. eigenvalues --   -0.82059  -0.81793  -0.81496  -0.81327  -0.80891
 Alpha  occ. eigenvalues --   -0.80596  -0.79936  -0.79865  -0.78432  -0.77363
 Alpha  occ. eigenvalues --   -0.76756  -0.76321  -0.75449  -0.74974  -0.74405
 Alpha  occ. eigenvalues --   -0.73504  -0.72990  -0.72791  -0.71689  -0.70890
 Alpha  occ. eigenvalues --   -0.70107  -0.69521  -0.68641  -0.68173  -0.68086
 Alpha  occ. eigenvalues --   -0.66969  -0.66379  -0.65493  -0.65188  -0.64971
 Alpha  occ. eigenvalues --   -0.64115  -0.62792  -0.62444  -0.62200  -0.61240
 Alpha  occ. eigenvalues --   -0.60814  -0.58732  -0.58453  -0.57996  -0.57140
 Alpha  occ. eigenvalues --   -0.56375  -0.55966  -0.55637  -0.55476  -0.55009
 Alpha  occ. eigenvalues --   -0.54929  -0.54037  -0.53803  -0.53399  -0.53152
 Alpha  occ. eigenvalues --   -0.52568  -0.52143  -0.51792  -0.51078  -0.50436
 Alpha  occ. eigenvalues --   -0.50006  -0.49860  -0.48885  -0.48571  -0.48052
 Alpha  occ. eigenvalues --   -0.47842  -0.47718  -0.47668  -0.47399  -0.47031
 Alpha  occ. eigenvalues --   -0.46626  -0.46565  -0.46246  -0.45937  -0.45856
 Alpha  occ. eigenvalues --   -0.45296  -0.45222  -0.45102  -0.44984  -0.44873
 Alpha  occ. eigenvalues --   -0.44804  -0.44516  -0.44257  -0.43982  -0.43955
 Alpha  occ. eigenvalues --   -0.43500  -0.43376  -0.43360  -0.43100  -0.42800
 Alpha  occ. eigenvalues --   -0.42574  -0.42337  -0.42177  -0.42080  -0.41879
 Alpha  occ. eigenvalues --   -0.41492  -0.41292  -0.41024  -0.40917  -0.40639
 Alpha  occ. eigenvalues --   -0.40428  -0.40207  -0.39539  -0.39427  -0.39209
 Alpha  occ. eigenvalues --   -0.39107  -0.38842  -0.38729  -0.38617  -0.38381
 Alpha  occ. eigenvalues --   -0.38169  -0.38146  -0.37916  -0.37591  -0.37411
 Alpha  occ. eigenvalues --   -0.37068  -0.36866  -0.36705  -0.36559  -0.36521
 Alpha  occ. eigenvalues --   -0.36345  -0.36043  -0.35819  -0.35667  -0.35403
 Alpha  occ. eigenvalues --   -0.35107  -0.35043  -0.34960  -0.34951  -0.34759
 Alpha  occ. eigenvalues --   -0.34534  -0.34338  -0.34321  -0.34190  -0.33644
 Alpha  occ. eigenvalues --   -0.33545  -0.33247  -0.33142  -0.32697  -0.32316
 Alpha  occ. eigenvalues --   -0.32142  -0.31930  -0.31842  -0.31012  -0.30878
 Alpha  occ. eigenvalues --   -0.30786  -0.30581  -0.30220  -0.30160  -0.29781
 Alpha  occ. eigenvalues --   -0.29187  -0.28692  -0.28578  -0.28348  -0.28121
 Alpha  occ. eigenvalues --   -0.27863  -0.27513  -0.26981  -0.26459  -0.25811
 Alpha  occ. eigenvalues --   -0.24956  -0.24492  -0.23716  -0.23175  -0.19422
 Alpha  occ. eigenvalues --   -0.19206
 Alpha virt. eigenvalues --   -0.10543  -0.07421  -0.04100  -0.00833  -0.00343
 Alpha virt. eigenvalues --    0.00092   0.00242   0.00986   0.02325   0.03088
 Alpha virt. eigenvalues --    0.03816   0.04125   0.04161   0.04406   0.04458

 Mulliken charges:
               1
     1  C    0.018108
     2  C    0.017101
     3  C   -0.009331
     4  C   -0.028194
     5  N   -0.200077
     6  C   -0.058371
     7  C    0.013648
     8  C   -0.114438
     9  C    0.083512
    10  C    0.090471
    11  C    0.079440
    12  C    0.022030
    13  C    0.155306
    14  O   -0.238238
    15  O   -0.278343
    16  N   -0.041928
    17  C    0.004250
    18  C   -0.219423
    19  C    0.006150
    20  C    0.099407
    21  C    0.174292
    22  C    0.013696
    23  C   -0.017603
    24  N   -0.234890
    25  C    0.062077
    26  C   -0.168276
    27  C   -0.087200
    28  C    0.007033
    29  C    0.143357
    30  C    0.132048
    31  C   -0.017581
    32  N    0.000496
    33  C    0.053414
    34  C   -0.033279
    35  C   -0.029482
    36  C    0.050859
    37  C   -0.003703
    38  C    0.025575
    39  O   -0.159850
    40  C   -0.063498
    41  C    0.185401
    42  O   -0.217673
    43  O   -0.297110
    44  C    0.176264
    45  C    0.241800
    46  C   -0.079895
    47  C   -0.118587
    48  C    0.009367
    49  C    0.009273
    50  C   -0.047905
    51  C    0.011995
    52  C   -0.076603
    53  C   -0.080251
    54  C    0.019927
    55  C   -0.002668
    56  C   -0.013329
    57  C    0.007677
    58  C   -0.046606
    59  C   -0.041243
    60  C    0.105992
    61  C    0.006755
    62  C   -0.137719
    63  C    0.117699
    64  C   -0.025918
    65  H   -0.125905
    66  H   -0.120786
    67  H   -0.045103
    68  H   -0.012811
    69  H    0.017986
    70  H    0.002634
    71  H    0.006919
    72  H    0.012701
    73  H    0.002484
    74  H    0.013562
    75  H    0.070036
    76  H    0.016870
    77  H   -0.011453
    78  H    0.009016
    79  H    0.035890
    80  H   -0.040734
    81  H    0.010771
    82  H    0.053648
    83  H    0.013276
    84  H    0.038850
    85  H    0.012016
    86  H   -0.013201
    87  H   -0.019528
    88  H    0.000187
    89  H    0.021647
    90  H    0.008753
    91  H    0.051110
    92  H    0.020490
    93  H    0.077205
    94  H    0.067222
    95  H    0.050635
    96  H    0.023929
    97  H    0.050557
    98  H    0.021019
    99  H    0.005388
   100  H    0.006566
   101  H    0.024949
   102  H    0.064846
   103  H    0.043409
   104  H    0.004515
   105  H    0.023251
   106  H    0.023098
   107  H   -0.006159
   108  H    0.012572
   109  H    0.005163
   110  H    0.010567
   111  H    0.029957
   112  H    0.028231
   113  H    0.024021
   114  H    0.010308
   115  H    0.018367
   116  H    0.006565
   117  H    0.001766
   118  H    0.002099
   119  H    0.004043
   120  H   -0.014816
   121  H    0.036136
   122  H   -0.004023
   123  H    0.013739
   124  H   -0.000829
   125  H    0.005233
   126  H   -0.022142
   127  H   -0.002676
   128  H   -0.010745
   129  H   -0.017410
   130  H   -0.011416
   131  H    0.013594
   132  H   -0.022098
   133  H    0.012272
   134  H    0.026928
   135  H    0.006560
   136  H    0.004814
   137  H    0.173163
   138  H    0.195092
 Sum of Mulliken charges =   0.00000

 Dipole moment (field-independent basis, Debye):
    X=              0.7839    Y=              2.7849    Z=              0.0993  Tot=              2.8948
 Quadrupole moment (field-independent basis, Debye-Ang):
   XX=           -322.9750   YY=           -383.8304   ZZ=           -396.1731
   XY=            -17.3429   XZ=              3.5643   YZ=             -4.3541

 Normal termination of Gaussian 09 at Tue Jul 30 09:37:36 2019.
