 Gaussian 09, Revision D.01,
 Gaussian 09:  ES64L-G09RevD.01 24-Apr-2013

 --------------------------
 # td=(NStates=1) B3LYP/SVP
 --------------------------

 --
 TD
 --
 Symbolic Z-matrix:
 Charge =  0 Multiplicity = 1

                         Standard orientation:
 ---------------------------------------------------------------------
 Center     Atomic      Atomic             Coordinates (Angstroms)
 Number     Number       Type             X           Y           Z
 ---------------------------------------------------------------------
      1          6           0       -5.095702   -1.985429    0.440758
      2          6           0       -4.618245    2.650649    1.526917
      3          6           0       -9.266586    3.269307   -0.072610
      4          6           0       -9.867996   -1.426611   -1.007469
      5          7           0       -5.101361    0.368488    0.869553
      6          6           0       -4.481656   -0.882556    0.842125
      7          6           0       -3.126205   -0.647814    1.346977
      8          6           0       -3.029512    0.714368    1.901514
      9          6           0       -4.347748    1.322123    1.370714
     10          6           0       -2.795443    0.839589    3.334756
     11          6           0       -1.980673   -0.932916    0.221187
     12          6           0       -0.534352   -0.843229    0.555959
     13          6           0        0.395263   -0.969685   -0.566140
     14          8           0        0.163952   -1.379451   -1.667344
     15          8           0        1.709928   -0.763730   -0.208999
     16          7           0       -6.939354    2.667226    0.675701
     17          6           0       -5.820729    3.392365    1.191324
     18          6           0       -6.087154    4.691351    1.173138
     19          6           0       -7.439129    4.926585    0.596497
     20          6           0       -7.920588    3.622387    0.320861
     21          6           0       -5.182239    5.748283    1.584868
     22          6           0       -8.017145    6.226198    0.419286
     23          6           0       -8.902814    6.494104   -0.484737
     24          7           0       -9.150352    0.890413   -0.466549
     25          6           0       -9.828602    2.103254   -0.520177
     26          6           0      -11.141205    2.012330   -0.986246
     27          6           0      -11.291793    0.598930   -1.382199
     28          6           0      -10.048707   -0.008416   -0.948934
     29          6           0      -12.181298    3.136935   -1.254380
     30          6           0      -12.490436   -0.108032   -1.877498
     31          6           0      -12.446789   -0.285859   -3.433897
     32          7           0       -7.467072   -1.299421   -0.244449
     33          6           0       -8.602392   -2.045497   -0.625523
     34          6           0       -8.257557   -3.375214   -0.724485
     35          6           0       -6.794164   -3.425029   -0.282102
     36          6           0       -6.475798   -2.123442    0.007148
     37          6           0       -8.938356   -4.514441   -1.160735
     38          6           0       -5.838744   -4.337188   -0.024541
     39          8           0       -5.757468   -5.554939   -0.095149
     40          6           0       -4.627386   -3.407376    0.396859
     41          6           0       -4.199722   -3.938183    1.760094
     42          8           0       -4.553342   -3.426544    2.859403
     43          8           0       -3.271131   -4.884266    1.746634
     44          6           0       -2.799865   -5.487288    3.047335
     45          6           0        2.637906   -0.954101   -1.181243
     46          6           0        3.917148   -0.588233   -0.529773
     47          6           0        4.943898    0.256248   -0.998619
     48          6           0        4.796570    1.028523   -2.309501
     49          6           0        6.265444    0.420065   -0.301451
     50          6           0        7.423358   -0.163766   -1.072953
     51          6           0        8.762548   -0.162443   -0.267331
     52          6           0       10.010477   -0.438819   -1.036214
     53          6           0       10.036870   -1.890468   -1.529628
     54          6           0       11.233748   -0.119003   -0.125554
     55          6           0       12.560485   -0.425762   -0.740491
     56          6           0       13.705025   -0.071873    0.244357
     57          6           0       15.140102   -0.040699   -0.461490
     58          6           0       15.408785   -1.467219   -1.188091
     59          6           0       16.157219    0.320233    0.654840
     60          6           0       17.505523    0.507892   -0.017653
     61          6           0       18.581613    1.358449    0.825183
     62          6           0       20.029667    1.387995    0.268870
     63          6           0       20.106988    2.214302   -1.051904
     64          6           0       21.001247    1.942880    1.340781
     65          1           0       -3.804556    3.360683    1.910498
     66          1           0       -9.962865    4.010865    0.090602
     67          1           0      -10.469288   -2.153041   -1.399039
     68          1           0       -2.693191   -1.513913    2.018312
     69          1           0       -2.325597    1.138805    1.133699
     70          1           0       -1.890452    0.259780    3.802202
     71          1           0       -2.542377    2.042691    3.824139
     72          1           0       -3.605043    0.432326    3.831949
     73          1           0       -2.071866   -1.900815   -0.269214
     74          1           0       -2.146014   -0.227794   -0.610462
     75          1           0       -0.192652    0.065963    1.127499
     76          1           0       -0.202561   -1.648607    1.307293
     77          1           0       -4.461524    6.071193    0.802807
     78          1           0       -5.680410    6.744423    1.845316
     79          1           0       -4.606382    5.637168    2.611831
     80          1           0       -7.804330    7.167595    1.054995
     81          1           0       -9.262967    5.801816   -1.101324
     82          1           0       -9.519891    7.662181   -0.526226
     83          1           0      -12.424363    3.398647   -0.080166
     84          1           0      -11.655749    3.938516   -1.848391
     85          1           0      -13.129129    2.656205   -1.832335
     86          1           0      -12.679718   -1.259840   -1.491303
     87          1           0      -13.388219    0.638243   -1.684327
     88          1           0      -12.214206    0.880899   -3.826014
     89          1           0      -11.651083   -0.801716   -3.722197
     90          1           0      -13.468013   -0.647973   -3.708428
     91          1           0       -9.897344   -4.482787   -0.661934
     92          1           0       -8.980841   -4.385773   -2.144949
     93          1           0       -8.364091   -5.467056   -0.928899
     94          1           0       -3.862099   -3.928061   -0.340504
     95          1           0       -2.153878   -6.610927    2.799202
     96          1           0       -2.279383   -4.777942    3.526173
     97          1           0       -3.746563   -5.806720    3.861398
     98          1           0        2.490860   -1.871142   -1.756229
     99          1           0        2.833024   -0.194784   -2.175463
    100          1           0        4.173198   -1.101890    0.454710
    101          1           0        5.378589    2.099782   -2.343718
    102          1           0        5.317156    0.236585   -2.986530
    103          1           0        3.762887    1.076472   -2.656546
    104          1           0        6.232274    1.343639   -0.045085
    105          1           0        6.285908   -0.020992    0.732536
    106          1           0        7.204354   -1.237119   -1.527187
    107          1           0        7.612657    0.486457   -1.908815
    108          1           0        8.935419    0.970182    0.044754
    109          1           0        8.774736   -0.695889    0.617780
    110          1           0        9.948044    0.331288   -1.881819
    111          1           0        9.043224   -2.177758   -1.929390
    112          1           0       10.883002   -2.223237   -2.186628
    113          1           0       10.130955   -2.543642   -0.771626
    114          1           0       11.222056    0.884514    0.307072
    115          1           0       11.425259   -0.564929    0.858094
    116          1           0       12.855905   -1.413791   -1.073398
    117          1           0       12.669574    0.287023   -1.632312
    118          1           0       13.406010    0.955690    0.837166
    119          1           0       13.820588   -0.870162    1.147527
    120          1           0       15.410487    0.591349   -1.190847
    121          1           0       14.762957   -1.814279   -1.995550
    122          1           0       16.510859   -1.443038   -1.550500
    123          1           0       15.446565   -2.318388   -0.431486
    124          1           0       15.830480    1.353578    1.310855
    125          1           0       16.211153   -0.194385    1.647982
    126          1           0       17.951695   -0.581606   -0.258282
    127          1           0       17.460792    0.943611   -0.947955
    128          1           0       18.132734    2.526405    1.048704
    129          1           0       18.535980    0.875172    2.055465
    130          1           0       20.351501    0.423166   -0.161842
    131          1           0       19.605194    3.130723   -0.976534
    132          1           0       20.952880    2.112336   -1.661852
    133          1           0       19.586070    1.685262   -1.891514
    134          1           0       20.945738    1.352344    2.164284
    135          1           0       22.076590    1.875206    1.170375
    136          1           0       20.817623    3.013954    1.365285
    137          1           0       -6.970744    1.715685    0.609643
    138          1           0       -7.475046   -0.326437    0.027843
 ---------------------------------------------------------------------

 SCF Done:  E(RB3LYP) =  -2732.93539353     A.U. after   17 cycles

 Excitation energies and oscillator strengths:

 Excited State   1:      Singlet-A      1.9113 eV  648.67 nm  f=0.1589  <S**2>=0.000
     235 -> 237       -0.21662
     235 -> 238        0.16148
     236 -> 237        0.63856
     236 -> 238        0.11006
     236 <- 237       -0.11301
 This state for optimization and/or second-order correction.
 Total Energy, E(TD-HF/TD-KS) =  -2732.86515272
 Copying the excited state density for this state as the 1-particle RhoCI density.

 The electronic state is 1-A.
 Alpha  occ. eigenvalues --  -19.17808 -19.17371 -19.12642 -19.11115 -19.10274
 Alpha  occ. eigenvalues --  -14.37204 -14.36045 -14.31895 -14.30055 -10.31432
 Alpha  occ. eigenvalues --  -10.30879 -10.27371 -10.26322 -10.24920 -10.24415
 Alpha  occ. eigenvalues --  -10.23902 -10.23602 -10.23531 -10.22881 -10.22707
 Alpha  occ. eigenvalues --  -10.22645 -10.22153 -10.21812 -10.21780 -10.21703
 Alpha  occ. eigenvalues --  -10.21690 -10.21583 -10.21404 -10.21347 -10.21237
 Alpha  occ. eigenvalues --  -10.20940 -10.20708 -10.20694 -10.20549 -10.20547
 Alpha  occ. eigenvalues --  -10.20437 -10.20375 -10.20235 -10.20220 -10.20171
 Alpha  occ. eigenvalues --  -10.20133 -10.20069 -10.19920 -10.19795 -10.19767
 Alpha  occ. eigenvalues --  -10.19558 -10.19526 -10.19472 -10.19376 -10.19361
 Alpha  occ. eigenvalues --  -10.19299 -10.19286 -10.19075 -10.18780 -10.18678
 Alpha  occ. eigenvalues --  -10.18140 -10.18011 -10.18006 -10.17784 -10.17572
 Alpha  occ. eigenvalues --  -10.17501 -10.16926 -10.16913 -10.16594  -1.10696
 Alpha  occ. eigenvalues --   -1.07685  -1.01596  -1.01582  -0.99460  -0.96807
 Alpha  occ. eigenvalues --   -0.96451  -0.95051  -0.93459  -0.85941  -0.82867
 Alpha  occ. eigenvalues --   -0.82770  -0.82518  -0.81993  -0.81188  -0.81084
 Alpha  occ. eigenvalues --   -0.80271  -0.79826  -0.79094  -0.78965  -0.78733
 Alpha  occ. eigenvalues --   -0.78117  -0.76530  -0.75915  -0.75237  -0.74767
 Alpha  occ. eigenvalues --   -0.73889  -0.73028  -0.72508  -0.71783  -0.71315
 Alpha  occ. eigenvalues --   -0.70525  -0.69250  -0.68992  -0.68792  -0.68148
 Alpha  occ. eigenvalues --   -0.67682  -0.67360  -0.66195  -0.65693  -0.65122
 Alpha  occ. eigenvalues --   -0.64576  -0.63810  -0.62724  -0.61874  -0.61371
 Alpha  occ. eigenvalues --   -0.60837  -0.59462  -0.58763  -0.58256  -0.57487
 Alpha  occ. eigenvalues --   -0.57129  -0.56394  -0.56234  -0.55923  -0.55889
 Alpha  occ. eigenvalues --   -0.55636  -0.55048  -0.54816  -0.54202  -0.53016
 Alpha  occ. eigenvalues --   -0.52865  -0.52462  -0.52193  -0.51314  -0.50002
 Alpha  occ. eigenvalues --   -0.49792  -0.49384  -0.49071  -0.48331  -0.47995
 Alpha  occ. eigenvalues --   -0.47806  -0.47589  -0.47507  -0.47148  -0.47034
 Alpha  occ. eigenvalues --   -0.46930  -0.46644  -0.46088  -0.46002  -0.45843
 Alpha  occ. eigenvalues --   -0.45603  -0.45485  -0.45284  -0.44929  -0.44737
 Alpha  occ. eigenvalues --   -0.44476  -0.44098  -0.43979  -0.43841  -0.43658
 Alpha  occ. eigenvalues --   -0.43190  -0.43107  -0.43003  -0.42934  -0.42712
 Alpha  occ. eigenvalues --   -0.42530  -0.42308  -0.42014  -0.41778  -0.41588
 Alpha  occ. eigenvalues --   -0.41353  -0.41215  -0.40703  -0.40604  -0.40531
 Alpha  occ. eigenvalues --   -0.40460  -0.40285  -0.40096  -0.39960  -0.39759
 Alpha  occ. eigenvalues --   -0.39590  -0.39537  -0.39064  -0.38754  -0.38250
 Alpha  occ. eigenvalues --   -0.38211  -0.37992  -0.37987  -0.37719  -0.37463
 Alpha  occ. eigenvalues --   -0.37375  -0.37224  -0.36902  -0.36796  -0.36771
 Alpha  occ. eigenvalues --   -0.36194  -0.36129  -0.36077  -0.35735  -0.35430
 Alpha  occ. eigenvalues --   -0.35257  -0.34828  -0.34597  -0.34444  -0.34247
 Alpha  occ. eigenvalues --   -0.33954  -0.33872  -0.33601  -0.33412  -0.33375
 Alpha  occ. eigenvalues --   -0.33111  -0.32904  -0.32869  -0.32699  -0.32625
 Alpha  occ. eigenvalues --   -0.32220  -0.31921  -0.31789  -0.31477  -0.31429
 Alpha  occ. eigenvalues --   -0.31376  -0.30656  -0.30176  -0.29919  -0.29256
 Alpha  occ. eigenvalues --   -0.29241  -0.28462  -0.28220  -0.27998  -0.27558
 Alpha  occ. eigenvalues --   -0.27406  -0.27212  -0.25925  -0.25715  -0.25543
 Alpha  occ. eigenvalues --   -0.24315  -0.24061  -0.22814  -0.21990  -0.21127
 Alpha  occ. eigenvalues --   -0.19306
 Alpha virt. eigenvalues --   -0.12225  -0.08477  -0.04632  -0.01455  -0.00661
 Alpha virt. eigenvalues --   -0.00306   0.00471   0.00630   0.02182   0.02891
 Alpha virt. eigenvalues --    0.03271   0.03726   0.04191   0.04296   0.04576

 Mulliken charges:
               1
     1  C    0.117540
     2  C   -0.059229
     3  C   -0.093071
     4  C   -0.025265
     5  N   -0.181112
     6  C   -0.014109
     7  C   -0.132703
     8  C    0.122183
     9  C   -0.050360
    10  C    0.045403
    11  C    0.015477
    12  C    0.034610
    13  C    0.153676
    14  O   -0.213856
    15  O   -0.280021
    16  N   -0.078029
    17  C    0.093713
    18  C   -0.090874
    19  C    0.087090
    20  C    0.131631
    21  C    0.016372
    22  C   -0.055673
    23  C   -0.057126
    24  N   -0.245526
    25  C    0.100260
    26  C   -0.151725
    27  C   -0.069576
    28  C    0.115134
    29  C    0.006733
    30  C   -0.038512
    31  C    0.019819
    32  N    0.016040
    33  C    0.037672
    34  C   -0.121404
    35  C    0.037463
    36  C    0.042022
    37  C    0.163980
    38  C   -0.048995
    39  O   -0.192278
    40  C   -0.110324
    41  C    0.205324
    42  O   -0.296898
    43  O   -0.295755
    44  C    0.130113
    45  C    0.211486
    46  C   -0.069711
    47  C   -0.208564
    48  C    0.000844
    49  C    0.193574
    50  C    0.030157
    51  C   -0.005197
    52  C   -0.018296
    53  C    0.091769
    54  C    0.037287
    55  C    0.055139
    56  C   -0.078255
    57  C    0.022775
    58  C   -0.045826
    59  C   -0.026412
    60  C    0.046708
    61  C   -0.096113
    62  C   -0.075551
    63  C    0.053490
    64  C    0.113838
    65  H   -0.005236
    66  H   -0.043759
    67  H   -0.066698
    68  H    0.024160
    69  H   -0.004428
    70  H    0.024539
    71  H    0.029935
    72  H    0.013435
    73  H    0.018015
    74  H    0.004304
    75  H    0.029611
    76  H    0.042571
    77  H    0.036327
    78  H    0.009494
    79  H    0.037699
    80  H    0.028591
    81  H   -0.025813
    82  H    0.044352
    83  H    0.062950
    84  H    0.055298
    85  H    0.050226
    86  H    0.035669
    87  H    0.022964
    88  H    0.017801
    89  H   -0.011333
    90  H    0.032101
    91  H    0.024234
    92  H    0.001287
    93  H    0.056762
    94  H    0.075446
    95  H    0.078896
    96  H    0.018624
    97  H    0.070533
    98  H    0.024934
    99  H   -0.008504
   100  H   -0.012333
   101  H    0.044444
   102  H    0.045849
   103  H    0.037081
   104  H   -0.055866
   105  H   -0.019805
   106  H    0.029999
   107  H   -0.013661
   108  H   -0.004221
   109  H   -0.027580
   110  H   -0.005014
   111  H   -0.007334
   112  H    0.016333
   113  H   -0.039492
   114  H   -0.027424
   115  H   -0.028224
   116  H    0.006516
   117  H   -0.007627
   118  H    0.011079
   119  H    0.018367
   120  H   -0.033209
   121  H    0.032588
   122  H    0.012761
   123  H    0.010482
   124  H   -0.003734
   125  H   -0.003154
   126  H    0.020174
   127  H   -0.020846
   128  H    0.022941
   129  H    0.009430
   130  H   -0.008617
   131  H   -0.001689
   132  H   -0.010687
   133  H   -0.019683
   134  H   -0.016670
   135  H   -0.014595
   136  H    0.006048
   137  H    0.085297
   138  H    0.144114
 Sum of Mulliken charges =   0.00000

 Dipole moment (field-independent basis, Debye):
    X=              0.1529    Y=              4.0726    Z=              0.1004  Tot=              4.0767
 Quadrupole moment (field-independent basis, Debye-Ang):
   XX=           -331.5695   YY=           -382.8538   ZZ=           -394.8642
   XY=            -28.9055   XZ=              5.9841   YZ=              0.5606

 Normal termination of Gaussian 09 at Thu Jul 25 04:22:03 2019.
