 Gaussian 09, Revision D.01,
 Gaussian 09:  ES64L-G09RevD.01 24-Apr-2013

 --------------------------
 # td=(NStates=1) B3LYP/SVP
 --------------------------

 --
 TD
 --
 Symbolic Z-matrix:
 Charge =  0 Multiplicity = 1

                         Standard orientation:
 ---------------------------------------------------------------------
 Center     Atomic      Atomic             Coordinates (Angstroms)
 Number     Number       Type             X           Y           Z
 ---------------------------------------------------------------------
      1          6           0       -5.193133   -1.905021    0.506503
      2          6           0       -4.822056    2.773281    1.585239
      3          6           0       -9.376540    3.141950   -0.155973
      4          6           0       -9.809013   -1.590352   -0.938113
      5          7           0       -5.145857    0.491703    0.738311
      6          6           0       -4.530616   -0.678199    0.789700
      7          6           0       -3.027654   -0.568030    1.136471
      8          6           0       -3.044547    0.827156    1.887445
      9          6           0       -4.476591    1.421390    1.326639
     10          6           0       -2.966473    0.853595    3.375365
     11          6           0       -1.956119   -0.744625   -0.029846
     12          6           0       -0.573889   -0.672500    0.420626
     13          6           0        0.404758   -0.925352   -0.726886
     14          8           0        0.100186   -1.349821   -1.781430
     15          8           0        1.647986   -0.532326   -0.415856
     16          7           0       -7.032059    2.695504    0.500418
     17          6           0       -6.002224    3.372396    1.053082
     18          6           0       -6.386954    4.783596    1.118383
     19          6           0       -7.702132    4.939822    0.575680
     20          6           0       -8.138814    3.550065    0.211881
     21          6           0       -5.478228    5.845521    1.716311
     22          6           0       -8.291374    6.161117    0.364052
     23          6           0       -9.133200    6.566665   -0.666584
     24          7           0       -9.215522    0.753732   -0.546002
     25          6           0       -9.891874    1.959704   -0.547701
     26          6           0      -11.410400    1.761289   -0.785636
     27          6           0      -11.459393    0.515824   -1.143498
     28          6           0      -10.084161   -0.187796   -0.922389
     29          6           0      -12.364104    3.016631   -0.988336
     30          6           0      -12.666403   -0.289235   -1.715638
     31          6           0      -12.654733   -0.498640   -3.234634
     32          7           0       -7.486402   -1.332789   -0.365532
     33          6           0       -8.593237   -2.116691   -0.680910
     34          6           0       -8.104266   -3.496033   -0.690606
     35          6           0       -6.810430   -3.391800   -0.335733
     36          6           0       -6.474561   -2.058165   -0.096964
     37          6           0       -8.966160   -4.703216   -0.934018
     38          6           0       -5.689619   -4.264816    0.058588
     39          8           0       -5.714747   -5.432341    0.093873
     40          6           0       -4.518582   -3.375581    0.390236
     41          6           0       -3.949173   -3.786936    1.790408
     42          8           0       -4.038999   -3.249119    2.881129
     43          8           0       -3.166787   -4.878728    1.645630
     44          6           0       -2.601270   -5.540899    2.823520
     45          6           0        2.732499   -0.837276   -1.319936
     46          6           0        4.061962   -0.635087   -0.627494
     47          6           0        5.022764    0.207609   -1.082641
     48          6           0        4.897188    1.140363   -2.409859
     49          6           0        6.280938    0.282504   -0.309177
     50          6           0        7.562518   -0.221322   -1.042999
     51          6           0        8.831484   -0.073368   -0.185879
     52          6           0       10.102137   -0.647734   -0.855821
     53          6           0       10.088472   -2.154709   -1.287535
     54          6           0       11.298333   -0.230590    0.095633
     55          6           0       12.787701   -0.521523   -0.619090
     56          6           0       13.878306   -0.030063    0.293336
     57          6           0       15.335289   -0.337235   -0.249561
     58          6           0       15.671399   -1.886597   -0.148710
     59          6           0       16.281647    0.526884    0.421431
     60          6           0       17.815787    0.595459   -0.159742
     61          6           0       18.650575    1.600704    0.545051
     62          6           0       20.157914    1.552000    0.186433
     63          6           0       20.330447    2.049116   -1.280881
     64          6           0       20.970513    2.463723    1.169806
     65          1           0       -4.037570    3.444026    1.964877
     66          1           0      -10.154640    4.078885   -0.295606
     67          1           0      -10.615133   -2.277222   -1.130467
     68          1           0       -2.961625   -1.183291    2.059038
     69          1           0       -2.194989    1.542655    1.545788
     70          1           0       -1.906609    0.523790    3.789189
     71          1           0       -3.021684    1.893539    3.742617
     72          1           0       -3.811065    0.191859    4.048498
     73          1           0       -2.354433   -1.655072   -0.544719
     74          1           0       -2.263885    0.102090   -0.651083
     75          1           0       -0.365430    0.414471    1.001004
     76          1           0       -0.438270   -1.305896    1.200020
     77          1           0       -4.585988    5.966643    1.014299
     78          1           0       -5.982126    6.819373    1.427931
     79          1           0       -5.470405    5.342479    2.869839
     80          1           0       -7.970002    6.955079    1.182411
     81          1           0       -9.438580    5.991647   -1.437471
     82          1           0       -9.547853    7.630585   -0.556850
     83          1           0      -12.220560    3.911051   -0.209446
     84          1           0      -12.144538    3.687610   -2.108621
     85          1           0      -13.413096    2.788952   -0.988522
     86          1           0      -12.663133   -1.396338   -1.410613
     87          1           0      -13.662272   -0.141203   -1.518660
     88          1           0      -13.042884    0.595312   -3.862559
     89          1           0      -11.766530   -0.861457   -3.708243
     90          1           0      -13.677469   -1.171543   -3.447657
     91          1           0       -9.681780   -4.884441    0.058749
     92          1           0       -9.536335   -4.518309   -1.905468
     93          1           0       -8.290760   -5.507784   -1.088715
     94          1           0       -3.662978   -3.507689   -0.288437
     95          1           0       -1.961324   -6.324073    2.560944
     96          1           0       -2.118190   -4.922603    3.530593
     97          1           0       -3.509751   -5.937701    3.343990
     98          1           0        2.692109   -1.973800   -1.459100
     99          1           0        2.766750   -0.436300   -2.161559
    100          1           0        4.185792   -1.113591    0.418544
    101          1           0        4.989938    2.217370   -2.119852
    102          1           0        5.656822    0.813523   -3.076995
    103          1           0        3.868211    1.007241   -3.008805
    104          1           0        6.787484    1.227963   -0.102242
    105          1           0        6.054208   -0.190804    0.616574
    106          1           0        7.302712   -1.228518   -1.284868
    107          1           0        7.657155    0.294246   -1.859007
    108          1           0        9.047956    0.871150   -0.010535
    109          1           0        8.684417   -0.590941    0.844664
    110          1           0       10.290051    0.193358   -1.751748
    111          1           0        9.304937   -2.364524   -2.012815
    112          1           0       10.925464   -2.501649   -1.726266
    113          1           0        9.953969   -2.699770   -0.195433
    114          1           0       11.255546    0.814388    0.321271
    115          1           0       11.117631   -0.679417    0.926087
    116          1           0       12.879892   -1.800947   -0.924867
    117          1           0       12.854483   -0.035268   -1.607456
    118          1           0       13.886522    1.002544    0.244411
    119          1           0       13.694607   -0.536719    1.216504
    120          1           0       15.314381    0.081098   -1.364359
    121          1           0       14.848789   -2.704010   -0.699023
    122          1           0       16.776320   -1.990984   -0.701150
    123          1           0       15.859124   -2.455291    0.960164
    124          1           0       15.972399    1.697723    0.454200
    125          1           0       16.187245    0.142612    1.347772
    126          1           0       18.130883   -0.456844   -0.172452
    127          1           0       17.545008    0.813704   -1.178282
    128          1           0       18.329909    2.689101    0.419099
    129          1           0       18.742892    1.356040    1.665225
    130          1           0       20.429560    0.613461    0.428688
    131          1           0       20.291386    3.275945   -1.574704
    132          1           0       21.302630    1.687255   -1.850862
    133          1           0       19.671493    1.575219   -1.962481
    134          1           0       20.881556    1.925126    2.141444
    135          1           0       21.926818    2.427549    0.861062
    136          1           0       20.667608    3.519541    1.454465
    137          1           0       -7.002004    1.618415    0.641963
    138          1           0       -7.811248   -0.342830   -0.035233
 ---------------------------------------------------------------------

 SCF Done:  E(RB3LYP) =  -2732.96212175     A.U. after   16 cycles

 Excitation energies and oscillator strengths:

 Excited State   1:      Singlet-A      2.0796 eV  596.20 nm  f=0.1998  <S**2>=0.000
     235 -> 237       -0.12065
     235 -> 238        0.27302
     236 -> 237        0.62957
     236 -> 238        0.11227
 This state for optimization and/or second-order correction.
 Total Energy, E(TD-HF/TD-KS) =  -2732.88569844
 Copying the excited state density for this state as the 1-particle RhoCI density.

 The electronic state is 1-A.
 Alpha  occ. eigenvalues --  -19.17202 -19.17180 -19.12277 -19.12264 -19.12255
 Alpha  occ. eigenvalues --  -14.37031 -14.36426 -14.31978 -14.31264 -10.31785
 Alpha  occ. eigenvalues --  -10.31157 -10.27312 -10.24054 -10.23829 -10.23695
 Alpha  occ. eigenvalues --  -10.23467 -10.23321 -10.22897 -10.22868 -10.22592
 Alpha  occ. eigenvalues --  -10.22446 -10.22406 -10.22371 -10.22287 -10.21937
 Alpha  occ. eigenvalues --  -10.21488 -10.21123 -10.20917 -10.20831 -10.20815
 Alpha  occ. eigenvalues --  -10.20811 -10.20759 -10.20755 -10.20551 -10.20466
 Alpha  occ. eigenvalues --  -10.20446 -10.20442 -10.20400 -10.20267 -10.20206
 Alpha  occ. eigenvalues --  -10.20054 -10.20023 -10.19811 -10.19764 -10.19688
 Alpha  occ. eigenvalues --  -10.19639 -10.19572 -10.19461 -10.19373 -10.19333
 Alpha  occ. eigenvalues --  -10.19331 -10.19307 -10.18783 -10.18701 -10.18697
 Alpha  occ. eigenvalues --  -10.18284 -10.18050 -10.17995 -10.17777 -10.17767
 Alpha  occ. eigenvalues --  -10.17454 -10.17340 -10.17210 -10.17069  -1.09960
 Alpha  occ. eigenvalues --   -1.08503  -1.05568  -1.01530  -1.00389  -0.99268
 Alpha  occ. eigenvalues --   -0.96859  -0.95653  -0.93618  -0.84406  -0.82553
 Alpha  occ. eigenvalues --   -0.81960  -0.81928  -0.81134  -0.81053  -0.80375
 Alpha  occ. eigenvalues --   -0.80061  -0.79818  -0.79278  -0.78536  -0.77364
 Alpha  occ. eigenvalues --   -0.76629  -0.75889  -0.75425  -0.74717  -0.74187
 Alpha  occ. eigenvalues --   -0.73630  -0.72740  -0.72201  -0.71107  -0.70018
 Alpha  occ. eigenvalues --   -0.69775  -0.69174  -0.68551  -0.67941  -0.67654
 Alpha  occ. eigenvalues --   -0.67117  -0.67002  -0.65552  -0.65178  -0.65041
 Alpha  occ. eigenvalues --   -0.64383  -0.62954  -0.62470  -0.62251  -0.61495
 Alpha  occ. eigenvalues --   -0.59866  -0.59746  -0.58081  -0.57724  -0.57626
 Alpha  occ. eigenvalues --   -0.57132  -0.56320  -0.56035  -0.55742  -0.55110
 Alpha  occ. eigenvalues --   -0.54598  -0.53997  -0.53899  -0.53120  -0.53058
 Alpha  occ. eigenvalues --   -0.52695  -0.51815  -0.51532  -0.50931  -0.50372
 Alpha  occ. eigenvalues --   -0.49880  -0.49535  -0.49311  -0.48753  -0.48241
 Alpha  occ. eigenvalues --   -0.47996  -0.47706  -0.47206  -0.47084  -0.46905
 Alpha  occ. eigenvalues --   -0.46753  -0.46452  -0.46133  -0.46046  -0.45696
 Alpha  occ. eigenvalues --   -0.45378  -0.45139  -0.45059  -0.44931  -0.44576
 Alpha  occ. eigenvalues --   -0.44435  -0.44195  -0.43951  -0.43827  -0.43649
 Alpha  occ. eigenvalues --   -0.43579  -0.43289  -0.43018  -0.42731  -0.42465
 Alpha  occ. eigenvalues --   -0.42249  -0.41981  -0.41613  -0.41300  -0.41205
 Alpha  occ. eigenvalues --   -0.40810  -0.40566  -0.40362  -0.40251  -0.40010
 Alpha  occ. eigenvalues --   -0.39918  -0.39655  -0.39519  -0.39379  -0.39028
 Alpha  occ. eigenvalues --   -0.38889  -0.38803  -0.38397  -0.38348  -0.38263
 Alpha  occ. eigenvalues --   -0.38184  -0.37950  -0.37777  -0.37506  -0.37288
 Alpha  occ. eigenvalues --   -0.37243  -0.37070  -0.36983  -0.36816  -0.36740
 Alpha  occ. eigenvalues --   -0.36469  -0.36319  -0.36255  -0.36095  -0.35897
 Alpha  occ. eigenvalues --   -0.35467  -0.35122  -0.34958  -0.34927  -0.34760
 Alpha  occ. eigenvalues --   -0.34738  -0.34575  -0.34152  -0.34004  -0.33743
 Alpha  occ. eigenvalues --   -0.33341  -0.33109  -0.33081  -0.32420  -0.32353
 Alpha  occ. eigenvalues --   -0.32016  -0.31922  -0.31812  -0.31311  -0.31097
 Alpha  occ. eigenvalues --   -0.30902  -0.30735  -0.30274  -0.30153  -0.29846
 Alpha  occ. eigenvalues --   -0.29726  -0.29718  -0.28342  -0.28231  -0.27670
 Alpha  occ. eigenvalues --   -0.27356  -0.27152  -0.26968  -0.26702  -0.25673
 Alpha  occ. eigenvalues --   -0.25146  -0.24601  -0.24429  -0.22854  -0.20106
 Alpha  occ. eigenvalues --   -0.18407
 Alpha virt. eigenvalues --   -0.09834  -0.07393  -0.03770  -0.02272  -0.00297
 Alpha virt. eigenvalues --   -0.00039   0.00644   0.00985   0.02445   0.02994
 Alpha virt. eigenvalues --    0.03282   0.03557   0.04745   0.04847   0.04910

 Mulliken charges:
               1
     1  C   -0.025627
     2  C   -0.067978
     3  C   -0.093652
     4  C   -0.066535
     5  N   -0.107036
     6  C   -0.116102
     7  C   -0.018364
     8  C   -0.137466
     9  C   -0.007479
    10  C   -0.003938
    11  C    0.118530
    12  C    0.048249
    13  C    0.176318
    14  O   -0.195862
    15  O   -0.315396
    16  N   -0.114894
    17  C    0.075343
    18  C   -0.196263
    19  C    0.110078
    20  C    0.109073
    21  C    0.057316
    22  C   -0.155146
    23  C   -0.006336
    24  N   -0.235162
    25  C    0.020992
    26  C   -0.092455
    27  C    0.004026
    28  C    0.044014
    29  C   -0.023793
    30  C    0.096677
    31  C   -0.105864
    32  N    0.001428
    33  C    0.045478
    34  C   -0.166971
    35  C   -0.025078
    36  C    0.076315
    37  C    0.080812
    38  C    0.064158
    39  O   -0.116236
    40  C   -0.046083
    41  C    0.204815
    42  O   -0.233519
    43  O   -0.322052
    44  C    0.227032
    45  C    0.427210
    46  C   -0.169945
    47  C   -0.109624
    48  C    0.019640
    49  C    0.085690
    50  C    0.110561
    51  C    0.066772
    52  C   -0.153151
    53  C    0.086078
    54  C    0.108371
    55  C   -0.059926
    56  C    0.130092
    57  C   -0.069925
    58  C   -0.120794
    59  C   -0.001481
    60  C    0.073555
    61  C    0.011761
    62  C   -0.030855
    63  C   -0.026628
    64  C    0.064624
    65  H   -0.008128
    66  H    0.019700
    67  H   -0.030684
    68  H    0.016652
    69  H    0.005630
    70  H    0.019909
    71  H    0.009633
    72  H    0.051268
    73  H    0.020998
    74  H    0.003599
    75  H    0.051453
    76  H   -0.005758
    77  H    0.043209
    78  H    0.013100
    79  H    0.091927
    80  H    0.036255
    81  H   -0.000625
    82  H    0.036190
    83  H    0.048222
    84  H    0.047386
    85  H    0.021676
    86  H   -0.007563
    87  H   -0.028285
    88  H    0.014105
    89  H    0.032134
    90  H    0.024030
    91  H    0.065626
    92  H    0.037389
    93  H    0.025100
    94  H    0.069133
    95  H    0.022595
    96  H    0.020253
    97  H    0.030028
    98  H    0.012914
    99  H   -0.091611
   100  H    0.012756
   101  H    0.042453
   102  H    0.026804
   103  H    0.034533
   104  H   -0.018193
   105  H   -0.018195
   106  H   -0.014411
   107  H   -0.057378
   108  H   -0.052763
   109  H   -0.006017
   110  H   -0.008894
   111  H    0.013662
   112  H   -0.014282
   113  H    0.020100
   114  H   -0.019056
   115  H   -0.064511
   116  H    0.015599
   117  H   -0.003224
   118  H   -0.026555
   119  H   -0.005511
   120  H   -0.006002
   121  H    0.048591
   122  H    0.035631
   123  H    0.040952
   124  H    0.008370
   125  H   -0.040314
   126  H   -0.007762
   127  H   -0.011261
   128  H    0.007705
   129  H   -0.004303
   130  H   -0.035791
   131  H    0.033656
   132  H    0.004247
   133  H   -0.008540
   134  H   -0.008458
   135  H   -0.018145
   136  H    0.016921
   137  H    0.180025
   138  H    0.182710
 Sum of Mulliken charges =   0.00000

 Dipole moment (field-independent basis, Debye):
    X=              2.7827    Y=              2.7116    Z=              1.1359  Tot=              4.0480
 Quadrupole moment (field-independent basis, Debye-Ang):
   XX=           -353.5838   YY=           -380.7196   ZZ=           -397.5329
   XY=            -16.2671   XZ=              3.3086   YZ=             -3.2599

 Normal termination of Gaussian 09 at Thu Aug  1 12:55:16 2019.
