 Gaussian 09, Revision D.01,
 Gaussian 09:  ES64L-G09RevD.01 24-Apr-2013

 --------------------------
 # td=(NStates=1) B3LYP/SVP
 --------------------------

 --
 TD
 --
 Symbolic Z-matrix:
 Charge =  0 Multiplicity = 1

                         Standard orientation:
 ---------------------------------------------------------------------
 Center     Atomic      Atomic             Coordinates (Angstroms)
 Number     Number       Type             X           Y           Z
 ---------------------------------------------------------------------
      1          6           0       -4.947667   -1.858660    0.328721
      2          6           0       -4.767484    2.860894    1.396205
      3          6           0       -9.397351    3.340099   -0.204603
      4          6           0       -9.798629   -1.551361   -0.772644
      5          7           0       -5.179257    0.477739    0.771771
      6          6           0       -4.379101   -0.730034    0.735226
      7          6           0       -2.944348   -0.474719    1.177590
      8          6           0       -2.997981    0.950547    1.657771
      9          6           0       -4.403901    1.430926    1.223194
     10          6           0       -2.791977    0.917117    3.210639
     11          6           0       -1.999562   -0.778474   -0.018919
     12          6           0       -0.640892   -0.708428    0.378352
     13          6           0        0.298180   -1.047000   -0.769355
     14          8           0       -0.060890   -1.535220   -1.858344
     15          8           0        1.594713   -0.901442   -0.377418
     16          7           0       -7.028198    2.741801    0.352227
     17          6           0       -5.982840    3.441637    0.966108
     18          6           0       -6.279338    4.773595    1.004112
     19          6           0       -7.584988    4.950297    0.377838
     20          6           0       -8.101504    3.606600    0.143298
     21          6           0       -5.349619    5.726167    1.563422
     22          6           0       -8.294680    6.185651    0.230986
     23          6           0       -9.125898    6.584765   -0.799908
     24          7           0       -9.192384    0.842013   -0.371455
     25          6           0       -9.843624    2.007304   -0.406755
     26          6           0      -11.327989    1.753507   -0.715878
     27          6           0      -11.468456    0.483074   -0.876185
     28          6           0      -10.114183   -0.133826   -0.666696
     29          6           0      -12.404763    2.833449   -1.012913
     30          6           0      -12.600664   -0.321662   -1.344934
     31          6           0      -12.729282   -0.413568   -2.929416
     32          7           0       -7.374740   -1.223124   -0.203175
     33          6           0       -8.464327   -1.999713   -0.510151
     34          6           0       -8.102422   -3.429235   -0.516051
     35          6           0       -6.784604   -3.381817   -0.164396
     36          6           0       -6.366606   -2.050730    0.047301
     37          6           0       -9.064418   -4.498576   -0.742843
     38          6           0       -5.545550   -4.301136    0.009357
     39          8           0       -5.527501   -5.498610    0.003267
     40          6           0       -4.372665   -3.360381    0.400855
     41          6           0       -3.809987   -3.700516    1.755398
     42          8           0       -4.159346   -3.275168    2.793399
     43          8           0       -2.820806   -4.656174    1.526483
     44          6           0       -2.259828   -5.272387    2.745935
     45          6           0        2.632111   -1.324296   -1.277619
     46          6           0        3.969568   -0.879357   -0.704313
     47          6           0        4.838783   -0.005913   -1.287105
     48          6           0        4.806737    0.577451   -2.625482
     49          6           0        6.163136    0.301700   -0.500269
     50          6           0        7.442159   -0.319242   -1.087204
     51          6           0        8.742385   -0.165298   -0.381846
     52          6           0       10.070432   -0.850529   -0.780093
     53          6           0        9.955199   -2.342660   -0.816779
     54          6           0       11.282339   -0.237442   -0.030323
     55          6           0       12.580463   -0.506434   -0.757704
     56          6           0       13.782975    0.116667    0.125698
     57          6           0       15.164182   -0.218023   -0.327195
     58          6           0       15.615476   -1.618687   -0.161501
     59          6           0       16.138250    0.871101    0.389853
     60          6           0       17.672705    0.696932    0.033368
     61          6           0       18.624352    1.731573    0.721562
     62          6           0       19.978673    1.695985    0.271982
     63          6           0       20.268044    1.976400   -1.099625
     64          6           0       20.883473    2.523866    1.251081
     65          1           0       -3.889308    3.187950    1.874364
     66          1           0      -10.252004    4.120875   -0.358117
     67          1           0      -10.396541   -2.255571   -1.093128
     68          1           0       -2.633268   -1.287108    1.946378
     69          1           0       -2.293518    1.548765    1.340068
     70          1           0       -1.924794    0.268140    3.515249
     71          1           0       -2.554672    2.005090    3.721603
     72          1           0       -3.726063    0.460665    3.711984
     73          1           0       -2.408426   -1.736769   -0.694015
     74          1           0       -2.340850   -0.177331   -0.812899
     75          1           0       -0.534198    0.261390    0.688212
     76          1           0       -0.281762   -1.512929    1.124642
     77          1           0       -4.502289    6.330404    0.864957
     78          1           0       -5.660204    6.909278    1.907982
     79          1           0       -4.894303    5.415797    2.453125
     80          1           0       -8.055186    7.036216    1.117495
     81          1           0       -9.138462    5.710887   -1.683868
     82          1           0       -9.838611    7.559620   -0.841498
     83          1           0      -12.556124    3.658301   -0.234499
     84          1           0      -12.216622    3.237212   -1.916528
     85          1           0      -13.365639    2.259893   -1.019422
     86          1           0      -12.795903   -1.309710   -0.825611
     87          1           0      -13.444762    0.221971   -0.932931
     88          1           0      -12.486279    0.544540   -3.574305
     89          1           0      -11.702271   -1.005748   -3.265890
     90          1           0      -13.349506   -1.145684   -3.392021
     91          1           0       -9.484619   -4.914628    0.290752
     92          1           0       -9.886704   -4.318419   -1.627074
     93          1           0       -8.394122   -5.359628   -0.981427
     94          1           0       -3.637443   -3.592324   -0.487943
     95          1           0       -1.532364   -5.968796    2.366446
     96          1           0       -1.896040   -4.468097    3.204476
     97          1           0       -2.903217   -5.860482    3.347200
     98          1           0        2.439923   -2.433642   -1.365878
     99          1           0        2.353433   -0.904125   -2.428172
    100          1           0        4.276920   -1.305239    0.242524
    101          1           0        4.958319    1.772821   -2.627883
    102          1           0        5.756866    0.102875   -3.118007
    103          1           0        3.763421    0.529752   -3.187168
    104          1           0        6.405816    1.523145   -0.765623
    105          1           0        6.175457    0.103963    0.561863
    106          1           0        7.175651   -1.580252   -0.934539
    107          1           0        7.427514    0.237776   -2.054281
    108          1           0        8.797997    0.945113   -0.247453
    109          1           0        8.415506   -0.297181    0.820621
    110          1           0       10.143793   -0.491498   -1.874403
    111          1           0        9.091732   -2.643540   -1.282901
    112          1           0       10.811787   -2.708287   -1.363179
    113          1           0       10.077034   -2.663685    0.293055
    114          1           0       11.248253    0.969574    0.103704
    115          1           0       11.341515   -0.627203    1.022716
    116          1           0       12.620319   -1.672522   -0.906606
    117          1           0       12.731768   -0.050645   -1.847420
    118          1           0       13.372129    1.104637    0.246878
    119          1           0       13.488665   -0.357231    1.166984
    120          1           0       15.057141    0.180594   -1.318505
    121          1           0       15.107517   -2.509468   -0.803808
    122          1           0       16.636819   -1.634493   -0.337907
    123          1           0       15.520056   -1.960473    0.954051
    124          1           0       15.676742    1.942682    0.196980
    125          1           0       15.794537    0.778739    1.618166
    126          1           0       17.985124   -0.378623    0.255230
    127          1           0       17.828477    0.824322   -1.148703
    128          1           0       18.248785    2.764432    0.422028
    129          1           0       18.396447    1.643141    1.784282
    130          1           0       20.191589    0.689145    0.481934
    131          1           0       19.882690    2.907876   -1.667143
    132          1           0       21.460024    2.148007   -1.416888
    133          1           0       19.847869    1.197915   -1.797647
    134          1           0       20.708752    2.215297    2.412882
    135          1           0       21.900954    2.537663    0.923460
    136          1           0       20.564282    3.578339    1.265930
    137          1           0       -7.258323    1.791294    0.405746
    138          1           0       -7.409472   -0.174095   -0.106245
 ---------------------------------------------------------------------

 SCF Done:  E(RB3LYP) =  -2733.00834446     A.U. after   17 cycles

 Excitation energies and oscillator strengths:

 Excited State   1:      Singlet-A      1.9889 eV  623.38 nm  f=0.2231  <S**2>=0.000
     235 -> 237       -0.15924
     235 -> 238       -0.22803
     236 -> 237        0.63792
     236 -> 238       -0.12240
 This state for optimization and/or second-order correction.
 Total Energy, E(TD-HF/TD-KS) =  -2732.93525421
 Copying the excited state density for this state as the 1-particle RhoCI density.

 The electronic state is 1-A.
 Alpha  occ. eigenvalues --  -19.17762 -19.16910 -19.13559 -19.12694 -19.12523
 Alpha  occ. eigenvalues --  -14.37314 -14.36276 -14.32185 -14.30668 -10.31740
 Alpha  occ. eigenvalues --  -10.31719 -10.28321 -10.26339 -10.23977 -10.23644
 Alpha  occ. eigenvalues --  -10.23080 -10.23032 -10.22908 -10.22766 -10.22246
 Alpha  occ. eigenvalues --  -10.22129 -10.22058 -10.21887 -10.21745 -10.21696
 Alpha  occ. eigenvalues --  -10.21619 -10.21425 -10.21396 -10.21244 -10.21168
 Alpha  occ. eigenvalues --  -10.21000 -10.20973 -10.20750 -10.20735 -10.20595
 Alpha  occ. eigenvalues --  -10.20496 -10.20383 -10.20293 -10.20288 -10.20242
 Alpha  occ. eigenvalues --  -10.20182 -10.20176 -10.20079 -10.19872 -10.19829
 Alpha  occ. eigenvalues --  -10.19803 -10.19685 -10.19621 -10.19595 -10.19555
 Alpha  occ. eigenvalues --  -10.19549 -10.19385 -10.19133 -10.19072 -10.19007
 Alpha  occ. eigenvalues --  -10.18911 -10.18579 -10.18506 -10.18484 -10.18033
 Alpha  occ. eigenvalues --  -10.18027 -10.17883 -10.17878 -10.17456  -1.08923
 Alpha  occ. eigenvalues --   -1.08384  -1.03821  -1.01208  -0.99352  -0.98986
 Alpha  occ. eigenvalues --   -0.97557  -0.93645  -0.93400  -0.83461  -0.82926
 Alpha  occ. eigenvalues --   -0.82885  -0.82584  -0.81783  -0.81569  -0.81059
 Alpha  occ. eigenvalues --   -0.80482  -0.80313  -0.79986  -0.78333  -0.77940
 Alpha  occ. eigenvalues --   -0.76814  -0.75987  -0.75165  -0.74412  -0.73701
 Alpha  occ. eigenvalues --   -0.73207  -0.73039  -0.72354  -0.72181  -0.70134
 Alpha  occ. eigenvalues --   -0.69920  -0.69262  -0.68560  -0.67844  -0.67508
 Alpha  occ. eigenvalues --   -0.67357  -0.67150  -0.66092  -0.65693  -0.65267
 Alpha  occ. eigenvalues --   -0.63618  -0.62415  -0.62210  -0.61685  -0.61251
 Alpha  occ. eigenvalues --   -0.60560  -0.58743  -0.58047  -0.57685  -0.56922
 Alpha  occ. eigenvalues --   -0.56284  -0.56003  -0.55801  -0.55662  -0.55372
 Alpha  occ. eigenvalues --   -0.55063  -0.54811  -0.54063  -0.53208  -0.52393
 Alpha  occ. eigenvalues --   -0.52110  -0.51805  -0.51519  -0.50610  -0.50392
 Alpha  occ. eigenvalues --   -0.50222  -0.49314  -0.48943  -0.48616  -0.48485
 Alpha  occ. eigenvalues --   -0.48084  -0.47814  -0.47480  -0.47360  -0.47147
 Alpha  occ. eigenvalues --   -0.46854  -0.46498  -0.46073  -0.45855  -0.45672
 Alpha  occ. eigenvalues --   -0.45410  -0.45342  -0.44991  -0.44836  -0.44586
 Alpha  occ. eigenvalues --   -0.44427  -0.44294  -0.43952  -0.43719  -0.43435
 Alpha  occ. eigenvalues --   -0.43350  -0.43246  -0.43112  -0.42754  -0.42717
 Alpha  occ. eigenvalues --   -0.42290  -0.42112  -0.41811  -0.41628  -0.41490
 Alpha  occ. eigenvalues --   -0.41233  -0.41209  -0.40796  -0.40722  -0.40296
 Alpha  occ. eigenvalues --   -0.40013  -0.39757  -0.39743  -0.39734  -0.39555
 Alpha  occ. eigenvalues --   -0.39335  -0.39242  -0.38616  -0.38461  -0.38406
 Alpha  occ. eigenvalues --   -0.38305  -0.38142  -0.37875  -0.37722  -0.37642
 Alpha  occ. eigenvalues --   -0.37593  -0.36947  -0.36878  -0.36536  -0.36425
 Alpha  occ. eigenvalues --   -0.36208  -0.36089  -0.36011  -0.35623  -0.35515
 Alpha  occ. eigenvalues --   -0.35466  -0.35321  -0.35048  -0.34828  -0.34421
 Alpha  occ. eigenvalues --   -0.34351  -0.34047  -0.33921  -0.33613  -0.33517
 Alpha  occ. eigenvalues --   -0.33379  -0.33282  -0.33066  -0.33035  -0.32309
 Alpha  occ. eigenvalues --   -0.31429  -0.31427  -0.31250  -0.30687  -0.30666
 Alpha  occ. eigenvalues --   -0.30578  -0.30374  -0.29920  -0.29787  -0.29686
 Alpha  occ. eigenvalues --   -0.29466  -0.29060  -0.28907  -0.28105  -0.27976
 Alpha  occ. eigenvalues --   -0.27761  -0.27171  -0.26629  -0.26344  -0.26144
 Alpha  occ. eigenvalues --   -0.25156  -0.24922  -0.24241  -0.23574  -0.19842
 Alpha  occ. eigenvalues --   -0.18263
 Alpha virt. eigenvalues --   -0.10222  -0.07110  -0.03896  -0.01904  -0.01263
 Alpha virt. eigenvalues --   -0.00428   0.00240   0.01030   0.02403   0.03440
 Alpha virt. eigenvalues --    0.03961   0.04055   0.04127   0.04330   0.04402

 Mulliken charges:
               1
     1  C    0.003002
     2  C   -0.023617
     3  C   -0.146388
     4  C    0.026442
     5  N   -0.191992
     6  C   -0.064542
     7  C   -0.029709
     8  C    0.099207
     9  C   -0.106811
    10  C   -0.038635
    11  C   -0.039484
    12  C    0.171254
    13  C    0.170717
    14  O   -0.263583
    15  O   -0.317007
    16  N   -0.064780
    17  C    0.217896
    18  C   -0.028030
    19  C    0.019087
    20  C    0.154483
    21  C   -0.039507
    22  C   -0.092509
    23  C   -0.120351
    24  N   -0.226066
    25  C    0.015129
    26  C   -0.174044
    27  C   -0.059807
    28  C    0.057123
    29  C    0.120172
    30  C    0.080968
    31  C   -0.029421
    32  N    0.006171
    33  C    0.032804
    34  C   -0.164003
    35  C   -0.029149
    36  C    0.056117
    37  C    0.019629
    38  C    0.083518
    39  O   -0.145006
    40  C   -0.067541
    41  C    0.226802
    42  O   -0.174190
    43  O   -0.365097
    44  C    0.260800
    45  C    0.191913
    46  C   -0.035169
    47  C   -0.080093
    48  C   -0.023671
    49  C   -0.010175
    50  C   -0.037476
    51  C   -0.005758
    52  C   -0.031007
    53  C    0.107080
    54  C   -0.018789
    55  C   -0.058248
    56  C   -0.022453
    57  C    0.041915
    58  C    0.053256
    59  C   -0.088909
    60  C   -0.026055
    61  C    0.028075
    62  C    0.038014
    63  C   -0.056998
    64  C    0.019789
    65  H   -0.062074
    66  H    0.026478
    67  H   -0.109117
    68  H    0.026328
    69  H   -0.058049
    70  H    0.025254
    71  H    0.027469
    72  H    0.045301
    73  H    0.031199
    74  H   -0.018422
    75  H   -0.004840
    76  H    0.048598
    77  H    0.045543
    78  H    0.017877
    79  H    0.023342
    80  H    0.041089
    81  H    0.061359
    82  H    0.068559
    83  H    0.030108
    84  H    0.002891
    85  H    0.008328
    86  H    0.008490
    87  H   -0.011001
    88  H    0.040648
    89  H   -0.004724
    90  H    0.014378
    91  H    0.056255
    92  H    0.065106
    93  H    0.034848
    94  H    0.084160
    95  H    0.023992
    96  H   -0.005724
    97  H    0.026556
    98  H    0.024931
    99  H    0.049707
   100  H   -0.009054
   101  H    0.036949
   102  H    0.064614
   103  H    0.043120
   104  H    0.005595
   105  H    0.002220
   106  H    0.017330
   107  H    0.011545
   108  H   -0.024767
   109  H   -0.025530
   110  H   -0.008311
   111  H   -0.004844
   112  H    0.001679
   113  H    0.012024
   114  H    0.012390
   115  H    0.009509
   116  H    0.008782
   117  H    0.013027
   118  H   -0.015745
   119  H   -0.014545
   120  H   -0.020248
   121  H    0.033266
   122  H   -0.012339
   123  H    0.012326
   124  H    0.015697
   125  H    0.008011
   126  H    0.021528
   127  H    0.014831
   128  H   -0.016121
   129  H   -0.004506
   130  H   -0.030197
   131  H    0.008223
   132  H    0.021456
   133  H    0.015617
   134  H    0.017420
   135  H    0.003019
   136  H   -0.003854
   137  H    0.123853
   138  H    0.165901
 Sum of Mulliken charges =   0.00000

 Dipole moment (field-independent basis, Debye):
    X=              3.2957    Y=              2.9726    Z=              0.5738  Tot=              4.4751
 Quadrupole moment (field-independent basis, Debye-Ang):
   XX=           -345.9226   YY=           -385.2226   ZZ=           -396.1911
   XY=            -17.7302   XZ=              1.9722   YZ=             -4.6266

 Normal termination of Gaussian 09 at Mon Aug  5 03:33:00 2019.
