 Gaussian 09, Revision D.01,
 Gaussian 09:  ES64L-G09RevD.01 24-Apr-2013

 --------------------------
 # td=(NStates=1) B3LYP/SVP
 --------------------------

 --
 TD
 --
 Symbolic Z-matrix:
 Charge =  0 Multiplicity = 1

                         Standard orientation:
 ---------------------------------------------------------------------
 Center     Atomic      Atomic             Coordinates (Angstroms)
 Number     Number       Type             X           Y           Z
 ---------------------------------------------------------------------
      1          6           0       -5.012953   -1.840189    0.427877
      2          6           0       -4.687497    2.829398    1.292408
      3          6           0       -9.374956    3.355389   -0.264373
      4          6           0       -9.863490   -1.474633   -0.902858
      5          7           0       -5.096615    0.464453    0.724388
      6          6           0       -4.519768   -0.650882    0.815055
      7          6           0       -2.993930   -0.394211    1.238856
      8          6           0       -2.966301    0.976132    1.802229
      9          6           0       -4.348038    1.535065    1.305738
     10          6           0       -2.986881    1.096045    3.332041
     11          6           0       -1.955105   -0.698108    0.099527
     12          6           0       -0.469824   -0.725837    0.538691
     13          6           0        0.455850   -1.057352   -0.610068
     14          8           0        0.011767   -1.510381   -1.640126
     15          8           0        1.724699   -0.890595   -0.219468
     16          7           0       -7.045982    2.778081    0.409845
     17          6           0       -5.973092    3.409607    0.925457
     18          6           0       -6.336119    4.851265    0.913317
     19          6           0       -7.574251    4.976990    0.458848
     20          6           0       -8.121975    3.633915    0.138187
     21          6           0       -5.405511    5.832993    1.461804
     22          6           0       -8.386731    6.268936    0.401149
     23          6           0       -9.250910    6.575145   -0.537001
     24          7           0       -9.199790    0.887954   -0.501531
     25          6           0       -9.859651    2.052843   -0.703956
     26          6           0      -11.284409    1.764497   -1.064874
     27          6           0      -11.501427    0.433031   -1.195219
     28          6           0      -10.100042   -0.030609   -0.832212
     29          6           0      -12.344917    2.921719   -1.187000
     30          6           0      -12.710048   -0.309207   -1.668905
     31          6           0      -12.547021   -0.807632   -3.143782
     32          7           0       -7.510162   -1.235781   -0.182614
     33          6           0       -8.612767   -2.018013   -0.475220
     34          6           0       -8.183782   -3.432865   -0.509779
     35          6           0       -6.807958   -3.306801   -0.227401
     36          6           0       -6.407120   -1.997121    0.041483
     37          6           0       -8.972801   -4.696900   -0.823367
     38          6           0       -5.705347   -4.295237    0.150056
     39          8           0       -5.631786   -5.468576    0.001266
     40          6           0       -4.442133   -3.290914    0.469510
     41          6           0       -3.714193   -3.740172    1.745433
     42          8           0       -3.872712   -3.112247    2.825311
     43          8           0       -2.985249   -4.801949    1.560481
     44          6           0       -2.374453   -5.501774    2.642383
     45          6           0        2.708954   -1.186717   -1.130989
     46          6           0        4.050731   -0.996828   -0.507642
     47          6           0        5.030424   -0.148559   -0.993334
     48          6           0        4.886196    0.699614   -2.201002
     49          6           0        6.349784    0.051778   -0.291216
     50          6           0        7.522969   -0.471607   -0.924216
     51          6           0        8.806576   -0.166015   -0.150347
     52          6           0       10.096013   -0.824913   -0.783293
     53          6           0       10.007637   -2.322560   -0.894721
     54          6           0       11.329577   -0.320773   -0.062046
     55          6           0       12.686745   -0.750214   -0.622574
     56          6           0       13.771755   -0.039902    0.151306
     57          6           0       15.297756   -0.248092   -0.395710
     58          6           0       15.624056   -1.811664   -0.440103
     59          6           0       16.272415    0.607048    0.424440
     60          6           0       17.576726    0.836786   -0.251006
     61          6           0       18.505819    1.737674    0.620797
     62          6           0       19.953209    1.851079    0.156501
     63          6           0       19.977682    2.398921   -1.346045
     64          6           0       20.747828    2.884500    0.980616
     65          1           0       -3.989667    3.694839    1.713959
     66          1           0      -10.129361    4.308950   -0.240268
     67          1           0      -10.653730   -2.286000   -1.206111
     68          1           0       -2.855539   -1.055279    2.044964
     69          1           0       -2.066548    1.288599    1.505678
     70          1           0       -1.989696    0.670302    3.599723
     71          1           0       -3.222008    2.003069    3.871556
     72          1           0       -3.875791    0.374424    3.833590
     73          1           0       -2.064616   -1.635135   -0.470281
     74          1           0       -2.271504    0.193173   -0.512819
     75          1           0       -0.256595    0.335896    1.065790
     76          1           0       -0.361708   -1.423676    1.501402
     77          1           0       -4.652882    6.057617    0.881277
     78          1           0       -5.867717    6.859598    1.669674
     79          1           0       -5.200479    5.499672    2.453352
     80          1           0       -8.210319    7.052453    1.210090
     81          1           0       -9.367692    5.938612   -1.397436
     82          1           0       -9.785236    7.542064   -0.598758
     83          1           0      -12.360662    3.496102   -0.309951
     84          1           0      -12.393322    3.555257   -2.113934
     85          1           0      -13.369603    2.454089   -1.212640
     86          1           0      -12.892591   -1.273597   -1.116325
     87          1           0      -13.576699    0.478761   -1.433031
     88          1           0      -12.466358    0.029713   -3.820592
     89          1           0      -11.589888   -1.341474   -3.273610
     90          1           0      -13.345481   -1.381373   -3.433707
     91          1           0       -9.600379   -4.797322    0.096476
     92          1           0       -9.808231   -4.501961   -1.657630
     93          1           0       -8.292496   -5.619741   -1.062885
     94          1           0       -3.800553   -3.386248   -0.285943
     95          1           0       -1.464895   -6.230357    2.090731
     96          1           0       -1.906909   -4.728419    3.384393
     97          1           0       -3.150795   -6.199061    3.221112
     98          1           0        2.630596   -2.250702   -1.298008
     99          1           0        2.669261   -0.754787   -1.938428
    100          1           0        4.284363   -1.675763    0.405496
    101          1           0        5.287318    1.885734   -2.047994
    102          1           0        5.318747    0.452127   -3.394212
    103          1           0        3.931132    0.981257   -2.667485
    104          1           0        6.548617    1.119626   -0.251644
    105          1           0        6.357605   -0.138966    0.773598
    106          1           0        7.197910   -1.531246   -0.962668
    107          1           0        7.626806    0.058981   -1.982298
    108          1           0        8.897601    0.850526   -0.037543
    109          1           0        8.536047   -0.694555    0.930971
    110          1           0       10.011160   -0.573827   -1.777786
    111          1           0        9.306781   -2.866700   -1.652191
    112          1           0       11.047893   -2.892847   -1.187429
    113          1           0        9.854881   -2.746467    0.062004
    114          1           0       11.309516    0.649584    0.242551
    115          1           0       11.093518   -1.013691    0.815689
    116          1           0       12.629786   -1.909820   -0.570164
    117          1           0       12.765684   -0.568010   -1.662653
    118          1           0       13.620744    0.952626    0.076773
    119          1           0       13.679749   -0.237440    1.241054
    120          1           0       15.188759    0.063695   -1.401394
    121          1           0       14.919714   -2.465317   -0.792706
    122          1           0       16.699583   -2.126879   -0.751785
    123          1           0       15.705814   -2.209598    0.701617
    124          1           0       15.704153    1.576274    0.539102
    125          1           0       16.419059    0.149095    1.438218
    126          1           0       17.992051   -0.096490   -0.575784
    127          1           0       17.446580    1.108687   -1.270076
    128          1           0       17.704937    2.627193    0.702096
    129          1           0       18.427578    1.359603    1.668885
    130          1           0       20.548096    0.996064    0.187113
    131          1           0       19.342811    3.467504   -1.433563
    132          1           0       21.083955    2.540125   -1.589778
    133          1           0       19.682406    1.537775   -2.031892
    134          1           0       21.076861    2.419126    2.110086
    135          1           0       21.723514    2.736721    0.632883
    136          1           0       20.072157    3.831598    1.087717
    137          1           0       -6.957239    1.655348    0.204463
    138          1           0       -7.732300   -0.377084   -0.271708
 ---------------------------------------------------------------------

 SCF Done:  E(RB3LYP) =  -2733.01290468     A.U. after   16 cycles

 Excitation energies and oscillator strengths:

 Excited State   1:      Singlet-A      2.0867 eV  594.17 nm  f=0.1747  <S**2>=0.000
     235 -> 237       -0.15531
     235 -> 238        0.29179
     236 -> 237        0.61358
     236 -> 238        0.12068
 This state for optimization and/or second-order correction.
 Total Energy, E(TD-HF/TD-KS) =  -2732.93622128
 Copying the excited state density for this state as the 1-particle RhoCI density.

 The electronic state is 1-A.
 Alpha  occ. eigenvalues --  -19.19207 -19.18644 -19.13294 -19.13140 -19.11164
 Alpha  occ. eigenvalues --  -14.37756 -14.35742 -14.31119 -14.30629 -10.32138
 Alpha  occ. eigenvalues --  -10.31681 -10.28418 -10.28156 -10.24199 -10.23501
 Alpha  occ. eigenvalues --  -10.23331 -10.23101 -10.23072 -10.22850 -10.22087
 Alpha  occ. eigenvalues --  -10.21807 -10.21661 -10.21636 -10.21631 -10.21569
 Alpha  occ. eigenvalues --  -10.21501 -10.21325 -10.21312 -10.21011 -10.20939
 Alpha  occ. eigenvalues --  -10.20714 -10.20395 -10.20347 -10.20263 -10.20132
 Alpha  occ. eigenvalues --  -10.19946 -10.19539 -10.19531 -10.19188 -10.19175
 Alpha  occ. eigenvalues --  -10.19173 -10.19165 -10.19107 -10.19094 -10.19075
 Alpha  occ. eigenvalues --  -10.19012 -10.18832 -10.18657 -10.18629 -10.18573
 Alpha  occ. eigenvalues --  -10.18561 -10.18549 -10.18467 -10.18381 -10.18371
 Alpha  occ. eigenvalues --  -10.18254 -10.18183 -10.17891 -10.17800 -10.17669
 Alpha  occ. eigenvalues --  -10.17667 -10.17509 -10.17322 -10.16710  -1.11360
 Alpha  occ. eigenvalues --   -1.10627  -1.04762  -1.02458  -0.98890  -0.98286
 Alpha  occ. eigenvalues --   -0.97445  -0.94340  -0.94054  -0.83667  -0.83623
 Alpha  occ. eigenvalues --   -0.82040  -0.81780  -0.81115  -0.80934  -0.80529
 Alpha  occ. eigenvalues --   -0.79679  -0.79435  -0.79187  -0.78719  -0.77937
 Alpha  occ. eigenvalues --   -0.77035  -0.76378  -0.75897  -0.75203  -0.74142
 Alpha  occ. eigenvalues --   -0.73492  -0.73276  -0.72051  -0.71720  -0.70863
 Alpha  occ. eigenvalues --   -0.69426  -0.69109  -0.68454  -0.67457  -0.67135
 Alpha  occ. eigenvalues --   -0.66669  -0.66252  -0.65595  -0.65425  -0.65171
 Alpha  occ. eigenvalues --   -0.63678  -0.62737  -0.62387  -0.62064  -0.61412
 Alpha  occ. eigenvalues --   -0.60433  -0.59088  -0.58843  -0.57779  -0.57466
 Alpha  occ. eigenvalues --   -0.57135  -0.56802  -0.56729  -0.56242  -0.55616
 Alpha  occ. eigenvalues --   -0.54813  -0.54708  -0.54426  -0.54134  -0.53764
 Alpha  occ. eigenvalues --   -0.52424  -0.51886  -0.51671  -0.51196  -0.50691
 Alpha  occ. eigenvalues --   -0.50435  -0.49746  -0.49496  -0.48934  -0.48477
 Alpha  occ. eigenvalues --   -0.48205  -0.47996  -0.47637  -0.47372  -0.47296
 Alpha  occ. eigenvalues --   -0.46943  -0.46817  -0.46537  -0.46405  -0.45746
 Alpha  occ. eigenvalues --   -0.45213  -0.45062  -0.44686  -0.44462  -0.44337
 Alpha  occ. eigenvalues --   -0.44182  -0.43898  -0.43700  -0.43307  -0.43160
 Alpha  occ. eigenvalues --   -0.42989  -0.42876  -0.42600  -0.42406  -0.42296
 Alpha  occ. eigenvalues --   -0.42076  -0.41791  -0.41711  -0.41663  -0.41471
 Alpha  occ. eigenvalues --   -0.40831  -0.40698  -0.40422  -0.40304  -0.40195
 Alpha  occ. eigenvalues --   -0.39902  -0.39552  -0.39287  -0.39217  -0.39134
 Alpha  occ. eigenvalues --   -0.38780  -0.38758  -0.38493  -0.38448  -0.38277
 Alpha  occ. eigenvalues --   -0.37942  -0.37799  -0.37597  -0.37540  -0.37499
 Alpha  occ. eigenvalues --   -0.37246  -0.37001  -0.36818  -0.36495  -0.36433
 Alpha  occ. eigenvalues --   -0.36167  -0.35948  -0.35918  -0.35590  -0.35494
 Alpha  occ. eigenvalues --   -0.35352  -0.35292  -0.34831  -0.34752  -0.34582
 Alpha  occ. eigenvalues --   -0.34502  -0.34349  -0.34347  -0.34259  -0.33762
 Alpha  occ. eigenvalues --   -0.33218  -0.32568  -0.32477  -0.32364  -0.32129
 Alpha  occ. eigenvalues --   -0.32034  -0.31903  -0.31441  -0.31374  -0.31151
 Alpha  occ. eigenvalues --   -0.30929  -0.30649  -0.30632  -0.30460  -0.29831
 Alpha  occ. eigenvalues --   -0.29610  -0.29124  -0.28773  -0.28110  -0.27834
 Alpha  occ. eigenvalues --   -0.27484  -0.26897  -0.26226  -0.25809  -0.25197
 Alpha  occ. eigenvalues --   -0.25038  -0.24915  -0.24612  -0.23369  -0.19740
 Alpha  occ. eigenvalues --   -0.18316
 Alpha virt. eigenvalues --   -0.09653  -0.07292  -0.03103  -0.02155  -0.01094
 Alpha virt. eigenvalues --   -0.00735   0.00036   0.01096   0.03085   0.03450
 Alpha virt. eigenvalues --    0.03913   0.04143   0.04238   0.04418   0.04963

 Mulliken charges:
               1
     1  C    0.009575
     2  C   -0.068229
     3  C   -0.147023
     4  C   -0.080336
     5  N   -0.158062
     6  C   -0.125636
     7  C    0.007284
     8  C    0.049203
     9  C    0.068792
    10  C    0.006223
    11  C    0.045921
    12  C   -0.082056
    13  C    0.216700
    14  O   -0.226025
    15  O   -0.277460
    16  N   -0.123946
    17  C    0.005857
    18  C   -0.155244
    19  C    0.026309
    20  C    0.133796
    21  C    0.185024
    22  C   -0.053576
    23  C   -0.035462
    24  N   -0.197955
    25  C    0.054403
    26  C   -0.153129
    27  C   -0.081276
    28  C    0.024576
    29  C    0.089142
    30  C    0.024418
    31  C    0.055827
    32  N    0.083530
    33  C   -0.017316
    34  C   -0.113899
    35  C   -0.097107
    36  C    0.120214
    37  C    0.040071
    38  C    0.108594
    39  O   -0.134995
    40  C    0.040172
    41  C    0.188002
    42  O   -0.280791
    43  O   -0.242560
    44  C    0.073566
    45  C    0.462502
    46  C   -0.150087
    47  C   -0.035042
    48  C   -0.083749
    49  C    0.104740
    50  C   -0.007223
    51  C    0.011964
    52  C    0.047018
    53  C   -0.054646
    54  C    0.032638
    55  C    0.065600
    56  C    0.056187
    57  C   -0.049185
    58  C    0.003289
    59  C    0.033865
    60  C    0.064661
    61  C    0.039866
    62  C   -0.047248
    63  C   -0.045851
    64  C    0.019907
    65  H    0.013731
    66  H    0.047976
    67  H    0.019953
    68  H   -0.035449
    69  H   -0.065261
    70  H    0.012378
    71  H    0.016232
    72  H    0.036100
    73  H    0.028434
    74  H    0.016542
    75  H    0.039159
    76  H    0.055562
    77  H   -0.011557
    78  H   -0.002784
    79  H    0.022183
    80  H    0.020617
    81  H    0.028507
    82  H    0.028174
    83  H    0.011217
    84  H    0.027773
    85  H   -0.014783
    86  H    0.007707
    87  H    0.028984
    88  H    0.002652
    89  H    0.013444
    90  H   -0.005016
    91  H    0.040803
    92  H    0.038174
    93  H    0.076048
    94  H    0.001900
    95  H    0.068478
    96  H    0.064364
    97  H    0.071563
    98  H   -0.009189
    99  H   -0.099800
   100  H    0.015807
   101  H    0.032096
   102  H    0.045944
   103  H    0.015954
   104  H   -0.034419
   105  H   -0.022373
   106  H    0.000072
   107  H    0.012672
   108  H   -0.025604
   109  H    0.000762
   110  H   -0.045810
   111  H    0.033694
   112  H    0.015678
   113  H   -0.012030
   114  H   -0.034669
   115  H   -0.005063
   116  H    0.010632
   117  H   -0.025175
   118  H   -0.043424
   119  H   -0.010339
   120  H   -0.022311
   121  H   -0.006390
   122  H    0.018449
   123  H   -0.008150
   124  H   -0.008687
   125  H    0.002575
   126  H   -0.045212
   127  H   -0.035006
   128  H    0.004661
   129  H   -0.008082
   130  H   -0.020872
   131  H    0.042562
   132  H    0.007890
   133  H    0.027321
   134  H   -0.003621
   135  H   -0.010193
   136  H    0.044442
   137  H    0.219059
   138  H    0.008019
 Sum of Mulliken charges =   0.00000

 Dipole moment (field-independent basis, Debye):
    X=              2.1123    Y=              3.1565    Z=              0.0699  Tot=              3.7987
 Quadrupole moment (field-independent basis, Debye-Ang):
   XX=           -352.4334   YY=           -371.1765   ZZ=           -397.9726
   XY=            -22.4793   XZ=              3.5112   YZ=             -1.7143

 Normal termination of Gaussian 09 at Sat Aug  3 10:45:08 2019.
