 Gaussian 09, Revision D.01,
 Gaussian 09:  ES64L-G09RevD.01 24-Apr-2013

 --------------------------
 # td=(NStates=1) B3LYP/SVP
 --------------------------

 --
 TD
 --
 Symbolic Z-matrix:
 Charge =  0 Multiplicity = 1

                         Standard orientation:
 ---------------------------------------------------------------------
 Center     Atomic      Atomic             Coordinates (Angstroms)
 Number     Number       Type             X           Y           Z
 ---------------------------------------------------------------------
      1          6           0       -5.059704   -2.018337    0.518215
      2          6           0       -4.798164    2.758074    1.573154
      3          6           0       -9.178517    3.398004   -0.434484
      4          6           0       -9.825923   -1.384493   -1.205826
      5          7           0       -5.212228    0.383840    0.925943
      6          6           0       -4.584412   -0.775764    0.930068
      7          6           0       -3.128964   -0.604091    1.496813
      8          6           0       -3.102689    0.928166    1.881856
      9          6           0       -4.410117    1.414750    1.490045
     10          6           0       -2.927291    1.042391    3.473907
     11          6           0       -2.085893   -0.948358    0.378177
     12          6           0       -0.595006   -0.937490    0.739975
     13          6           0        0.364929   -1.303580   -0.234450
     14          8           0        0.005178   -1.808608   -1.398288
     15          8           0        1.691316   -1.043935    0.103806
     16          7           0       -7.091599    2.776653    0.513557
     17          6           0       -5.935345    3.379957    1.200470
     18          6           0       -6.207974    4.769363    1.229731
     19          6           0       -7.394486    4.972234    0.573261
     20          6           0       -7.989415    3.711564    0.215929
     21          6           0       -5.215466    5.888649    1.683240
     22          6           0       -8.149442    6.303953    0.510666
     23          6           0       -8.953580    6.608175   -0.467202
     24          7           0       -9.223488    1.010879   -0.524054
     25          6           0       -9.796336    2.191807   -0.633489
     26          6           0      -11.155275    1.950742   -1.229106
     27          6           0      -11.297254    0.677123   -1.471305
     28          6           0      -10.076776    0.023532   -1.060218
     29          6           0      -12.101058    3.112638   -1.528597
     30          6           0      -12.474107   -0.109242   -1.980901
     31          6           0      -12.580352   -0.209866   -3.516016
     32          7           0       -7.494733   -1.257900   -0.228522
     33          6           0       -8.571809   -1.897800   -0.641060
     34          6           0       -8.137035   -3.327962   -0.675504
     35          6           0       -6.894051   -3.300465   -0.217611
     36          6           0       -6.443909   -2.006465    0.060037
     37          6           0       -8.873639   -4.488466   -1.201353
     38          6           0       -5.750700   -4.251044   -0.070467
     39          8           0       -5.643083   -5.422786   -0.290338
     40          6           0       -4.532130   -3.334363    0.477773
     41          6           0       -4.032313   -3.952386    1.806560
     42          8           0       -4.372137   -3.573637    2.907017
     43          8           0       -3.238993   -4.926867    1.562058
     44          6           0       -2.906196   -5.660543    2.721712
     45          6           0        2.660245   -1.157019   -0.991028
     46          6           0        3.932981   -0.878301   -0.323782
     47          6           0        4.826828   -0.030239   -0.843440
     48          6           0        4.800279    0.555316   -2.151664
     49          6           0        6.184592    0.107236   -0.101881
     50          6           0        7.347573   -0.459117   -0.740176
     51          6           0        8.721296   -0.218306   -0.063154
     52          6           0       10.031061   -0.583876   -0.920747
     53          6           0       10.004320   -2.110401   -1.184887
     54          6           0       11.289860   -0.283679   -0.048003
     55          6           0       12.647807   -0.306594   -0.663466
     56          6           0       13.805675    0.121105    0.063908
     57          6           0       15.201690   -0.096200   -0.609281
     58          6           0       15.569497   -1.622378   -0.511978
     59          6           0       16.302018    0.782070    0.222811
     60          6           0       17.662893    0.876593   -0.430816
     61          6           0       18.700341    1.622595    0.424900
     62          6           0       20.111380    1.489618    0.047199
     63          6           0       20.326968    2.247971   -1.358170
     64          6           0       21.099427    2.233415    1.024709
     65          1           0       -4.090292    3.346025    2.458926
     66          1           0      -10.011760    4.030034   -0.565879
     67          1           0      -10.427694   -2.202460   -1.743799
     68          1           0       -2.788847   -1.267342    2.436787
     69          1           0       -2.263051    1.533268    1.397076
     70          1           0       -1.931520    0.826874    3.618253
     71          1           0       -2.951095    2.142587    3.852881
     72          1           0       -3.529815    0.406580    3.918355
     73          1           0       -2.320253   -1.796778   -0.278200
     74          1           0       -2.262907   -0.376586   -0.484796
     75          1           0       -0.235383    0.180950    1.078512
     76          1           0       -0.404445   -1.801218    1.491041
     77          1           0       -4.411242    5.653072    1.125462
     78          1           0       -5.661858    6.800034    1.577724
     79          1           0       -4.846887    5.739152    2.593231
     80          1           0       -8.114958    7.099053    1.314121
     81          1           0       -9.080691    5.915329   -1.282966
     82          1           0       -9.509203    7.570886   -0.236760
     83          1           0      -12.223710    3.801653   -0.679794
     84          1           0      -11.526096    3.572629   -2.575953
     85          1           0      -13.179840    2.672583   -1.665037
     86          1           0      -12.477218   -1.269024   -1.593044
     87          1           0      -13.447089    0.132817   -1.614896
     88          1           0      -12.616137    0.732905   -3.939605
     89          1           0      -11.714490   -0.720113   -4.019966
     90          1           0      -13.327952   -0.813663   -3.864112
     91          1           0       -9.977964   -4.585123   -0.748411
     92          1           0       -9.155157   -4.452473   -2.274868
     93          1           0       -8.518122   -5.399772   -1.096993
     94          1           0       -3.669839   -3.550325   -0.242480
     95          1           0       -2.111885   -6.411742    2.425503
     96          1           0       -2.455565   -4.968026    3.483192
     97          1           0       -3.785777   -6.322528    3.196211
     98          1           0        2.622555   -2.196777   -1.318585
     99          1           0        2.347945   -0.527523   -1.836836
    100          1           0        3.978462   -1.557644    0.642204
    101          1           0        4.605041    1.782481   -1.962724
    102          1           0        5.765283    0.458023   -2.844751
    103          1           0        3.813704    0.038202   -2.558728
    104          1           0        6.303842    1.346811   -0.134198
    105          1           0        6.106825    0.089677    1.115033
    106          1           0        7.176434   -1.471652   -1.037230
    107          1           0        7.500817    0.081179   -1.775146
    108          1           0        9.065273    0.795247    0.123093
    109          1           0        8.875376   -0.887471    0.867145
    110          1           0        9.939217    0.097126   -1.793871
    111          1           0        9.090228   -2.369381   -1.839807
    112          1           0       10.758633   -2.697362   -1.864839
    113          1           0       10.002880   -2.650079   -0.323084
    114          1           0       11.154193    0.719019    0.235427
    115          1           0       11.415827   -0.632805    0.879374
    116          1           0       12.930780   -1.322678   -0.942461
    117          1           0       12.720473    0.175768   -1.520727
    118          1           0       13.768192    1.155246    0.452624
    119          1           0       13.894831   -0.426167    1.094425
    120          1           0       15.150395    0.413732   -1.510875
    121          1           0       14.863725   -2.361813   -1.123090
    122          1           0       16.759789   -1.879794   -0.601745
    123          1           0       15.391781   -1.868435    0.669921
    124          1           0       15.854178    1.758763    0.289825
    125          1           0       16.487031    0.475625    1.180417
    126          1           0       18.251613   -0.235864   -0.873615
    127          1           0       17.761938    1.522307   -1.343213
    128          1           0       18.350021    2.581771    0.538516
    129          1           0       18.424605    1.270714    1.500405
    130          1           0       20.566524    0.516026   -0.005823
    131          1           0       20.084666    3.315205   -1.299234
    132          1           0       21.464801    2.110199   -1.724975
    133          1           0       19.625819    1.875921   -1.944662
    134          1           0       20.945150    1.707016    2.036956
    135          1           0       22.123485    2.129960    0.788398
    136          1           0       21.022902    3.349682    1.110186
    137          1           0       -7.226704    1.783725    0.312630
    138          1           0       -7.651675   -0.332159   -0.008903
 ---------------------------------------------------------------------

 SCF Done:  E(RB3LYP) =  -2732.98671667     A.U. after   17 cycles

 Excitation energies and oscillator strengths:

 Excited State   1:      Singlet-A      2.0081 eV  617.43 nm  f=0.1717  <S**2>=0.000
     235 -> 238       -0.29607
     236 -> 237        0.63768
 This state for optimization and/or second-order correction.
 Total Energy, E(TD-HF/TD-KS) =  -2732.91292112
 Copying the excited state density for this state as the 1-particle RhoCI density.

 The electronic state is 1-A.
 Alpha  occ. eigenvalues --  -19.19411 -19.18091 -19.13004 -19.11912 -19.11746
 Alpha  occ. eigenvalues --  -14.37478 -14.36426 -14.32441 -14.29561 -10.32047
 Alpha  occ. eigenvalues --  -10.31334 -10.28236 -10.25962 -10.24474 -10.23727
 Alpha  occ. eigenvalues --  -10.23576 -10.23567 -10.23086 -10.23067 -10.22913
 Alpha  occ. eigenvalues --  -10.22371 -10.21933 -10.21904 -10.21876 -10.21335
 Alpha  occ. eigenvalues --  -10.21273 -10.21093 -10.20909 -10.20897 -10.20725
 Alpha  occ. eigenvalues --  -10.20708 -10.20705 -10.20674 -10.20318 -10.20311
 Alpha  occ. eigenvalues --  -10.20242 -10.20241 -10.20047 -10.19919 -10.19876
 Alpha  occ. eigenvalues --  -10.19814 -10.19583 -10.19530 -10.19482 -10.19367
 Alpha  occ. eigenvalues --  -10.19068 -10.19031 -10.18996 -10.18561 -10.18515
 Alpha  occ. eigenvalues --  -10.18273 -10.18176 -10.18081 -10.18045 -10.17915
 Alpha  occ. eigenvalues --  -10.17862 -10.17768 -10.17636 -10.17594 -10.17579
 Alpha  occ. eigenvalues --  -10.17462 -10.16906 -10.16640 -10.15882  -1.13000
 Alpha  occ. eigenvalues --   -1.06679  -1.04056  -1.01482  -1.00857  -0.97387
 Alpha  occ. eigenvalues --   -0.96187  -0.93793  -0.93444  -0.85563  -0.83543
 Alpha  occ. eigenvalues --   -0.82620  -0.82118  -0.81328  -0.81139  -0.80857
 Alpha  occ. eigenvalues --   -0.80475  -0.79798  -0.79620  -0.78748  -0.78222
 Alpha  occ. eigenvalues --   -0.77465  -0.76481  -0.76165  -0.75494  -0.74411
 Alpha  occ. eigenvalues --   -0.74044  -0.73739  -0.72747  -0.72214  -0.72047
 Alpha  occ. eigenvalues --   -0.70808  -0.69869  -0.69590  -0.67642  -0.67410
 Alpha  occ. eigenvalues --   -0.67145  -0.66972  -0.66672  -0.66135  -0.65363
 Alpha  occ. eigenvalues --   -0.64219  -0.63352  -0.62942  -0.62158  -0.61262
 Alpha  occ. eigenvalues --   -0.60479  -0.59593  -0.58981  -0.58126  -0.57868
 Alpha  occ. eigenvalues --   -0.57193  -0.56737  -0.56528  -0.56205  -0.55927
 Alpha  occ. eigenvalues --   -0.55866  -0.55626  -0.55464  -0.53611  -0.52813
 Alpha  occ. eigenvalues --   -0.52299  -0.52031  -0.51631  -0.51331  -0.50619
 Alpha  occ. eigenvalues --   -0.49896  -0.49702  -0.49351  -0.48568  -0.48472
 Alpha  occ. eigenvalues --   -0.48256  -0.47783  -0.47551  -0.47243  -0.46954
 Alpha  occ. eigenvalues --   -0.46869  -0.46541  -0.46255  -0.45973  -0.45729
 Alpha  occ. eigenvalues --   -0.45522  -0.45420  -0.45067  -0.44996  -0.44691
 Alpha  occ. eigenvalues --   -0.44570  -0.44536  -0.44018  -0.43783  -0.43637
 Alpha  occ. eigenvalues --   -0.43350  -0.43191  -0.42988  -0.42801  -0.42694
 Alpha  occ. eigenvalues --   -0.42550  -0.42501  -0.42206  -0.41902  -0.41749
 Alpha  occ. eigenvalues --   -0.41442  -0.41031  -0.40983  -0.40650  -0.40408
 Alpha  occ. eigenvalues --   -0.40175  -0.40063  -0.39751  -0.39640  -0.39387
 Alpha  occ. eigenvalues --   -0.39225  -0.39120  -0.38956  -0.38829  -0.38732
 Alpha  occ. eigenvalues --   -0.38533  -0.38305  -0.38118  -0.37927  -0.37793
 Alpha  occ. eigenvalues --   -0.37531  -0.37434  -0.37098  -0.36789  -0.36741
 Alpha  occ. eigenvalues --   -0.36642  -0.36513  -0.36132  -0.36070  -0.35993
 Alpha  occ. eigenvalues --   -0.35594  -0.35551  -0.35462  -0.35138  -0.34853
 Alpha  occ. eigenvalues --   -0.34606  -0.34525  -0.34425  -0.34168  -0.33901
 Alpha  occ. eigenvalues --   -0.33868  -0.33639  -0.32971  -0.32390  -0.31962
 Alpha  occ. eigenvalues --   -0.31803  -0.31649  -0.31361  -0.31287  -0.31109
 Alpha  occ. eigenvalues --   -0.30922  -0.30339  -0.30333  -0.30066  -0.29745
 Alpha  occ. eigenvalues --   -0.29393  -0.29089  -0.28689  -0.28311  -0.27786
 Alpha  occ. eigenvalues --   -0.27032  -0.26845  -0.26645  -0.26045  -0.25577
 Alpha  occ. eigenvalues --   -0.25021  -0.24819  -0.24463  -0.23231  -0.19831
 Alpha  occ. eigenvalues --   -0.18592
 Alpha virt. eigenvalues --   -0.10202  -0.07572  -0.03681  -0.02325  -0.01479
 Alpha virt. eigenvalues --   -0.00687   0.00688   0.01176   0.02408   0.02828
 Alpha virt. eigenvalues --    0.03061   0.03589   0.03941   0.04158   0.04982

 Mulliken charges:
               1
     1  C    0.047603
     2  C   -0.146937
     3  C   -0.024771
     4  C   -0.079275
     5  N   -0.173875
     6  C   -0.044268
     7  C   -0.060778
     8  C   -0.053921
     9  C    0.009362
    10  C    0.116799
    11  C    0.051167
    12  C    0.059054
    13  C    0.188195
    14  O   -0.332633
    15  O   -0.356398
    16  N   -0.104813
    17  C    0.175754
    18  C   -0.189583
    19  C    0.004357
    20  C    0.119784
    21  C    0.313180
    22  C   -0.076384
    23  C   -0.009120
    24  N   -0.256842
    25  C   -0.027322
    26  C   -0.143800
    27  C   -0.007596
    28  C    0.081778
    29  C    0.015333
    30  C    0.005307
    31  C    0.070087
    32  N    0.126610
    33  C   -0.038667
    34  C   -0.163430
    35  C   -0.005336
    36  C    0.041105
    37  C    0.126481
    38  C    0.081156
    39  O   -0.137534
    40  C   -0.091403
    41  C    0.161132
    42  O   -0.235545
    43  O   -0.216833
    44  C    0.121995
    45  C    0.268903
    46  C   -0.093849
    47  C   -0.105962
    48  C   -0.027035
    49  C   -0.004939
    50  C    0.072131
    51  C   -0.001545
    52  C   -0.068666
    53  C    0.034571
    54  C    0.133867
    55  C    0.211514
    56  C   -0.063199
    57  C   -0.014698
    58  C   -0.057135
    59  C    0.082513
    60  C   -0.062698
    61  C    0.060117
    62  C   -0.057293
    63  C    0.044044
    64  C    0.020439
    65  H    0.034679
    66  H   -0.041592
    67  H    0.032528
    68  H    0.037097
    69  H    0.020155
    70  H   -0.015112
    71  H    0.013371
    72  H    0.001805
    73  H   -0.002955
    74  H   -0.029452
    75  H    0.064092
    76  H    0.052174
    77  H   -0.015308
    78  H   -0.003684
    79  H   -0.037366
    80  H    0.013322
    81  H    0.022606
    82  H    0.026614
    83  H    0.040958
    84  H    0.066504
    85  H    0.029353
    86  H    0.001647
    87  H   -0.005132
    88  H   -0.006710
    89  H   -0.003864
    90  H   -0.017078
    91  H    0.017610
    92  H    0.018955
    93  H   -0.022398
    94  H    0.071825
    95  H    0.035170
    96  H    0.043509
    97  H    0.061244
    98  H    0.020128
    99  H    0.028623
   100  H    0.030556
   101  H    0.046663
   102  H    0.070594
   103  H    0.030770
   104  H   -0.010277
   105  H    0.024351
   106  H   -0.001652
   107  H   -0.001372
   108  H   -0.001943
   109  H    0.007650
   110  H   -0.003248
   111  H    0.004619
   112  H    0.012808
   113  H   -0.015235
   114  H   -0.055403
   115  H   -0.062612
   116  H   -0.042882
   117  H   -0.072854
   118  H   -0.028287
   119  H   -0.023064
   120  H   -0.026016
   121  H    0.050572
   122  H    0.039061
   123  H    0.018532
   124  H   -0.013870
   125  H   -0.029990
   126  H    0.015087
   127  H    0.001688
   128  H   -0.038585
   129  H   -0.023135
   130  H   -0.002410
   131  H   -0.001005
   132  H    0.026910
   133  H   -0.033342
   134  H    0.008111
   135  H   -0.012534
   136  H    0.005501
   137  H    0.140709
   138  H    0.101959
 Sum of Mulliken charges =   0.00000

 Dipole moment (field-independent basis, Debye):
    X=              1.9876    Y=              3.6194    Z=              0.8994  Tot=              4.2260
 Quadrupole moment (field-independent basis, Debye-Ang):
   XX=           -371.3676   YY=           -379.9949   ZZ=           -395.2428
   XY=            -10.3771   XZ=              7.4433   YZ=              0.2600

 Normal termination of Gaussian 09 at Sun Aug  4 20:21:57 2019.
