 Gaussian 09, Revision D.01,
 Gaussian 09:  ES64L-G09RevD.01 24-Apr-2013

 --------------------------
 # td=(NStates=1) B3LYP/SVP
 --------------------------

 --
 TD
 --
 Symbolic Z-matrix:
 Charge =  0 Multiplicity = 1

                         Standard orientation:
 ---------------------------------------------------------------------
 Center     Atomic      Atomic             Coordinates (Angstroms)
 Number     Number       Type             X           Y           Z
 ---------------------------------------------------------------------
      1          6           0       -5.174869   -1.946379    0.393713
      2          6           0       -4.576691    2.647975    1.523485
      3          6           0       -9.119153    3.587556   -0.418705
      4          6           0       -9.808146   -1.241648   -1.046211
      5          7           0       -5.133950    0.399937    0.889539
      6          6           0       -4.557570   -0.823744    0.778317
      7          6           0       -3.058664   -0.706013    1.269236
      8          6           0       -3.076860    0.700605    1.958383
      9          6           0       -4.343655    1.347747    1.387615
     10          6           0       -2.963378    0.562108    3.453044
     11          6           0       -2.012070   -0.853971    0.023170
     12          6           0       -0.602078   -1.065004    0.597092
     13          6           0        0.424281   -1.449994   -0.367909
     14          8           0        0.146909   -1.734247   -1.548839
     15          8           0        1.653365   -1.240189   -0.034775
     16          7           0       -6.903261    2.823661    0.483425
     17          6           0       -5.733900    3.292659    1.113724
     18          6           0       -6.029699    4.777844    1.152067
     19          6           0       -7.219993    4.895744    0.638582
     20          6           0       -7.816423    3.753243    0.135292
     21          6           0       -4.981262    5.737107    1.851417
     22          6           0       -7.905094    6.295297    0.460066
     23          6           0       -8.641448    6.839772   -0.527907
     24          7           0       -9.124989    1.081558   -0.495552
     25          6           0       -9.684199    2.309629   -0.510437
     26          6           0      -11.094695    2.160037   -1.062195
     27          6           0      -11.392450    0.811651   -1.254770
     28          6           0      -10.109868    0.101108   -0.856893
     29          6           0      -11.988950    3.264552   -1.165994
     30          6           0      -12.611724    0.163346   -1.803082
     31          6           0      -12.468182   -0.075481   -3.344101
     32          7           0       -7.554680   -1.079498   -0.382444
     33          6           0       -8.622667   -1.799200   -0.745620
     34          6           0       -8.345875   -3.236018   -0.596878
     35          6           0       -7.003680   -3.293688   -0.380419
     36          6           0       -6.501751   -2.004188   -0.127127
     37          6           0       -9.277802   -4.271492   -0.946727
     38          6           0       -5.932283   -4.253249    0.035222
     39          8           0       -5.875247   -5.470783   -0.093972
     40          6           0       -4.675838   -3.352334    0.417301
     41          6           0       -4.149340   -3.975829    1.691291
     42          8           0       -4.335668   -3.428268    2.761675
     43          8           0       -3.536342   -5.030012    1.442424
     44          6           0       -3.130792   -5.701568    2.610330
     45          6           0        2.697106   -1.300225   -1.129475
     46          6           0        3.924893   -0.971248   -0.497311
     47          6           0        4.919629   -0.171973   -1.002606
     48          6           0        4.718581    0.646992   -2.261567
     49          6           0        6.157592   -0.005455   -0.229241
     50          6           0        7.486420   -0.538278   -0.958612
     51          6           0        8.686491   -0.329015   -0.126102
     52          6           0        9.997370   -0.978637   -0.698500
     53          6           0       10.002786   -2.423308   -0.920159
     54          6           0       11.320034   -0.410354    0.064837
     55          6           0       12.584555   -0.670310   -0.614741
     56          6           0       13.886013   -0.054006    0.135217
     57          6           0       15.244403   -0.091212   -0.525566
     58          6           0       15.747618   -1.489536   -0.769023
     59          6           0       16.218545    0.734794    0.365401
     60          6           0       17.719100    0.918570   -0.269077
     61          6           0       18.624995    1.768732    0.599485
     62          6           0       20.083407    1.838702    0.176910
     63          6           0       20.167543    2.426853   -1.233460
     64          6           0       20.985783    2.653237    1.070610
     65          1           0       -3.773752    3.161918    2.109635
     66          1           0       -9.632307    4.573009   -0.620064
     67          1           0      -10.626967   -1.889472   -1.251485
     68          1           0       -2.883654   -1.341278    1.945503
     69          1           0       -2.147311    1.125783    1.550272
     70          1           0       -1.974341    0.332624    3.950674
     71          1           0       -2.915446    1.553919    4.106279
     72          1           0       -3.762305   -0.003987    3.832259
     73          1           0       -2.370858   -1.708767   -0.685348
     74          1           0       -2.129121    0.287775   -0.585658
     75          1           0       -0.032611   -0.354825    1.472437
     76          1           0       -0.653250   -2.265213    1.117176
     77          1           0       -3.930135    5.648294    1.432731
     78          1           0       -5.278074    6.840242    1.807292
     79          1           0       -4.870907    5.451353    2.829763
     80          1           0       -7.734973    6.996868    1.439578
     81          1           0       -8.795429    6.256579   -1.517996
     82          1           0       -9.093644    7.794550   -0.631108
     83          1           0      -12.092634    3.883716   -0.271736
     84          1           0      -11.876111    4.050110   -1.944627
     85          1           0      -13.042641    2.859701   -1.511606
     86          1           0      -12.680643   -0.753430   -1.259702
     87          1           0      -13.627804    0.715352   -1.713314
     88          1           0      -12.282123    0.920844   -3.768150
     89          1           0      -11.669053   -0.692804   -3.842619
     90          1           0      -13.649292   -0.395527   -3.852638
     91          1           0      -10.459949   -4.189477   -0.592049
     92          1           0       -9.128775   -4.618178   -2.158635
     93          1           0       -8.976239   -5.463108   -0.292300
     94          1           0       -3.806293   -3.429899   -0.204502
     95          1           0       -2.325165   -6.576251    2.399441
     96          1           0       -2.507257   -4.928663    3.004086
     97          1           0       -3.845321   -6.027044    3.227312
     98          1           0        2.710611   -2.471146   -1.389332
     99          1           0        2.275645   -0.790303   -2.041582
    100          1           0        4.060851   -1.516879    0.495954
    101          1           0        4.925136    1.685905   -1.949236
    102          1           0        5.328185    0.087553   -3.150609
    103          1           0        3.804723    0.536146   -2.501303
    104          1           0        6.352338    1.180235   -0.263208
    105          1           0        5.970725   -0.307973    0.652932
    106          1           0        7.292674   -1.694267   -1.198105
    107          1           0        7.509539   -0.091506   -1.878584
    108          1           0        8.940462    0.692011    0.076238
    109          1           0        8.570150   -0.588079    0.971100
    110          1           0       10.141819   -0.557643   -1.757464
    111          1           0        9.101613   -2.743202   -1.766466
    112          1           0       10.942152   -2.782830   -1.384563
    113          1           0        9.670072   -2.953040   -0.013706
    114          1           0       11.039216    0.633866    0.547846
    115          1           0       11.245145   -0.994225    1.026947
    116          1           0       12.959469   -1.565355   -0.880136
    117          1           0       12.486324   -0.023731   -1.656742
    118          1           0       13.443833    0.981806    0.653606
    119          1           0       14.223733   -0.740370    0.923067
    120          1           0       15.016899    0.232692   -1.504737
    121          1           0       15.230830   -2.221939   -1.537232
    122          1           0       16.793718   -1.567413   -1.396663
    123          1           0       15.559425   -2.371243    0.118956
    124          1           0       15.793561    1.698841    0.457457
    125          1           0       16.251509    0.180790    1.344959
    126          1           0       18.106130   -0.115351   -0.450188
    127          1           0       17.321941    1.573079   -1.293959
    128          1           0       18.423302    2.735352    0.877281
    129          1           0       18.476593    1.298092    1.810234
    130          1           0       20.411519    0.758181   -0.037821
    131          1           0       19.637231    3.360211   -1.192743
    132          1           0       21.215926    2.476978   -1.615565
    133          1           0       19.459064    1.701032   -1.918669
    134          1           0       20.943835    2.391189    2.118584
    135          1           0       22.018727    2.835776    0.834372
    136          1           0       20.465301    3.539415    1.204455
    137          1           0       -7.154318    1.935894    0.565320
    138          1           0       -7.713770   -0.099929   -0.166830
 ---------------------------------------------------------------------

 SCF Done:  E(RB3LYP) =  -2732.90040861     A.U. after   17 cycles

 Excitation energies and oscillator strengths:

 Excited State   1:      Singlet-A      2.0775 eV  596.80 nm  f=0.1898  <S**2>=0.000
     235 -> 238       -0.29482
     236 -> 237        0.63808
 This state for optimization and/or second-order correction.
 Total Energy, E(TD-HF/TD-KS) =  -2732.82406260
 Copying the excited state density for this state as the 1-particle RhoCI density.

 The electronic state is 1-A.
 Alpha  occ. eigenvalues --  -19.19885 -19.17238 -19.12665 -19.11196 -19.09642
 Alpha  occ. eigenvalues --  -14.36367 -14.36316 -14.31348 -14.30635 -10.31031
 Alpha  occ. eigenvalues --  -10.30123 -10.28435 -10.25886 -10.24955 -10.24418
 Alpha  occ. eigenvalues --  -10.23746 -10.23713 -10.23605 -10.23193 -10.22826
 Alpha  occ. eigenvalues --  -10.22441 -10.22180 -10.22117 -10.21865 -10.21864
 Alpha  occ. eigenvalues --  -10.21839 -10.21277 -10.21060 -10.20932 -10.20698
 Alpha  occ. eigenvalues --  -10.20633 -10.20567 -10.20470 -10.20323 -10.20183
 Alpha  occ. eigenvalues --  -10.20158 -10.19903 -10.19859 -10.19762 -10.19663
 Alpha  occ. eigenvalues --  -10.19513 -10.19495 -10.19426 -10.19384 -10.19364
 Alpha  occ. eigenvalues --  -10.19351 -10.19263 -10.19237 -10.19199 -10.19131
 Alpha  occ. eigenvalues --  -10.19124 -10.19081 -10.19061 -10.19019 -10.18990
 Alpha  occ. eigenvalues --  -10.18985 -10.18875 -10.18714 -10.18693 -10.18651
 Alpha  occ. eigenvalues --  -10.18457 -10.18343 -10.18164 -10.16712  -1.14913
 Alpha  occ. eigenvalues --   -1.09439  -1.02296  -1.00871  -0.99228  -0.98206
 Alpha  occ. eigenvalues --   -0.97189  -0.93942  -0.91633  -0.85552  -0.83377
 Alpha  occ. eigenvalues --   -0.82236  -0.81646  -0.81448  -0.81277  -0.80641
 Alpha  occ. eigenvalues --   -0.80504  -0.80019  -0.79686  -0.79229  -0.78065
 Alpha  occ. eigenvalues --   -0.77675  -0.76450  -0.75732  -0.75088  -0.74775
 Alpha  occ. eigenvalues --   -0.74181  -0.73646  -0.72899  -0.72342  -0.71143
 Alpha  occ. eigenvalues --   -0.70069  -0.69704  -0.69272  -0.68284  -0.67965
 Alpha  occ. eigenvalues --   -0.66942  -0.66474  -0.66165  -0.65695  -0.64804
 Alpha  occ. eigenvalues --   -0.64051  -0.62653  -0.62322  -0.61791  -0.61216
 Alpha  occ. eigenvalues --   -0.60873  -0.59639  -0.59098  -0.58999  -0.57865
 Alpha  occ. eigenvalues --   -0.57390  -0.57018  -0.56304  -0.55493  -0.55115
 Alpha  occ. eigenvalues --   -0.55000  -0.54849  -0.54800  -0.53889  -0.53205
 Alpha  occ. eigenvalues --   -0.52680  -0.52516  -0.51647  -0.51238  -0.50911
 Alpha  occ. eigenvalues --   -0.49981  -0.49802  -0.49261  -0.48894  -0.48708
 Alpha  occ. eigenvalues --   -0.48515  -0.47943  -0.47426  -0.47101  -0.47010
 Alpha  occ. eigenvalues --   -0.46510  -0.46368  -0.46154  -0.46122  -0.45769
 Alpha  occ. eigenvalues --   -0.45691  -0.45598  -0.44915  -0.44808  -0.44683
 Alpha  occ. eigenvalues --   -0.44576  -0.44155  -0.43837  -0.43757  -0.43564
 Alpha  occ. eigenvalues --   -0.43109  -0.43009  -0.42750  -0.42580  -0.42469
 Alpha  occ. eigenvalues --   -0.42446  -0.42209  -0.41857  -0.41605  -0.41505
 Alpha  occ. eigenvalues --   -0.41342  -0.41095  -0.41028  -0.40790  -0.40452
 Alpha  occ. eigenvalues --   -0.40176  -0.40140  -0.39963  -0.39546  -0.39454
 Alpha  occ. eigenvalues --   -0.39249  -0.39076  -0.38917  -0.38673  -0.38579
 Alpha  occ. eigenvalues --   -0.38545  -0.38143  -0.37830  -0.37607  -0.37514
 Alpha  occ. eigenvalues --   -0.37348  -0.37261  -0.37162  -0.36978  -0.36721
 Alpha  occ. eigenvalues --   -0.36402  -0.36230  -0.35960  -0.35860  -0.35625
 Alpha  occ. eigenvalues --   -0.35438  -0.35360  -0.35003  -0.34815  -0.34637
 Alpha  occ. eigenvalues --   -0.34285  -0.33837  -0.33367  -0.33196  -0.33044
 Alpha  occ. eigenvalues --   -0.32974  -0.32773  -0.32664  -0.32515  -0.32255
 Alpha  occ. eigenvalues --   -0.32179  -0.31793  -0.31624  -0.31224  -0.31142
 Alpha  occ. eigenvalues --   -0.30665  -0.30629  -0.30300  -0.30097  -0.29350
 Alpha  occ. eigenvalues --   -0.28993  -0.28587  -0.28294  -0.28143  -0.27713
 Alpha  occ. eigenvalues --   -0.26886  -0.26042  -0.25875  -0.25859  -0.25334
 Alpha  occ. eigenvalues --   -0.24896  -0.24778  -0.23921  -0.22341  -0.20194
 Alpha  occ. eigenvalues --   -0.18890
 Alpha virt. eigenvalues --   -0.10236  -0.07635  -0.04572  -0.01183  -0.01133
 Alpha virt. eigenvalues --   -0.00004   0.00233   0.01737   0.02267   0.03055
 Alpha virt. eigenvalues --    0.03631   0.03669   0.03925   0.04197   0.04434

 Mulliken charges:
               1
     1  C    0.105425
     2  C   -0.055841
     3  C   -0.071154
     4  C   -0.068502
     5  N   -0.140352
     6  C   -0.147309
     7  C    0.096212
     8  C   -0.026880
     9  C   -0.020820
    10  C    0.046696
    11  C   -0.007368
    12  C   -0.054331
    13  C    0.159703
    14  O   -0.302587
    15  O   -0.296396
    16  N    0.001437
    17  C    0.107610
    18  C   -0.115732
    19  C   -0.010442
    20  C    0.035968
    21  C    0.119888
    22  C   -0.055405
    23  C   -0.058329
    24  N   -0.303478
    25  C    0.117875
    26  C   -0.133615
    27  C   -0.070059
    28  C    0.065409
    29  C    0.054334
    30  C    0.089406
    31  C   -0.068172
    32  N   -0.035867
    33  C    0.084857
    34  C   -0.076607
    35  C    0.031091
    36  C    0.082685
    37  C   -0.128054
    38  C    0.091238
    39  O   -0.177250
    40  C    0.014401
    41  C    0.101708
    42  O   -0.252844
    43  O   -0.189874
    44  C    0.214520
    45  C    0.205985
    46  C   -0.073189
    47  C   -0.227612
    48  C    0.205660
    49  C    0.150954
    50  C    0.042818
    51  C    0.083137
    52  C   -0.100026
    53  C    0.001226
    54  C    0.007648
    55  C    0.091357
    56  C   -0.085083
    57  C    0.043233
    58  C   -0.129018
    59  C    0.051280
    60  C   -0.018740
    61  C    0.011348
    62  C   -0.088675
    63  C   -0.010861
    64  C    0.122567
    65  H   -0.006538
    66  H    0.005118
    67  H   -0.040905
    68  H   -0.097363
    69  H   -0.023206
    70  H    0.012410
    71  H   -0.005279
    72  H    0.025396
    73  H    0.062425
    74  H    0.044688
    75  H    0.079601
    76  H    0.049813
    77  H    0.029643
    78  H    0.030565
    79  H    0.006028
    80  H    0.031324
    81  H    0.036695
    82  H    0.020172
    83  H    0.021449
    84  H    0.009978
    85  H    0.006337
    86  H    0.000436
    87  H    0.024430
    88  H    0.012584
    89  H    0.037269
    90  H    0.017704
    91  H    0.066798
    92  H    0.080747
    93  H    0.056712
    94  H    0.029660
    95  H    0.044675
    96  H    0.013614
    97  H    0.018745
    98  H    0.044405
    99  H    0.059381
   100  H    0.008949
   101  H    0.028774
   102  H    0.046409
   103  H   -0.085369
   104  H    0.000607
   105  H   -0.072027
   106  H    0.015389
   107  H   -0.026580
   108  H   -0.032836
   109  H   -0.015522
   110  H   -0.012628
   111  H    0.016614
   112  H    0.024124
   113  H    0.008150
   114  H    0.011259
   115  H   -0.015320
   116  H   -0.029464
   117  H    0.000680
   118  H    0.020019
   119  H   -0.010769
   120  H   -0.028219
   121  H    0.015929
   122  H    0.041555
   123  H    0.024941
   124  H   -0.007690
   125  H    0.005913
   126  H    0.029225
   127  H    0.031848
   128  H   -0.036097
   129  H   -0.006014
   130  H   -0.008221
   131  H   -0.008837
   132  H    0.024571
   133  H    0.023300
   134  H   -0.021119
   135  H    0.010541
   136  H   -0.037291
   137  H    0.086626
   138  H    0.135858
 Sum of Mulliken charges =   0.00000

 Dipole moment (field-independent basis, Debye):
    X=              3.3656    Y=              3.3603    Z=              1.7699  Tot=              5.0745
 Quadrupole moment (field-independent basis, Debye-Ang):
   XX=           -368.6395   YY=           -378.7249   ZZ=           -396.0883
   XY=            -17.9562   XZ=              2.1807   YZ=             -2.4521

 Normal termination of Gaussian 09 at Sun Aug  4 11:46:51 2019.
