 Gaussian 09, Revision D.01,
 Gaussian 09:  ES64L-G09RevD.01 24-Apr-2013

 --------------------------
 # td=(NStates=1) B3LYP/SVP
 --------------------------

 --
 TD
 --
 Symbolic Z-matrix:
 Charge =  0 Multiplicity = 1

                         Standard orientation:
 ---------------------------------------------------------------------
 Center     Atomic      Atomic             Coordinates (Angstroms)
 Number     Number       Type             X           Y           Z
 ---------------------------------------------------------------------
      1          6           0       -5.165796   -1.918298    0.423180
      2          6           0       -4.780657    2.893960    1.463318
      3          6           0       -9.467886    3.272706   -0.112371
      4          6           0       -9.919555   -1.545431   -0.860909
      5          7           0       -5.281012    0.518414    0.957997
      6          6           0       -4.579593   -0.692852    0.889270
      7          6           0       -3.085658   -0.592445    1.261153
      8          6           0       -3.030189    0.886686    1.822496
      9          6           0       -4.423456    1.452007    1.401280
     10          6           0       -2.879178    0.964526    3.414018
     11          6           0       -2.119721   -0.654705    0.055552
     12          6           0       -0.642120   -0.747272    0.522572
     13          6           0        0.361379   -0.823937   -0.550935
     14          8           0       -0.003521   -1.149926   -1.689583
     15          8           0        1.636721   -0.669789   -0.216181
     16          7           0       -7.068070    2.766278    0.565798
     17          6           0       -5.939332    3.471343    0.993515
     18          6           0       -6.285925    4.804452    1.005745
     19          6           0       -7.561259    4.952323    0.526198
     20          6           0       -8.139038    3.614530    0.294460
     21          6           0       -5.304495    5.795843    1.455915
     22          6           0       -8.225205    6.206771    0.112186
     23          6           0       -9.049147    6.457970   -0.929707
     24          7           0       -9.221178    0.755715   -0.453958
     25          6           0       -9.844865    1.924068   -0.459648
     26          6           0      -11.298364    1.805632   -0.795915
     27          6           0      -11.440212    0.400618   -1.089417
     28          6           0      -10.236991   -0.185308   -0.742372
     29          6           0      -12.396422    2.872058   -0.950609
     30          6           0      -12.601489   -0.318665   -1.658457
     31          6           0      -12.450133   -0.764938   -3.064143
     32          7           0       -7.525956   -1.311765   -0.123860
     33          6           0       -8.657017   -2.144704   -0.560669
     34          6           0       -8.115574   -3.476204   -0.630791
     35          6           0       -6.793880   -3.376018   -0.226945
     36          6           0       -6.471322   -2.076319    0.011374
     37          6           0       -8.892062   -4.624967   -0.996767
     38          6           0       -5.544064   -4.213665    0.013982
     39          8           0       -5.492979   -5.429479   -0.046195
     40          6           0       -4.409188   -3.256850    0.396996
     41          6           0       -3.872078   -3.739991    1.718842
     42          8           0       -4.119731   -3.481965    2.864181
     43          8           0       -2.854779   -4.782076    1.493000
     44          6           0       -2.241918   -5.491367    2.708472
     45          6           0        2.578931   -0.774931   -1.207667
     46          6           0        3.937232   -0.472948   -0.617844
     47          6           0        4.914793    0.247746   -1.187401
     48          6           0        4.663075    0.949827   -2.532369
     49          6           0        6.236600    0.313840   -0.496724
     50          6           0        7.513082   -0.403234   -1.082647
     51          6           0        8.831103   -0.090169   -0.329317
     52          6           0       10.094391   -0.724147   -0.928666
     53          6           0       10.084022   -2.354723   -0.849521
     54          6           0       11.249840   -0.136843   -0.247878
     55          6           0       12.648038   -0.501444   -0.734555
     56          6           0       13.774006    0.112760    0.035607
     57          6           0       15.238563   -0.215590   -0.404730
     58          6           0       15.609872   -1.778219   -0.304009
     59          6           0       16.264722    0.753483    0.263635
     60          6           0       17.694230    0.595512   -0.048551
     61          6           0       18.613080    1.537449    0.752602
     62          6           0       20.112314    1.544997    0.335828
     63          6           0       20.323844    1.939836   -1.144477
     64          6           0       20.887859    2.414475    1.393696
     65          1           0       -4.027494    3.477343    1.672973
     66          1           0      -10.159778    4.010663   -0.137303
     67          1           0      -10.698074   -2.134461   -1.308968
     68          1           0       -2.829652   -1.403657    2.154206
     69          1           0       -2.280929    1.428658    1.352558
     70          1           0       -1.760298    0.779223    3.679761
     71          1           0       -2.928334    1.967664    3.717461
     72          1           0       -3.812146    0.387435    3.857190
     73          1           0       -2.270184   -1.420046   -0.600282
     74          1           0       -2.178986    0.232399   -0.651812
     75          1           0       -0.533012    0.151029    1.229264
     76          1           0       -0.602627   -1.665819    1.077685
     77          1           0       -4.070771    5.536471    1.117649
     78          1           0       -5.705564    6.871884    1.337150
     79          1           0       -5.123762    5.583095    2.526207
     80          1           0       -8.169122    7.030189    0.798591
     81          1           0       -9.178214    5.669827   -1.703790
     82          1           0       -9.501713    7.416849   -0.987809
     83          1           0      -12.615220    3.400826    0.041579
     84          1           0      -12.192303    3.667688   -1.737824
     85          1           0      -13.311596    2.260897   -1.462783
     86          1           0      -12.688708   -1.178357   -0.893398
     87          1           0      -13.411514    0.292391   -1.465481
     88          1           0      -12.316095    0.023509   -3.619959
     89          1           0      -11.559264   -1.309772   -3.335161
     90          1           0      -13.243800   -1.300963   -3.514087
     91          1           0       -9.865420   -4.962385   -0.497438
     92          1           0       -9.111761   -4.597292   -2.226655
     93          1           0       -8.347446   -5.634337   -1.097514
     94          1           0       -3.462467   -3.484940   -0.173680
     95          1           0       -1.452613   -6.011331    2.234584
     96          1           0       -2.170210   -4.760850    3.485825
     97          1           0       -3.044762   -6.226019    3.021546
     98          1           0        2.357901   -2.033041   -1.642878
     99          1           0        2.468754   -0.258868   -1.960386
    100          1           0        4.368464   -1.094336    0.245096
    101          1           0        5.054036    1.897049   -2.762036
    102          1           0        5.308776    0.406440   -3.322142
    103          1           0        3.631395    0.844097   -2.913107
    104          1           0        6.295348    1.507802   -0.568503
    105          1           0        6.116258   -0.064028    0.542646
    106          1           0        7.312354   -1.511730   -0.915832
    107          1           0        7.708924   -0.259271   -2.219316
    108          1           0        8.942273    1.018906   -0.279686
    109          1           0        8.704944   -0.375814    0.792393
    110          1           0       10.294700   -0.430068   -2.087200
    111          1           0        9.297204   -2.769229   -1.434588
    112          1           0       11.121589   -2.784811   -1.175894
    113          1           0       10.038800   -2.688962    0.068953
    114          1           0       11.373214    1.047129   -0.123295
    115          1           0       11.163710   -0.616416    0.779487
    116          1           0       12.741436   -1.678281   -0.571776
    117          1           0       12.598058   -0.160625   -1.819126
    118          1           0       13.626772    1.064474    0.002875
    119          1           0       13.763636   -0.287471    1.109368
    120          1           0       15.427494   -0.013547   -1.662693
    121          1           0       14.629425   -2.269561   -0.875013
    122          1           0       16.531409   -2.065784   -0.803411
    123          1           0       15.589870   -2.146191    0.760503
    124          1           0       15.846726    1.855994    0.007889
    125          1           0       16.032907    0.491252    1.274643
    126          1           0       18.200957   -0.328542    0.201085
    127          1           0       17.867397    0.613785   -1.167627
    128          1           0       18.174738    2.558866    0.389225
    129          1           0       18.325626    1.437177    1.852510
    130          1           0       20.401679    0.364375    0.403556
    131          1           0       19.795743    2.944658   -1.313628
    132          1           0       21.374850    1.771496   -1.437846
    133          1           0       19.728241    1.223089   -1.794674
    134          1           0       20.395564    2.018893    2.376026
    135          1           0       22.226961    2.154636    1.342154
    136          1           0       20.591575    3.431532    1.227455
    137          1           0       -7.361647    1.861730    0.509162
    138          1           0       -7.699519   -0.304645    0.056435
 ---------------------------------------------------------------------

 SCF Done:  E(RB3LYP) =  -2733.06067383     A.U. after   18 cycles

 Excitation energies and oscillator strengths:

 Excited State   1:      Singlet-A      2.0680 eV  599.55 nm  f=0.1205  <S**2>=0.000
     235 -> 238        0.33607
     236 -> 237        0.61129
 This state for optimization and/or second-order correction.
 Total Energy, E(TD-HF/TD-KS) =  -2732.98467766
 Copying the excited state density for this state as the 1-particle RhoCI density.

 The electronic state is 1-A.
 Alpha  occ. eigenvalues --  -19.18710 -19.14742 -19.13228 -19.12076 -19.11904
 Alpha  occ. eigenvalues --  -14.36159 -14.36143 -14.33045 -14.29988 -10.31819
 Alpha  occ. eigenvalues --  -10.31585 -10.28154 -10.25015 -10.24085 -10.23993
 Alpha  occ. eigenvalues --  -10.23830 -10.23789 -10.23745 -10.23643 -10.22604
 Alpha  occ. eigenvalues --  -10.22360 -10.22074 -10.21839 -10.21753 -10.21281
 Alpha  occ. eigenvalues --  -10.21239 -10.20919 -10.20889 -10.20781 -10.20766
 Alpha  occ. eigenvalues --  -10.20763 -10.20755 -10.20745 -10.20735 -10.20697
 Alpha  occ. eigenvalues --  -10.20685 -10.20641 -10.20523 -10.20504 -10.20478
 Alpha  occ. eigenvalues --  -10.20424 -10.20366 -10.20078 -10.19994 -10.19754
 Alpha  occ. eigenvalues --  -10.19672 -10.19640 -10.19446 -10.19218 -10.19131
 Alpha  occ. eigenvalues --  -10.19108 -10.19098 -10.19019 -10.18932 -10.18901
 Alpha  occ. eigenvalues --  -10.18792 -10.18754 -10.18715 -10.18331 -10.18073
 Alpha  occ. eigenvalues --  -10.18057 -10.17974 -10.17824 -10.16441  -1.11453
 Alpha  occ. eigenvalues --   -1.06368  -1.02330  -1.00121  -0.98038  -0.97885
 Alpha  occ. eigenvalues --   -0.96588  -0.93564  -0.93183  -0.85178  -0.82840
 Alpha  occ. eigenvalues --   -0.82836  -0.82229  -0.81296  -0.81154  -0.81003
 Alpha  occ. eigenvalues --   -0.80434  -0.80348  -0.79200  -0.78451  -0.77650
 Alpha  occ. eigenvalues --   -0.76664  -0.76220  -0.75698  -0.75051  -0.74299
 Alpha  occ. eigenvalues --   -0.73754  -0.73250  -0.72694  -0.71444  -0.70719
 Alpha  occ. eigenvalues --   -0.69864  -0.69528  -0.69152  -0.68352  -0.67870
 Alpha  occ. eigenvalues --   -0.67235  -0.67052  -0.66226  -0.65896  -0.65487
 Alpha  occ. eigenvalues --   -0.63992  -0.63721  -0.63230  -0.62072  -0.61540
 Alpha  occ. eigenvalues --   -0.61169  -0.59192  -0.58470  -0.58348  -0.57987
 Alpha  occ. eigenvalues --   -0.57274  -0.56350  -0.56264  -0.54725  -0.54650
 Alpha  occ. eigenvalues --   -0.54245  -0.54173  -0.53588  -0.53083  -0.52724
 Alpha  occ. eigenvalues --   -0.52349  -0.52065  -0.51936  -0.51094  -0.50415
 Alpha  occ. eigenvalues --   -0.50185  -0.49561  -0.49369  -0.49061  -0.48448
 Alpha  occ. eigenvalues --   -0.48106  -0.47617  -0.47457  -0.47312  -0.46730
 Alpha  occ. eigenvalues --   -0.46502  -0.46393  -0.46007  -0.45735  -0.45495
 Alpha  occ. eigenvalues --   -0.45363  -0.45055  -0.44982  -0.44855  -0.44476
 Alpha  occ. eigenvalues --   -0.44168  -0.43943  -0.43830  -0.43685  -0.43589
 Alpha  occ. eigenvalues --   -0.43425  -0.43128  -0.43049  -0.42938  -0.42686
 Alpha  occ. eigenvalues --   -0.42492  -0.42258  -0.42123  -0.41964  -0.41553
 Alpha  occ. eigenvalues --   -0.41429  -0.41090  -0.40461  -0.40426  -0.40201
 Alpha  occ. eigenvalues --   -0.39953  -0.39809  -0.39760  -0.39535  -0.39442
 Alpha  occ. eigenvalues --   -0.39343  -0.38937  -0.38797  -0.38733  -0.38714
 Alpha  occ. eigenvalues --   -0.38586  -0.38360  -0.38226  -0.38110  -0.37749
 Alpha  occ. eigenvalues --   -0.37681  -0.37409  -0.37303  -0.37257  -0.37048
 Alpha  occ. eigenvalues --   -0.36872  -0.36774  -0.36612  -0.36203  -0.35995
 Alpha  occ. eigenvalues --   -0.35846  -0.35523  -0.35007  -0.34974  -0.34859
 Alpha  occ. eigenvalues --   -0.34517  -0.34503  -0.34216  -0.34144  -0.33953
 Alpha  occ. eigenvalues --   -0.33735  -0.33496  -0.33254  -0.33234  -0.32599
 Alpha  occ. eigenvalues --   -0.32423  -0.32145  -0.31724  -0.31708  -0.31518
 Alpha  occ. eigenvalues --   -0.30443  -0.30190  -0.29966  -0.29852  -0.29793
 Alpha  occ. eigenvalues --   -0.29498  -0.28710  -0.28330  -0.28256  -0.27822
 Alpha  occ. eigenvalues --   -0.27571  -0.27439  -0.26889  -0.26275  -0.25793
 Alpha  occ. eigenvalues --   -0.24951  -0.24557  -0.24303  -0.22114  -0.20029
 Alpha  occ. eigenvalues --   -0.19105
 Alpha virt. eigenvalues --   -0.10149  -0.08368  -0.04349  -0.02162  -0.01126
 Alpha virt. eigenvalues --   -0.00790  -0.00116   0.00256   0.01371   0.03557
 Alpha virt. eigenvalues --    0.03640   0.03676   0.04012   0.04272   0.04502

 Mulliken charges:
               1
     1  C   -0.009954
     2  C    0.011283
     3  C   -0.039353
     4  C   -0.065619
     5  N   -0.167409
     6  C   -0.041693
     7  C   -0.111079
     8  C    0.004179
     9  C   -0.041502
    10  C    0.050343
    11  C    0.074593
    12  C    0.044024
    13  C    0.178212
    14  O   -0.271916
    15  O   -0.250746
    16  N   -0.040874
    17  C    0.173445
    18  C   -0.073800
    19  C    0.021728
    20  C    0.045845
    21  C    0.025865
    22  C   -0.071803
    23  C   -0.016209
    24  N   -0.254248
    25  C    0.088054
    26  C   -0.172346
    27  C   -0.122521
    28  C    0.073950
    29  C    0.022137
    30  C    0.109325
    31  C    0.138586
    32  N   -0.052720
    33  C    0.087285
    34  C   -0.078858
    35  C   -0.018741
    36  C    0.135708
    37  C   -0.039386
    38  C    0.078778
    39  O   -0.160246
    40  C   -0.005332
    41  C    0.194892
    42  O   -0.195194
    43  O   -0.433702
    44  C    0.207986
    45  C    0.368359
    46  C   -0.113333
    47  C   -0.128587
    48  C    0.074287
    49  C    0.042185
    50  C    0.016419
    51  C    0.012602
    52  C   -0.064107
    53  C    0.065058
    54  C   -0.041712
    55  C    0.000225
    56  C    0.139032
    57  C   -0.163784
    58  C   -0.022095
    59  C    0.058141
    60  C    0.040450
    61  C   -0.042926
    62  C   -0.131026
    63  C    0.026091
    64  C    0.002812
    65  H   -0.114092
    66  H   -0.068303
    67  H   -0.021563
    68  H    0.066626
    69  H   -0.022106
    70  H    0.025927
    71  H   -0.011976
    72  H    0.061545
    73  H   -0.018116
    74  H    0.013231
    75  H    0.028327
    76  H    0.027456
    77  H    0.048643
    78  H    0.040274
    79  H    0.027057
    80  H   -0.001335
    81  H    0.035566
    82  H    0.016511
    83  H    0.048961
    84  H    0.032931
    85  H    0.032655
    86  H    0.007836
    87  H   -0.036747
    88  H   -0.047753
    89  H   -0.006428
    90  H   -0.002784
    91  H    0.053087
    92  H    0.033682
    93  H    0.035428
    94  H    0.071886
    95  H    0.038356
    96  H    0.040386
    97  H    0.037998
    98  H    0.028706
    99  H   -0.118454
   100  H   -0.001167
   101  H   -0.003436
   102  H    0.017394
   103  H    0.021390
   104  H    0.020028
   105  H    0.010139
   106  H    0.007759
   107  H    0.015320
   108  H   -0.003867
   109  H    0.002971
   110  H    0.000509
   111  H    0.014061
   112  H    0.021014
   113  H   -0.034304
   114  H    0.011436
   115  H   -0.015383
   116  H    0.016036
   117  H    0.000537
   118  H   -0.068066
   119  H    0.000045
   120  H   -0.010827
   121  H    0.030016
   122  H    0.026801
   123  H    0.012522
   124  H    0.015793
   125  H   -0.021835
   126  H   -0.020513
   127  H   -0.001646
   128  H   -0.011514
   129  H    0.013432
   130  H    0.002547
   131  H    0.019703
   132  H    0.022716
   133  H    0.009124
   134  H    0.028547
   135  H    0.036249
   136  H    0.014861
   137  H    0.095748
   138  H    0.153384
 Sum of Mulliken charges =   0.00000

 Dipole moment (field-independent basis, Debye):
    X=              1.9653    Y=              4.7357    Z=              0.5910  Tot=              5.1613
 Quadrupole moment (field-independent basis, Debye-Ang):
   XX=           -359.7992   YY=           -385.1460   ZZ=           -395.3795
   XY=            -30.0994   XZ=             10.9330   YZ=             -0.4164

 Normal termination of Gaussian 09 at Wed Jul 31 18:27:56 2019.
