 Gaussian 09, Revision D.01,
 Gaussian 09:  ES64L-G09RevD.01 24-Apr-2013

 --------------------------
 # td=(NStates=1) B3LYP/SVP
 --------------------------

 --
 TD
 --
 Symbolic Z-matrix:
 Charge =  0 Multiplicity = 1

                         Standard orientation:
 ---------------------------------------------------------------------
 Center     Atomic      Atomic             Coordinates (Angstroms)
 Number     Number       Type             X           Y           Z
 ---------------------------------------------------------------------
      1          6           0       -5.240482   -1.901706    0.468824
      2          6           0       -4.732019    2.743961    1.417258
      3          6           0       -9.298992    3.328406   -0.215446
      4          6           0       -9.909440   -1.314540   -0.923980
      5          7           0       -5.223536    0.407472    0.850097
      6          6           0       -4.619242   -0.735078    0.890079
      7          6           0       -3.108163   -0.612383    1.255009
      8          6           0       -3.149111    0.743504    1.913940
      9          6           0       -4.442658    1.327157    1.300090
     10          6           0       -3.021062    0.805268    3.484978
     11          6           0       -2.070066   -0.820835    0.234402
     12          6           0       -0.627673   -0.842813    0.700614
     13          6           0        0.406110   -1.015018   -0.494887
     14          8           0        0.130036   -1.595848   -1.500997
     15          8           0        1.638166   -0.711206   -0.097453
     16          7           0       -6.944016    2.794114    0.531430
     17          6           0       -5.844999    3.458384    0.976862
     18          6           0       -6.145119    4.850013    1.065577
     19          6           0       -7.375525    5.002621    0.607595
     20          6           0       -7.952810    3.628738    0.230926
     21          6           0       -5.087653    5.806109    1.547220
     22          6           0       -8.088652    6.275675    0.361393
     23          6           0       -9.038618    6.600840   -0.513725
     24          7           0       -9.304139    0.985258   -0.410898
     25          6           0       -9.906998    2.120304   -0.496804
     26          6           0      -11.232042    2.015527   -1.046379
     27          6           0      -11.515186    0.624657   -1.241701
     28          6           0      -10.253545    0.059003   -0.822247
     29          6           0      -12.148230    3.012444   -1.288474
     30          6           0      -12.683871   -0.121097   -1.813613
     31          6           0      -12.478147   -0.419870   -3.353674
     32          7           0       -7.606458   -1.239273   -0.108869
     33          6           0       -8.718414   -1.953327   -0.569265
     34          6           0       -8.277806   -3.330666   -0.789975
     35          6           0       -6.896447   -3.406032   -0.378253
     36          6           0       -6.538293   -2.025437    0.091537
     37          6           0       -9.228432   -4.417651   -1.160515
     38          6           0       -5.787536   -4.255054   -0.034432
     39          8           0       -5.753312   -5.475900   -0.128927
     40          6           0       -4.702020   -3.380564    0.489262
     41          6           0       -4.018319   -3.836712    1.779008
     42          8           0       -4.287854   -3.340701    2.876806
     43          8           0       -3.239672   -4.906507    1.568835
     44          6           0       -2.668858   -5.511573    2.645580
     45          6           0        2.653777   -1.132619   -1.069124
     46          6           0        4.026955   -0.791869   -0.509269
     47          6           0        5.066086   -0.134251   -1.119386
     48          6           0        4.847163    0.572828   -2.450822
     49          6           0        6.325109    0.223021   -0.389136
     50          6           0        7.533410   -0.393132   -1.133460
     51          6           0        8.846678   -0.189748   -0.299730
     52          6           0       10.097952   -0.887229   -0.816379
     53          6           0       10.108911   -2.386880   -0.852672
     54          6           0       11.345620   -0.375531    0.013037
     55          6           0       12.674543   -0.759860   -0.567168
     56          6           0       13.892655    0.030723    0.169810
     57          6           0       15.308197   -0.060011   -0.485666
     58          6           0       15.662202   -1.538248   -0.548190
     59          6           0       16.291136    0.639251    0.440687
     60          6           0       17.773253    0.754156   -0.123612
     61          6           0       18.778278    1.642846    0.601515
     62          6           0       20.195097    1.721736    0.102519
     63          6           0       20.299328    2.342149   -1.312887
     64          6           0       21.049640    2.467698    1.095539
     65          1           0       -4.011023    3.459375    1.773560
     66          1           0       -9.805573    4.216619   -0.270109
     67          1           0      -10.677815   -2.090704   -1.255324
     68          1           0       -2.952244   -1.270716    2.185818
     69          1           0       -2.208867    1.299445    1.464352
     70          1           0       -2.044583    0.241812    3.949474
     71          1           0       -3.206566    1.962649    3.904314
     72          1           0       -3.871839    0.243975    3.720768
     73          1           0       -2.333384   -1.682240   -0.605566
     74          1           0       -2.115850   -0.021624   -0.602527
     75          1           0       -0.409954    0.084144    1.501790
     76          1           0       -0.340332   -1.687455    1.370540
     77          1           0       -4.142399    5.775115    0.955542
     78          1           0       -5.415416    6.878188    1.446936
     79          1           0       -4.910675    5.704160    2.608217
     80          1           0       -7.906949    6.934416    1.229781
     81          1           0       -9.432279    5.805755   -1.132794
     82          1           0       -9.428891    7.690451   -0.604616
     83          1           0      -12.188886    3.749344   -0.392923
     84          1           0      -11.694213    3.755812   -2.028086
     85          1           0      -13.205170    2.725058   -1.647368
     86          1           0      -13.046479   -1.023360   -1.111993
     87          1           0      -13.640932    0.536965   -1.840500
     88          1           0      -12.190526    0.486980   -4.014596
     89          1           0      -11.630209   -1.081815   -3.402317
     90          1           0      -13.276231   -0.914561   -3.870496
     91          1           0      -10.044471   -4.521696   -0.307491
     92          1           0       -9.673626   -4.364709   -2.053086
     93          1           0       -8.886635   -5.509181   -0.997329
     94          1           0       -3.902770   -3.576180   -0.201212
     95          1           0       -1.562508   -5.981159    2.234993
     96          1           0       -2.385258   -4.774209    3.375030
     97          1           0       -3.462127   -6.360231    3.143542
     98          1           0        2.619428   -2.193326   -1.228613
     99          1           0        2.397668   -0.676134   -2.010339
    100          1           0        4.089756   -1.261197    0.617797
    101          1           0        5.296922    1.644372   -2.562331
    102          1           0        5.297235    0.082034   -3.531618
    103          1           0        3.739927    0.538442   -2.884924
    104          1           0        6.494071    1.209204   -0.433149
    105          1           0        6.240657   -0.328290    0.416779
    106          1           0        7.512751   -1.518609   -1.293231
    107          1           0        7.657446    0.294772   -2.257410
    108          1           0        9.125852    0.734817    0.040595
    109          1           0        8.703233   -0.745730    0.696585
    110          1           0       10.317152   -0.508732   -1.731089
    111          1           0        9.244744   -3.038768   -1.312824
    112          1           0       10.983355   -2.758380   -1.415983
    113          1           0       10.028753   -2.878432    0.145725
    114          1           0       11.289033    0.735950    0.076013
    115          1           0       11.301394   -0.800154    1.066444
    116          1           0       12.951112   -1.809228   -0.595842
    117          1           0       12.757053   -0.549384   -1.726012
    118          1           0       13.449681    1.058510    0.219418
    119          1           0       13.927002   -0.288653    1.237819
    120          1           0       15.236342    0.329565   -1.472895
    121          1           0       15.091582   -2.380636   -1.116601
    122          1           0       16.694675   -1.721058   -0.938037
    123          1           0       15.582222   -2.036991    0.691464
    124          1           0       15.922295    1.629366    0.636307
    125          1           0       16.403434    0.372116    1.614283
    126          1           0       18.004538   -0.183751   -0.062232
    127          1           0       17.593024    1.063584   -1.198545
    128          1           0       18.402070    2.816014    0.645272
    129          1           0       18.740282    1.279273    1.601726
    130          1           0       20.530178    0.586240    0.148663
    131          1           0       19.866384    3.242211   -1.578878
    132          1           0       21.231414    2.323456   -1.646155
    133          1           0       19.649235    1.701013   -1.783263
    134          1           0       20.776926    2.129242    2.074343
    135          1           0       22.152629    2.305391    0.701472
    136          1           0       20.845579    3.555297    1.158757
    137          1           0       -6.994034    1.754743    0.410468
    138          1           0       -7.754230   -0.274003   -0.099049
 ---------------------------------------------------------------------

 SCF Done:  E(RB3LYP) =  -2733.09055449     A.U. after   17 cycles

 Excitation energies and oscillator strengths:

 Excited State   1:      Singlet-A      2.0887 eV  593.60 nm  f=0.1293  <S**2>=0.000
     235 -> 238        0.33328
     236 -> 237        0.61884
 This state for optimization and/or second-order correction.
 Total Energy, E(TD-HF/TD-KS) =  -2733.01379672
 Copying the excited state density for this state as the 1-particle RhoCI density.

 The electronic state is 1-A.
 Alpha  occ. eigenvalues --  -19.18971 -19.18428 -19.12885 -19.12642 -19.10857
 Alpha  occ. eigenvalues --  -14.37351 -14.36529 -14.32501 -14.29374 -10.32362
 Alpha  occ. eigenvalues --  -10.31937 -10.26877 -10.26644 -10.24915 -10.24379
 Alpha  occ. eigenvalues --  -10.23434 -10.23426 -10.23349 -10.23176 -10.22857
 Alpha  occ. eigenvalues --  -10.22299 -10.22167 -10.21952 -10.21389 -10.21286
 Alpha  occ. eigenvalues --  -10.21227 -10.21161 -10.21062 -10.20978 -10.20958
 Alpha  occ. eigenvalues --  -10.20948 -10.20858 -10.20650 -10.20566 -10.20527
 Alpha  occ. eigenvalues --  -10.20500 -10.20449 -10.20415 -10.20398 -10.20194
 Alpha  occ. eigenvalues --  -10.20012 -10.19956 -10.19870 -10.19552 -10.19462
 Alpha  occ. eigenvalues --  -10.19365 -10.19348 -10.19297 -10.19226 -10.18930
 Alpha  occ. eigenvalues --  -10.18818 -10.18756 -10.18734 -10.18634 -10.18631
 Alpha  occ. eigenvalues --  -10.18589 -10.18546 -10.18202 -10.18124 -10.18013
 Alpha  occ. eigenvalues --  -10.17761 -10.17754 -10.17278 -10.15240  -1.11313
 Alpha  occ. eigenvalues --   -1.10531  -1.01652  -1.01327  -1.00680  -0.99360
 Alpha  occ. eigenvalues --   -0.98313  -0.97574  -0.94763  -0.85168  -0.82990
 Alpha  occ. eigenvalues --   -0.82690  -0.81970  -0.81606  -0.81251  -0.80895
 Alpha  occ. eigenvalues --   -0.80125  -0.79824  -0.79748  -0.78857  -0.77530
 Alpha  occ. eigenvalues --   -0.77122  -0.76313  -0.75687  -0.75008  -0.74587
 Alpha  occ. eigenvalues --   -0.73699  -0.73371  -0.72951  -0.71486  -0.70999
 Alpha  occ. eigenvalues --   -0.69916  -0.69732  -0.69210  -0.68751  -0.68011
 Alpha  occ. eigenvalues --   -0.67265  -0.66157  -0.65910  -0.65854  -0.65100
 Alpha  occ. eigenvalues --   -0.64324  -0.63073  -0.62518  -0.62022  -0.61935
 Alpha  occ. eigenvalues --   -0.61297  -0.59049  -0.58824  -0.58112  -0.57355
 Alpha  occ. eigenvalues --   -0.56697  -0.56658  -0.56491  -0.56452  -0.56316
 Alpha  occ. eigenvalues --   -0.55711  -0.55164  -0.54603  -0.54480  -0.53446
 Alpha  occ. eigenvalues --   -0.53141  -0.52405  -0.51879  -0.51132  -0.50539
 Alpha  occ. eigenvalues --   -0.50463  -0.50085  -0.49685  -0.49169  -0.48377
 Alpha  occ. eigenvalues --   -0.48188  -0.47756  -0.47672  -0.47389  -0.47166
 Alpha  occ. eigenvalues --   -0.46755  -0.46515  -0.46243  -0.45821  -0.45711
 Alpha  occ. eigenvalues --   -0.45648  -0.45523  -0.45309  -0.44946  -0.44703
 Alpha  occ. eigenvalues --   -0.44676  -0.44440  -0.44133  -0.43825  -0.43401
 Alpha  occ. eigenvalues --   -0.43303  -0.42993  -0.42959  -0.42519  -0.42388
 Alpha  occ. eigenvalues --   -0.42217  -0.41993  -0.41886  -0.41739  -0.41620
 Alpha  occ. eigenvalues --   -0.41368  -0.41008  -0.40919  -0.40784  -0.40572
 Alpha  occ. eigenvalues --   -0.40415  -0.40037  -0.39907  -0.39529  -0.39516
 Alpha  occ. eigenvalues --   -0.39389  -0.39030  -0.38776  -0.38501  -0.38325
 Alpha  occ. eigenvalues --   -0.38256  -0.38070  -0.37957  -0.37793  -0.37535
 Alpha  occ. eigenvalues --   -0.37394  -0.37321  -0.37175  -0.37032  -0.36738
 Alpha  occ. eigenvalues --   -0.36707  -0.36398  -0.36042  -0.35728  -0.35516
 Alpha  occ. eigenvalues --   -0.35401  -0.35183  -0.35105  -0.35015  -0.34489
 Alpha  occ. eigenvalues --   -0.34317  -0.34222  -0.34055  -0.34013  -0.33740
 Alpha  occ. eigenvalues --   -0.33633  -0.33104  -0.32674  -0.32551  -0.32269
 Alpha  occ. eigenvalues --   -0.32172  -0.32146  -0.31766  -0.31510  -0.31359
 Alpha  occ. eigenvalues --   -0.31043  -0.30744  -0.30641  -0.30405  -0.30267
 Alpha  occ. eigenvalues --   -0.29928  -0.29710  -0.28753  -0.28527  -0.28459
 Alpha  occ. eigenvalues --   -0.27785  -0.27664  -0.27278  -0.26649  -0.25761
 Alpha  occ. eigenvalues --   -0.25177  -0.24720  -0.24431  -0.21873  -0.19835
 Alpha  occ. eigenvalues --   -0.18739
 Alpha virt. eigenvalues --   -0.09758  -0.08093  -0.04484  -0.01676  -0.01199
 Alpha virt. eigenvalues --   -0.01062   0.00273   0.00544   0.02296   0.03483
 Alpha virt. eigenvalues --    0.03775   0.04380   0.04598   0.04628   0.05064

 Mulliken charges:
               1
     1  C    0.062670
     2  C   -0.038088
     3  C   -0.061814
     4  C   -0.080865
     5  N   -0.062260
     6  C   -0.146041
     7  C   -0.003243
     8  C   -0.103298
     9  C   -0.012413
    10  C    0.023457
    11  C    0.029863
    12  C   -0.029830
    13  C    0.179131
    14  O   -0.224006
    15  O   -0.300898
    16  N   -0.039233
    17  C    0.027744
    18  C   -0.091099
    19  C   -0.005520
    20  C    0.012766
    21  C    0.100604
    22  C   -0.056282
    23  C   -0.036420
    24  N   -0.194202
    25  C    0.140133
    26  C   -0.133035
    27  C   -0.060258
    28  C    0.069328
    29  C    0.056871
    30  C   -0.002157
    31  C    0.014790
    32  N    0.004962
    33  C    0.016188
    34  C   -0.106335
    35  C   -0.013659
    36  C    0.062228
    37  C    0.071326
    38  C    0.049303
    39  O   -0.182429
    40  C    0.043400
    41  C    0.178591
    42  O   -0.245690
    43  O   -0.236513
    44  C    0.091104
    45  C    0.280310
    46  C   -0.143561
    47  C   -0.090911
    48  C   -0.071478
    49  C    0.311856
    50  C   -0.093900
    51  C    0.070454
    52  C    0.020477
    53  C   -0.008072
    54  C   -0.001037
    55  C   -0.007101
    56  C   -0.010994
    57  C    0.036297
    58  C   -0.077507
    59  C   -0.017997
    60  C    0.103851
    61  C   -0.006474
    62  C   -0.135105
    63  C    0.175112
    64  C    0.058661
    65  H   -0.039564
    66  H   -0.094021
    67  H    0.000458
    68  H    0.016478
    69  H    0.006337
    70  H    0.046942
    71  H    0.041327
    72  H    0.017915
    73  H    0.042512
    74  H    0.008201
    75  H    0.046691
    76  H    0.033873
    77  H    0.042153
    78  H    0.009005
    79  H    0.027129
    80  H    0.014073
    81  H    0.022163
    82  H    0.048867
    83  H    0.021654
    84  H    0.009944
    85  H    0.033608
    86  H    0.038748
    87  H    0.005750
    88  H    0.026571
    89  H   -0.001245
    90  H    0.007983
    91  H    0.037233
    92  H    0.003578
    93  H    0.038985
    94  H    0.031118
    95  H    0.049718
    96  H    0.029140
    97  H    0.067011
    98  H    0.024014
    99  H    0.006835
   100  H    0.028929
   101  H    0.040878
   102  H    0.035828
   103  H    0.028573
   104  H   -0.023458
   105  H   -0.061657
   106  H    0.021280
   107  H    0.015454
   108  H   -0.046628
   109  H   -0.022216
   110  H   -0.048346
   111  H    0.009825
   112  H    0.016628
   113  H    0.001363
   114  H    0.000203
   115  H    0.001954
   116  H    0.002153
   117  H   -0.010603
   118  H   -0.009962
   119  H   -0.001239
   120  H   -0.006788
   121  H    0.030135
   122  H    0.018329
   123  H    0.012943
   124  H   -0.026486
   125  H    0.003068
   126  H   -0.050208
   127  H    0.003109
   128  H   -0.003850
   129  H   -0.021953
   130  H   -0.000407
   131  H   -0.020949
   132  H   -0.029415
   133  H   -0.035711
   134  H   -0.010746
   135  H    0.022713
   136  H   -0.001132
   137  H    0.162745
   138  H    0.092709
 Sum of Mulliken charges =   0.00000

 Dipole moment (field-independent basis, Debye):
    X=              2.6589    Y=              4.6905    Z=              0.1344  Tot=              5.3934
 Quadrupole moment (field-independent basis, Debye-Ang):
   XX=           -362.4456   YY=           -385.7967   ZZ=           -395.1395
   XY=            -27.0354   XZ=              5.8065   YZ=             -1.2060

 Normal termination of Gaussian 09 at Sun Jul 28 23:46:25 2019.
