 Gaussian 09, Revision D.01,
 Gaussian 09:  ES64L-G09RevD.01 24-Apr-2013

 --------------------------
 # td=(NStates=1) B3LYP/SVP
 --------------------------

 --
 TD
 --
 Symbolic Z-matrix:
 Charge =  0 Multiplicity = 1

                         Standard orientation:
 ---------------------------------------------------------------------
 Center     Atomic      Atomic             Coordinates (Angstroms)
 Number     Number       Type             X           Y           Z
 ---------------------------------------------------------------------
      1          6           0       -5.034545   -1.852497    0.439990
      2          6           0       -4.816981    2.788945    1.448296
      3          6           0       -9.292371    3.398124   -0.257977
      4          6           0       -9.881770   -1.401431   -0.869089
      5          7           0       -5.107583    0.448494    0.772671
      6          6           0       -4.398140   -0.741652    0.807197
      7          6           0       -3.042399   -0.602879    1.252282
      8          6           0       -3.026241    0.940290    1.793627
      9          6           0       -4.397516    1.424691    1.326973
     10          6           0       -2.989856    0.884735    3.383979
     11          6           0       -2.028284   -0.730856    0.096610
     12          6           0       -0.570663   -0.774275    0.496628
     13          6           0        0.395485   -1.138911   -0.607944
     14          8           0        0.053752   -1.647002   -1.644534
     15          8           0        1.673709   -0.867855   -0.252269
     16          7           0       -7.150416    2.748352    0.562700
     17          6           0       -6.004596    3.388554    1.076230
     18          6           0       -6.274593    4.766847    1.010337
     19          6           0       -7.529201    4.988139    0.469523
     20          6           0       -8.060472    3.704153    0.189074
     21          6           0       -5.288971    5.804084    1.547215
     22          6           0       -8.226146    6.277551    0.397664
     23          6           0       -9.069954    6.454260   -0.712343
     24          7           0       -9.267905    0.890770   -0.534218
     25          6           0       -9.911213    2.148895   -0.566704
     26          6           0      -11.296138    1.813330   -0.960142
     27          6           0      -11.512393    0.627408   -1.145885
     28          6           0      -10.147254    0.001331   -0.928720
     29          6           0      -12.334937    2.922069   -1.116255
     30          6           0      -12.719032   -0.325217   -1.592874
     31          6           0      -12.852762   -0.542940   -3.076334
     32          7           0       -7.448713   -1.205209   -0.232499
     33          6           0       -8.559999   -1.994443   -0.672944
     34          6           0       -8.163013   -3.315868   -0.722243
     35          6           0       -6.836497   -3.275922   -0.332186
     36          6           0       -6.377642   -1.962813    0.042232
     37          6           0       -8.946361   -4.400684   -1.093288
     38          6           0       -5.742783   -4.254635   -0.065619
     39          8           0       -5.642181   -5.462949   -0.204840
     40          6           0       -4.530530   -3.185137    0.296434
     41          6           0       -3.957164   -3.804335    1.696215
     42          8           0       -4.274529   -3.551650    2.904102
     43          8           0       -3.061431   -4.722347    1.427618
     44          6           0       -2.539488   -5.367026    2.608369
     45          6           0        2.719658   -1.100397   -1.213519
     46          6           0        4.021970   -0.775243   -0.488509
     47          6           0        5.041910   -0.101028   -0.988786
     48          6           0        5.011680    0.671514   -2.289456
     49          6           0        6.203518    0.252576   -0.120847
     50          6           0        7.483533   -0.556087   -0.794020
     51          6           0        8.766441   -0.478716    0.112933
     52          6           0       10.072852   -0.932082   -0.598932
     53          6           0       10.099706   -2.481455   -0.721236
     54          6           0       11.305265   -0.399948    0.211682
     55          6           0       12.601059   -0.684141   -0.423945
     56          6           0       13.807372   -0.141030    0.253460
     57          6           0       15.322698   -0.235972   -0.341319
     58          6           0       15.805684   -1.678301   -0.225796
     59          6           0       16.227623    0.695386    0.297345
     60          6           0       17.651750    0.781382   -0.309663
     61          6           0       18.545673    1.825107    0.355777
     62          6           0       20.026921    1.882187   -0.086611
     63          6           0       20.364566    2.349654   -1.604661
     64          6           0       20.967643    2.751190    0.883654
     65          1           0       -3.994922    3.387142    1.691170
     66          1           0      -10.105936    4.268822   -0.433116
     67          1           0      -10.837084   -1.919494   -1.246163
     68          1           0       -2.665545   -1.068782    2.025885
     69          1           0       -2.081947    1.429958    1.494773
     70          1           0       -1.926268    0.790270    3.706182
     71          1           0       -3.081214    1.982338    3.625197
     72          1           0       -3.782068    0.547322    3.839345
     73          1           0       -2.131003   -1.770945   -0.374222
     74          1           0       -2.311131    0.244195   -0.658592
     75          1           0       -0.485428    0.354894    1.048163
     76          1           0       -0.484665   -1.447379    1.414109
     77          1           0       -4.312076    5.626026    0.762763
     78          1           0       -5.620050    6.701011    1.532285
     79          1           0       -4.936365    5.530867    2.389098
     80          1           0       -7.798105    7.109295    1.048216
     81          1           0       -9.230357    5.553073   -1.363748
     82          1           0       -9.856549    7.366741   -0.956910
     83          1           0      -12.487881    3.437348   -0.202283
     84          1           0      -11.848030    3.657810   -1.798150
     85          1           0      -13.218351    2.415791   -1.624681
     86          1           0      -12.617174   -1.266052   -0.937212
     87          1           0      -13.613551    0.260083   -1.164578
     88          1           0      -12.798898    0.509054   -3.531751
     89          1           0      -11.823216   -0.830988   -3.541597
     90          1           0      -13.881358   -1.076016   -3.418729
     91          1           0       -9.736333   -4.891684   -0.225026
     92          1           0       -9.712491   -4.162556   -1.976799
     93          1           0       -8.002362   -5.234925   -1.245218
     94          1           0       -3.717547   -3.315912   -0.238729
     95          1           0       -1.693725   -6.087416    2.370221
     96          1           0       -2.097619   -4.556706    3.374761
     97          1           0       -3.240763   -6.094523    3.121373
     98          1           0        2.800124   -2.259362   -1.465797
     99          1           0        2.449699   -0.590375   -2.074390
    100          1           0        4.099149   -1.617292    0.357806
    101          1           0        5.339343    1.595434   -2.203155
    102          1           0        5.577924    0.025274   -3.093404
    103          1           0        3.860075    0.687313   -2.548632
    104          1           0        6.405364    1.341369    0.269052
    105          1           0        5.893144   -0.298368    0.830964
    106          1           0        7.215880   -1.609799   -0.936121
    107          1           0        7.727148   -0.307629   -1.718942
    108          1           0        8.810799    0.499287    0.254928
    109          1           0        8.606974   -0.851856    1.048294
    110          1           0       10.147185   -0.299116   -1.498296
    111          1           0        9.390856   -2.856497   -1.369794
    112          1           0       11.124514   -2.672303   -1.166573
    113          1           0        9.923030   -2.899469    0.286702
    114          1           0       11.111064    0.692131    0.255436
    115          1           0       11.377115   -0.529466    1.310409
    116          1           0       12.823598   -1.779051   -0.483230
    117          1           0       12.688998   -0.306742   -1.481559
    118          1           0       13.646071    0.872361    0.261078
    119          1           0       13.741528   -0.533775    1.261709
    120          1           0       15.286501    0.050482   -1.277254
    121          1           0       14.939685   -2.527768   -0.500353
    122          1           0       16.598126   -1.767674   -1.040618
    123          1           0       16.378201   -1.758021    0.803561
    124          1           0       15.893987    1.681675    0.131829
    125          1           0       16.196137    0.456276    1.352355
    126          1           0       17.982450   -0.450749    0.006742
    127          1           0       17.515912    0.915160   -1.296845
    128          1           0       17.997266    2.849564    0.265257
    129          1           0       18.407826    1.677690    1.463819
    130          1           0       20.634852    0.965267    0.087299
    131          1           0       19.957666    3.401839   -1.596454
    132          1           0       21.431582    2.044007   -1.907859
    133          1           0       19.839068    1.860985   -2.308627
    134          1           0       20.859982    2.511673    1.978420
    135          1           0       22.072849    2.871508    0.767792
    136          1           0       20.639070    3.877149    0.836153
    137          1           0       -7.240574    1.821934    0.419642
    138          1           0       -7.691023   -0.233063   -0.003842
 ---------------------------------------------------------------------

 SCF Done:  E(RB3LYP) =  -2732.94057230     A.U. after   16 cycles

 Excitation energies and oscillator strengths:

 Excited State   1:      Singlet-A      2.0447 eV  606.36 nm  f=0.1778  <S**2>=0.000
     235 -> 237       -0.16015
     235 -> 238       -0.25999
     236 -> 237        0.62203
     236 -> 238       -0.13195
 This state for optimization and/or second-order correction.
 Total Energy, E(TD-HF/TD-KS) =  -2732.86543007
 Copying the excited state density for this state as the 1-particle RhoCI density.

 The electronic state is 1-A.
 Alpha  occ. eigenvalues --  -19.18836 -19.17775 -19.12995 -19.12752 -19.11054
 Alpha  occ. eigenvalues --  -14.36658 -14.36379 -14.32094 -14.30315 -10.32142
 Alpha  occ. eigenvalues --  -10.31227 -10.28202 -10.25575 -10.25191 -10.23908
 Alpha  occ. eigenvalues --  -10.23681 -10.23317 -10.23304 -10.23149 -10.22461
 Alpha  occ. eigenvalues --  -10.22286 -10.22105 -10.22102 -10.22093 -10.21648
 Alpha  occ. eigenvalues --  -10.21475 -10.21304 -10.21067 -10.21036 -10.21018
 Alpha  occ. eigenvalues --  -10.20908 -10.20746 -10.20575 -10.20473 -10.20467
 Alpha  occ. eigenvalues --  -10.20459 -10.20274 -10.20094 -10.19909 -10.19762
 Alpha  occ. eigenvalues --  -10.19663 -10.19636 -10.19573 -10.19408 -10.19368
 Alpha  occ. eigenvalues --  -10.19298 -10.19273 -10.19267 -10.18989 -10.18820
 Alpha  occ. eigenvalues --  -10.18727 -10.18504 -10.18494 -10.18308 -10.18179
 Alpha  occ. eigenvalues --  -10.18015 -10.17757 -10.17717 -10.17617 -10.17554
 Alpha  occ. eigenvalues --  -10.17404 -10.16937 -10.16631 -10.16120  -1.10031
 Alpha  occ. eigenvalues --   -1.09491  -1.02254  -1.01392  -0.98603  -0.97855
 Alpha  occ. eigenvalues --   -0.96643  -0.94677  -0.94198  -0.85244  -0.82970
 Alpha  occ. eigenvalues --   -0.82839  -0.82693  -0.81859  -0.81533  -0.81243
 Alpha  occ. eigenvalues --   -0.81074  -0.80389  -0.78728  -0.78556  -0.77438
 Alpha  occ. eigenvalues --   -0.77022  -0.76474  -0.75161  -0.74959  -0.74576
 Alpha  occ. eigenvalues --   -0.73574  -0.73141  -0.72852  -0.72339  -0.71926
 Alpha  occ. eigenvalues --   -0.70424  -0.69472  -0.68642  -0.68438  -0.67772
 Alpha  occ. eigenvalues --   -0.67432  -0.67029  -0.66308  -0.66145  -0.65548
 Alpha  occ. eigenvalues --   -0.64439  -0.62740  -0.62400  -0.61787  -0.61166
 Alpha  occ. eigenvalues --   -0.60706  -0.60097  -0.59045  -0.58281  -0.57632
 Alpha  occ. eigenvalues --   -0.57515  -0.56809  -0.56413  -0.56005  -0.55936
 Alpha  occ. eigenvalues --   -0.55720  -0.55227  -0.55030  -0.54460  -0.53096
 Alpha  occ. eigenvalues --   -0.52529  -0.52218  -0.51683  -0.51418  -0.50363
 Alpha  occ. eigenvalues --   -0.49908  -0.49547  -0.49057  -0.48772  -0.48298
 Alpha  occ. eigenvalues --   -0.48247  -0.47674  -0.47638  -0.47441  -0.47045
 Alpha  occ. eigenvalues --   -0.46761  -0.46623  -0.46366  -0.46107  -0.45791
 Alpha  occ. eigenvalues --   -0.45571  -0.45454  -0.45262  -0.45080  -0.44708
 Alpha  occ. eigenvalues --   -0.44417  -0.44060  -0.44023  -0.43900  -0.43812
 Alpha  occ. eigenvalues --   -0.43655  -0.43528  -0.43314  -0.42966  -0.42918
 Alpha  occ. eigenvalues --   -0.42528  -0.42435  -0.42377  -0.42126  -0.41762
 Alpha  occ. eigenvalues --   -0.41313  -0.41175  -0.41076  -0.40419  -0.40166
 Alpha  occ. eigenvalues --   -0.39880  -0.39718  -0.39541  -0.39349  -0.39319
 Alpha  occ. eigenvalues --   -0.39107  -0.38894  -0.38582  -0.38468  -0.38369
 Alpha  occ. eigenvalues --   -0.38315  -0.38142  -0.38099  -0.38007  -0.37808
 Alpha  occ. eigenvalues --   -0.37709  -0.37416  -0.37121  -0.37035  -0.36927
 Alpha  occ. eigenvalues --   -0.36782  -0.36713  -0.36420  -0.36279  -0.35826
 Alpha  occ. eigenvalues --   -0.35683  -0.35177  -0.34895  -0.34803  -0.34589
 Alpha  occ. eigenvalues --   -0.34569  -0.34229  -0.34215  -0.34127  -0.33753
 Alpha  occ. eigenvalues --   -0.33509  -0.33333  -0.33111  -0.32799  -0.32227
 Alpha  occ. eigenvalues --   -0.31984  -0.31944  -0.31699  -0.31654  -0.31204
 Alpha  occ. eigenvalues --   -0.31019  -0.30646  -0.30569  -0.29975  -0.29777
 Alpha  occ. eigenvalues --   -0.29576  -0.29564  -0.28655  -0.28453  -0.27723
 Alpha  occ. eigenvalues --   -0.27329  -0.27011  -0.26672  -0.25969  -0.25492
 Alpha  occ. eigenvalues --   -0.25086  -0.24713  -0.24482  -0.24087  -0.20168
 Alpha  occ. eigenvalues --   -0.19023
 Alpha virt. eigenvalues --   -0.10603  -0.07582  -0.04635  -0.02706  -0.00983
 Alpha virt. eigenvalues --   -0.00604   0.00233   0.00774   0.01853   0.03392
 Alpha virt. eigenvalues --    0.03729   0.03847   0.04296   0.04455   0.05051

 Mulliken charges:
               1
     1  C    0.147402
     2  C   -0.051909
     3  C   -0.129004
     4  C   -0.062546
     5  N   -0.160885
     6  C   -0.055887
     7  C    0.096613
     8  C   -0.149850
     9  C   -0.014058
    10  C    0.149388
    11  C   -0.047014
    12  C   -0.050028
    13  C    0.226828
    14  O   -0.215850
    15  O   -0.314469
    16  N   -0.028535
    17  C    0.172155
    18  C   -0.189341
    19  C    0.011457
    20  C    0.131945
    21  C    0.267396
    22  C   -0.027165
    23  C   -0.096528
    24  N   -0.236501
    25  C    0.013309
    26  C   -0.138473
    27  C   -0.105969
    28  C   -0.041774
    29  C    0.118878
    30  C    0.024665
    31  C   -0.001876
    32  N   -0.049221
    33  C    0.084839
    34  C   -0.011781
    35  C   -0.068066
    36  C    0.096446
    37  C   -0.118180
    38  C    0.138781
    39  O   -0.171944
    40  C   -0.048810
    41  C    0.174333
    42  O   -0.299839
    43  O   -0.248346
    44  C    0.125536
    45  C    0.231368
    46  C   -0.092032
    47  C   -0.162917
    48  C    0.111619
    49  C    0.034005
    50  C    0.040879
    51  C    0.144252
    52  C   -0.082077
    53  C    0.090690
    54  C    0.013226
    55  C    0.060993
    56  C    0.034957
    57  C    0.046705
    58  C   -0.051964
    59  C    0.019445
    60  C    0.009873
    61  C    0.052583
    62  C   -0.070202
    63  C    0.046684
    64  C   -0.042334
    65  H   -0.050125
    66  H    0.017242
    67  H    0.010950
    68  H   -0.065551
    69  H    0.002114
    70  H    0.018118
    71  H   -0.022225
    72  H   -0.013197
    73  H    0.040065
    74  H    0.039814
    75  H    0.035202
    76  H    0.045454
    77  H    0.036005
    78  H   -0.049399
    79  H   -0.030876
    80  H    0.028193
    81  H    0.059750
    82  H    0.059256
    83  H    0.015861
    84  H    0.012706
    85  H    0.023390
    86  H    0.030097
    87  H    0.013493
    88  H    0.007486
    89  H    0.024923
    90  H    0.057903
    91  H    0.059997
    92  H    0.050021
    93  H    0.083064
    94  H   -0.021249
    95  H    0.029435
    96  H    0.055805
    97  H    0.050497
    98  H    0.038679
    99  H   -0.001776
   100  H    0.030393
   101  H   -0.014246
   102  H    0.049189
   103  H    0.015721
   104  H    0.042640
   105  H   -0.002210
   106  H   -0.010187
   107  H   -0.049098
   108  H   -0.069286
   109  H   -0.039980
   110  H   -0.013183
   111  H   -0.014150
   112  H    0.015402
   113  H    0.012644
   114  H   -0.027193
   115  H   -0.017922
   116  H   -0.005822
   117  H   -0.019744
   118  H   -0.047143
   119  H   -0.020907
   120  H   -0.076170
   121  H    0.040912
   122  H    0.022240
   123  H    0.030396
   124  H   -0.034645
   125  H   -0.011319
   126  H    0.011185
   127  H   -0.028879
   128  H   -0.001235
   129  H   -0.002436
   130  H    0.007190
   131  H    0.019346
   132  H    0.026152
   133  H   -0.025958
   134  H    0.008847
   135  H    0.016681
   136  H   -0.005086
   137  H    0.074800
   138  H    0.140062
 Sum of Mulliken charges =   0.00000

 Dipole moment (field-independent basis, Debye):
    X=              2.1375    Y=              6.0024    Z=              0.2935  Tot=              6.3784
 Quadrupole moment (field-independent basis, Debye-Ang):
   XX=           -354.4377   YY=           -389.5425   ZZ=           -396.5149
   XY=            -31.1721   XZ=              4.7837   YZ=             -0.0421

 Normal termination of Gaussian 09 at Sat Aug  3 00:12:45 2019.
