 Gaussian 09, Revision D.01,
 Gaussian 09:  ES64L-G09RevD.01 24-Apr-2013

 --------------------------
 # td=(NStates=1) B3LYP/SVP
 --------------------------

 --
 TD
 --
 Symbolic Z-matrix:
 Charge =  0 Multiplicity = 1

                         Standard orientation:
 ---------------------------------------------------------------------
 Center     Atomic      Atomic             Coordinates (Angstroms)
 Number     Number       Type             X           Y           Z
 ---------------------------------------------------------------------
      1          6           0       -5.133735   -1.954887    0.472519
      2          6           0       -4.728468    2.662583    1.458714
      3          6           0       -9.294422    3.361696   -0.316582
      4          6           0       -9.772792   -1.335924   -0.988324
      5          7           0       -5.095403    0.326145    0.852124
      6          6           0       -4.509881   -0.772592    0.859315
      7          6           0       -3.032473   -0.611438    1.407534
      8          6           0       -3.046772    0.799250    1.963067
      9          6           0       -4.406704    1.332993    1.377058
     10          6           0       -3.156571    0.756985    3.498135
     11          6           0       -2.000229   -0.941210    0.374615
     12          6           0       -0.594766   -0.842300    0.741136
     13          6           0        0.377995   -1.181466   -0.523051
     14          8           0        0.073702   -1.433626   -1.629504
     15          8           0        1.663991   -1.031659   -0.059057
     16          7           0       -6.981227    2.763702    0.511550
     17          6           0       -5.812393    3.375195    1.075697
     18          6           0       -6.064748    4.730303    1.064615
     19          6           0       -7.414612    4.963177    0.642196
     20          6           0       -8.018229    3.690878    0.273386
     21          6           0       -5.192443    5.871722    1.615661
     22          6           0       -8.127663    6.253357    0.524681
     23          6           0       -8.841990    6.650673   -0.565972
     24          7           0       -9.224074    1.018380   -0.497058
     25          6           0       -9.855376    2.129966   -0.621160
     26          6           0      -11.232032    2.033336   -0.976548
     27          6           0      -11.385973    0.649964   -1.210392
     28          6           0      -10.145510    0.076284   -0.940737
     29          6           0      -12.130103    3.217442   -1.290447
     30          6           0      -12.630919   -0.099454   -1.856614
     31          6           0      -12.476623   -0.348541   -3.421410
     32          7           0       -7.455298   -1.265607   -0.139330
     33          6           0       -8.631750   -1.957882   -0.536412
     34          6           0       -8.285404   -3.366852   -0.732451
     35          6           0       -6.904739   -3.383441   -0.260365
     36          6           0       -6.467749   -2.087783    0.106309
     37          6           0       -9.120693   -4.469148   -1.143058
     38          6           0       -5.739948   -4.337296   -0.035582
     39          8           0       -5.620786   -5.499541   -0.189702
     40          6           0       -4.522524   -3.269252    0.402144
     41          6           0       -3.953903   -3.919437    1.685878
     42          8           0       -4.168036   -3.492783    2.794884
     43          8           0       -3.082000   -4.993535    1.367420
     44          6           0       -2.720129   -5.634729    2.557834
     45          6           0        2.786199   -1.374030   -0.988789
     46          6           0        4.097401   -0.905989   -0.389231
     47          6           0        4.901488    0.024772   -0.923726
     48          6           0        4.731084    0.673284   -2.254145
     49          6           0        6.183655    0.354473   -0.246392
     50          6           0        7.454921   -0.297979   -0.997078
     51          6           0        8.763659   -0.083069   -0.224564
     52          6           0        9.986786   -0.648506   -0.864435
     53          6           0       10.091212   -2.171922   -0.931415
     54          6           0       11.240517   -0.131953   -0.103098
     55          6           0       12.540309   -0.500322   -0.677347
     56          6           0       13.793682   -0.074060    0.159792
     57          6           0       15.076894   -0.107448   -0.395240
     58          6           0       15.593667   -1.594630   -0.510018
     59          6           0       16.167194    0.670481    0.449536
     60          6           0       17.490769    0.789683   -0.354873
     61          6           0       18.611519    1.608774    0.508450
     62          6           0       20.055240    1.543164    0.044716
     63          6           0       20.274578    2.099343   -1.348665
     64          6           0       20.866055    2.374444    1.047420
     65          1           0       -3.880080    3.362162    1.900878
     66          1           0       -9.934837    4.225998   -0.230981
     67          1           0      -10.431855   -2.027442   -1.565536
     68          1           0       -2.838385   -1.178184    2.360012
     69          1           0       -2.398154    1.378947    1.488955
     70          1           0       -2.151923    0.183684    3.770199
     71          1           0       -3.319699    1.796134    3.827220
     72          1           0       -3.853120    0.198386    3.890800
     73          1           0       -2.286148   -1.915035   -0.121758
     74          1           0       -2.038254   -0.212442   -0.527601
     75          1           0       -0.369453    0.277213    0.935090
     76          1           0       -0.287679   -1.505984    1.760492
     77          1           0       -4.067000    5.854930    1.138377
     78          1           0       -5.687856    6.896377    1.442066
     79          1           0       -4.914592    5.453696    2.701235
     80          1           0       -7.515615    6.922193    1.167583
     81          1           0       -9.083140    5.717355   -1.242307
     82          1           0       -9.331587    7.633830   -0.774736
     83          1           0      -12.640784    3.777989   -0.503977
     84          1           0      -11.848640    3.928411   -1.995253
     85          1           0      -13.089750    2.700253   -1.718909
     86          1           0      -12.766976   -1.164591   -1.390869
     87          1           0      -13.456723    0.498501   -1.800017
     88          1           0      -12.282061    0.542484   -3.912285
     89          1           0      -11.635926   -0.830741   -3.556884
     90          1           0      -13.353644   -0.711440   -3.883627
     91          1           0      -10.171346   -4.557521   -0.535094
     92          1           0       -9.393670   -4.360520   -2.328225
     93          1           0       -8.691343   -5.288373   -0.757972
     94          1           0       -3.773957   -3.485522   -0.386209
     95          1           0       -2.103556   -6.236757    2.139930
     96          1           0       -1.907429   -5.084164    3.115180
     97          1           0       -3.669576   -6.110683    3.027522
     98          1           0        2.629259   -2.360669   -1.265710
     99          1           0        2.521469   -0.781314   -1.820259
    100          1           0        4.307983   -1.182841    0.752836
    101          1           0        4.477346    1.883431   -2.188200
    102          1           0        5.637150    0.594199   -2.942147
    103          1           0        3.809209    0.519212   -2.955756
    104          1           0        6.415106    1.449297   -0.120100
    105          1           0        6.179451   -0.185164    0.862247
    106          1           0        7.224864   -1.375766   -1.145297
    107          1           0        7.388577    0.368146   -2.007215
    108          1           0        8.986480    1.088354    0.222857
    109          1           0        8.672806   -0.554951    0.714412
    110          1           0       10.258122    0.042627   -1.846034
    111          1           0        9.224838   -2.941414   -1.322543
    112          1           0       11.044643   -2.714680   -1.211336
    113          1           0       10.246658   -2.339635    0.240701
    114          1           0       11.315901    0.875571    0.020824
    115          1           0       10.927560   -0.302783    1.043644
    116          1           0       12.667051   -1.591695   -0.982004
    117          1           0       12.493103    0.091681   -1.632207
    118          1           0       13.724818    1.002628    0.662679
    119          1           0       13.720646   -0.840639    1.087690
    120          1           0       15.058304    0.253504   -1.459230
    121          1           0       15.003591   -2.269654   -1.282045
    122          1           0       16.723431   -1.543367   -0.740936
    123          1           0       15.509201   -2.040581    0.285277
    124          1           0       15.765218    1.702407    0.588221
    125          1           0       16.253155    0.061738    1.441025
    126          1           0       17.720241   -0.146022   -0.556415
    127          1           0       17.434049    1.480581   -1.292502
    128          1           0       18.509878    2.824590    0.359625
    129          1           0       18.514991    1.388863    1.590021
    130          1           0       20.406360    0.483025    0.202128
    131          1           0       19.969133    3.254801   -1.274449
    132          1           0       21.396493    2.233823   -1.383508
    133          1           0       19.939555    1.500089   -2.136876
    134          1           0       20.765229    2.154938    2.172142
    135          1           0       22.071955    2.300181    1.034674
    136          1           0       20.582910    3.489662    0.926475
    137          1           0       -6.903688    1.640085    0.364987
    138          1           0       -7.456592   -0.224670    0.101954
 ---------------------------------------------------------------------

 SCF Done:  E(RB3LYP) =  -2732.97689984     A.U. after   17 cycles

 Excitation energies and oscillator strengths:

 Excited State   1:      Singlet-A      2.0832 eV  595.17 nm  f=0.0871  <S**2>=0.000
     235 -> 238       -0.38428
     236 -> 237        0.58266
 This state for optimization and/or second-order correction.
 Total Energy, E(TD-HF/TD-KS) =  -2732.90034496
 Copying the excited state density for this state as the 1-particle RhoCI density.

 The electronic state is 1-A.
 Alpha  occ. eigenvalues --  -19.16903 -19.16153 -19.13514 -19.13295 -19.12860
 Alpha  occ. eigenvalues --  -14.37278 -14.36471 -14.31788 -14.28833 -10.31552
 Alpha  occ. eigenvalues --  -10.31169 -10.28667 -10.23997 -10.23926 -10.23811
 Alpha  occ. eigenvalues --  -10.23170 -10.23168 -10.22701 -10.22675 -10.22663
 Alpha  occ. eigenvalues --  -10.22624 -10.22540 -10.21832 -10.21456 -10.21264
 Alpha  occ. eigenvalues --  -10.21235 -10.21165 -10.21052 -10.21001 -10.20979
 Alpha  occ. eigenvalues --  -10.20872 -10.20827 -10.20815 -10.20708 -10.20697
 Alpha  occ. eigenvalues --  -10.20652 -10.20474 -10.20134 -10.20015 -10.19900
 Alpha  occ. eigenvalues --  -10.19888 -10.19849 -10.19753 -10.19683 -10.19472
 Alpha  occ. eigenvalues --  -10.19409 -10.19404 -10.19318 -10.19267 -10.19254
 Alpha  occ. eigenvalues --  -10.19173 -10.19164 -10.19092 -10.19065 -10.18824
 Alpha  occ. eigenvalues --  -10.18679 -10.18650 -10.18597 -10.18585 -10.18527
 Alpha  occ. eigenvalues --  -10.18494 -10.18046 -10.17116 -10.16098  -1.08581
 Alpha  occ. eigenvalues --   -1.08013  -1.05301  -1.00834  -1.00632  -0.98833
 Alpha  occ. eigenvalues --   -0.97332  -0.95426  -0.94657  -0.84667  -0.83216
 Alpha  occ. eigenvalues --   -0.82503  -0.81899  -0.81482  -0.81367  -0.80965
 Alpha  occ. eigenvalues --   -0.80386  -0.80376  -0.79164  -0.78327  -0.77417
 Alpha  occ. eigenvalues --   -0.76793  -0.75801  -0.75371  -0.74691  -0.74120
 Alpha  occ. eigenvalues --   -0.73351  -0.73123  -0.72971  -0.71265  -0.70781
 Alpha  occ. eigenvalues --   -0.69409  -0.68863  -0.68383  -0.67778  -0.67679
 Alpha  occ. eigenvalues --   -0.67477  -0.67054  -0.66046  -0.65847  -0.65194
 Alpha  occ. eigenvalues --   -0.64677  -0.62843  -0.62516  -0.62024  -0.61435
 Alpha  occ. eigenvalues --   -0.60801  -0.59080  -0.58537  -0.58250  -0.57588
 Alpha  occ. eigenvalues --   -0.56769  -0.55571  -0.55525  -0.54814  -0.54776
 Alpha  occ. eigenvalues --   -0.54606  -0.54026  -0.53733  -0.53081  -0.52655
 Alpha  occ. eigenvalues --   -0.52172  -0.51938  -0.51429  -0.50559  -0.50227
 Alpha  occ. eigenvalues --   -0.49516  -0.49304  -0.48964  -0.48590  -0.48125
 Alpha  occ. eigenvalues --   -0.47953  -0.47775  -0.47628  -0.47479  -0.47058
 Alpha  occ. eigenvalues --   -0.46898  -0.46819  -0.46233  -0.46060  -0.45755
 Alpha  occ. eigenvalues --   -0.45586  -0.45517  -0.45376  -0.45097  -0.44878
 Alpha  occ. eigenvalues --   -0.44463  -0.44254  -0.44099  -0.43869  -0.43590
 Alpha  occ. eigenvalues --   -0.43453  -0.43329  -0.43030  -0.42730  -0.42559
 Alpha  occ. eigenvalues --   -0.42247  -0.42129  -0.42066  -0.41843  -0.41692
 Alpha  occ. eigenvalues --   -0.41278  -0.41210  -0.41200  -0.40538  -0.40206
 Alpha  occ. eigenvalues --   -0.40010  -0.39954  -0.39888  -0.39599  -0.39547
 Alpha  occ. eigenvalues --   -0.39298  -0.39037  -0.38988  -0.38573  -0.38232
 Alpha  occ. eigenvalues --   -0.38045  -0.37967  -0.37862  -0.37684  -0.37531
 Alpha  occ. eigenvalues --   -0.37465  -0.37253  -0.37163  -0.37015  -0.36811
 Alpha  occ. eigenvalues --   -0.36551  -0.36215  -0.35793  -0.35583  -0.35566
 Alpha  occ. eigenvalues --   -0.35488  -0.35364  -0.35067  -0.35049  -0.35025
 Alpha  occ. eigenvalues --   -0.34698  -0.34525  -0.34234  -0.33924  -0.33793
 Alpha  occ. eigenvalues --   -0.33779  -0.33227  -0.33147  -0.32773  -0.32581
 Alpha  occ. eigenvalues --   -0.32351  -0.32064  -0.31936  -0.31652  -0.31377
 Alpha  occ. eigenvalues --   -0.31236  -0.30683  -0.30546  -0.29899  -0.29756
 Alpha  occ. eigenvalues --   -0.29657  -0.28806  -0.28735  -0.28309  -0.28135
 Alpha  occ. eigenvalues --   -0.27981  -0.26713  -0.26542  -0.26174  -0.26074
 Alpha  occ. eigenvalues --   -0.25243  -0.24702  -0.23219  -0.22446  -0.19719
 Alpha  occ. eigenvalues --   -0.19607
 Alpha virt. eigenvalues --   -0.10414  -0.08627  -0.04159  -0.02235  -0.01249
 Alpha virt. eigenvalues --   -0.00367   0.00607   0.01169   0.02823   0.03386
 Alpha virt. eigenvalues --    0.03796   0.04024   0.04206   0.04325   0.04483

 Mulliken charges:
               1
     1  C    0.115607
     2  C   -0.073217
     3  C   -0.076167
     4  C   -0.084942
     5  N   -0.072057
     6  C   -0.134178
     7  C   -0.012701
     8  C    0.017291
     9  C   -0.086629
    10  C    0.150330
    11  C    0.041661
    12  C   -0.053204
    13  C    0.182816
    14  O   -0.187542
    15  O   -0.371259
    16  N   -0.218386
    17  C    0.129153
    18  C   -0.090557
    19  C   -0.042992
    20  C    0.086321
    21  C   -0.001746
    22  C   -0.013614
    23  C   -0.060780
    24  N   -0.178155
    25  C    0.057542
    26  C   -0.135779
    27  C   -0.097485
    28  C    0.051286
    29  C    0.102459
    30  C    0.069268
    31  C    0.112333
    32  N   -0.050202
    33  C    0.106253
    34  C   -0.124219
    35  C   -0.058352
    36  C    0.047180
    37  C    0.068471
    38  C    0.067709
    39  O   -0.113766
    40  C   -0.137380
    41  C    0.212458
    42  O   -0.211571
    43  O   -0.335251
    44  C    0.244440
    45  C    0.351813
    46  C   -0.116040
    47  C   -0.045167
    48  C   -0.051329
    49  C   -0.009213
    50  C   -0.007168
    51  C    0.020674
    52  C   -0.027132
    53  C   -0.042241
    54  C   -0.020360
    55  C    0.082659
    56  C    0.000239
    57  C   -0.076620
    58  C    0.081952
    59  C   -0.014958
    60  C    0.104099
    61  C   -0.043654
    62  C   -0.069679
    63  C    0.053045
    64  C   -0.066152
    65  H   -0.000706
    66  H   -0.009130
    67  H   -0.005319
    68  H    0.005124
    69  H   -0.064515
    70  H    0.026180
    71  H    0.007266
    72  H   -0.018466
    73  H    0.018730
    74  H    0.006117
    75  H    0.042796
    76  H    0.053109
    77  H    0.039395
    78  H    0.055914
    79  H    0.050448
    80  H   -0.000645
    81  H    0.053742
    82  H    0.049288
    83  H    0.012702
    84  H    0.010710
    85  H   -0.001068
    86  H    0.018941
    87  H   -0.024195
    88  H   -0.025402
    89  H   -0.042269
    90  H    0.006701
    91  H    0.042229
    92  H    0.071933
    93  H    0.005023
    94  H    0.067312
    95  H   -0.044048
    96  H    0.012463
    97  H    0.056195
    98  H    0.003332
    99  H   -0.014793
   100  H    0.028246
   101  H    0.033818
   102  H    0.045628
   103  H    0.032165
   104  H    0.017811
   105  H    0.012451
   106  H    0.019312
   107  H    0.026170
   108  H    0.012285
   109  H   -0.029437
   110  H    0.002824
   111  H    0.045315
   112  H    0.027997
   113  H    0.008178
   114  H   -0.040470
   115  H   -0.023455
   116  H    0.007313
   117  H   -0.010385
   118  H   -0.003606
   119  H   -0.000405
   120  H   -0.009590
   121  H    0.020852
   122  H    0.007813
   123  H   -0.080317
   124  H    0.004521
   125  H    0.018042
   126  H   -0.051429
   127  H    0.023422
   128  H   -0.003559
   129  H    0.001840
   130  H   -0.001651
   131  H    0.013579
   132  H    0.008958
   133  H    0.016517
   134  H    0.013859
   135  H    0.019533
   136  H    0.012746
   137  H    0.195878
   138  H    0.166925
 Sum of Mulliken charges =   0.00000

 Dipole moment (field-independent basis, Debye):
    X=              2.3665    Y=              3.3401    Z=             -0.2895  Tot=              4.1036
 Quadrupole moment (field-independent basis, Debye-Ang):
   XX=           -342.6833   YY=           -380.8245   ZZ=           -397.8992
   XY=            -20.9279   XZ=             13.3762   YZ=             -2.0596

 Normal termination of Gaussian 09 at Sat Aug  3 15:26:55 2019.
