 Gaussian 09, Revision D.01,
 Gaussian 09:  ES64L-G09RevD.01 24-Apr-2013

 --------------------------
 # td=(NStates=1) B3LYP/SVP
 --------------------------

 --
 TD
 --
 Symbolic Z-matrix:
 Charge =  0 Multiplicity = 1

                         Standard orientation:
 ---------------------------------------------------------------------
 Center     Atomic      Atomic             Coordinates (Angstroms)
 Number     Number       Type             X           Y           Z
 ---------------------------------------------------------------------
      1          6           0       -5.023100   -1.872616    0.408605
      2          6           0       -4.707931    2.844119    1.447279
      3          6           0       -9.235400    3.308516   -0.141148
      4          6           0       -9.801583   -1.448893   -0.980606
      5          7           0       -5.185628    0.558021    0.813140
      6          6           0       -4.514556   -0.668605    0.829466
      7          6           0       -3.050278   -0.558663    1.230920
      8          6           0       -2.994612    0.935695    1.835943
      9          6           0       -4.402865    1.471955    1.341308
     10          6           0       -3.034819    0.897614    3.439588
     11          6           0       -2.002713   -0.708867   -0.009571
     12          6           0       -0.552909   -0.763170    0.482383
     13          6           0        0.387285   -1.126956   -0.687338
     14          8           0        0.078506   -1.771961   -1.721955
     15          8           0        1.625659   -0.755402   -0.301612
     16          7           0       -6.954675    2.741693    0.538403
     17          6           0       -5.883876    3.415976    1.107764
     18          6           0       -6.259417    4.853948    1.086435
     19          6           0       -7.520417    4.910771    0.454151
     20          6           0       -7.980760    3.611685    0.235319
     21          6           0       -5.437213    5.943871    1.574881
     22          6           0       -8.207277    6.149004    0.297262
     23          6           0       -8.860727    6.662033   -0.854778
     24          7           0       -9.188101    0.865044   -0.484741
     25          6           0       -9.815941    2.044951   -0.447082
     26          6           0      -11.237564    1.856643   -0.876658
     27          6           0      -11.424848    0.555717   -1.119691
     28          6           0      -10.137972   -0.074276   -0.897130
     29          6           0      -12.216410    2.918240   -1.080156
     30          6           0      -12.616644   -0.241479   -1.475171
     31          6           0      -12.963114   -0.369665   -3.039949
     32          7           0       -7.538327   -1.258334   -0.154043
     33          6           0       -8.620936   -2.127658   -0.621163
     34          6           0       -8.067418   -3.341032   -0.676589
     35          6           0       -6.815783   -3.403065   -0.213585
     36          6           0       -6.458836   -2.040554    0.003062
     37          6           0       -8.887943   -4.645309   -1.204872
     38          6           0       -5.638233   -4.339281    0.029015
     39          8           0       -5.658420   -5.490788   -0.245222
     40          6           0       -4.530900   -3.310488    0.455062
     41          6           0       -4.034148   -3.795158    1.748148
     42          8           0       -4.302212   -3.473866    2.810607
     43          8           0       -3.063060   -4.728934    1.511546
     44          6           0       -2.618264   -5.550637    2.701093
     45          6           0        2.703138   -1.100850   -1.211210
     46          6           0        4.024562   -0.513694   -0.494803
     47          6           0        4.975221    0.054978   -1.222460
     48          6           0        4.973355    0.357605   -2.738583
     49          6           0        6.257522    0.374404   -0.485455
     50          6           0        7.554457   -0.363163   -0.986187
     51          6           0        8.729779    0.057788   -0.170449
     52          6           0       10.028338   -0.767719   -0.568989
     53          6           0        9.893859   -2.387573   -0.311233
     54          6           0       11.239172   -0.103625    0.118191
     55          6           0       12.575377   -0.518404   -0.510423
     56          6           0       13.818674    0.158793    0.161255
     57          6           0       15.232934   -0.316533   -0.373218
     58          6           0       15.520755   -1.888157   -0.053495
     59          6           0       16.294457    0.663006    0.424623
     60          6           0       17.667985    0.684497   -0.255355
     61          6           0       18.696401    1.583727    0.466853
     62          6           0       20.181702    1.642782    0.084117
     63          6           0       20.301963    2.081154   -1.398157
     64          6           0       21.061722    2.544471    0.947913
     65          1           0       -4.032983    3.527906    2.032442
     66          1           0      -10.092008    4.139604   -0.209904
     67          1           0      -10.673423   -2.212279   -1.278001
     68          1           0       -2.839738   -1.123066    2.273830
     69          1           0       -2.113815    1.510382    1.556382
     70          1           0       -2.123690    0.470817    3.965376
     71          1           0       -3.386162    1.813312    3.763896
     72          1           0       -4.001997    0.262684    3.643280
     73          1           0       -2.280005   -1.761955   -0.584656
     74          1           0       -2.165739    0.033629   -0.702757
     75          1           0       -0.549096    0.310063    0.867494
     76          1           0       -0.329969   -1.491088    1.343651
     77          1           0       -4.415289    5.984375    1.083579
     78          1           0       -6.020869    7.085664    1.569571
     79          1           0       -5.086832    5.873397    2.507295
     80          1           0       -8.120837    6.979545    1.165201
     81          1           0       -8.898328    6.034274   -1.853985
     82          1           0       -9.351893    7.590355   -0.820162
     83          1           0      -11.933678    3.689880   -0.171545
     84          1           0      -11.880981    3.442161   -1.911977
     85          1           0      -13.294039    2.494184   -1.360933
     86          1           0      -12.401364   -1.298184   -1.188109
     87          1           0      -13.668931    0.292886   -1.072238
     88          1           0      -13.074603    0.712225   -3.360120
     89          1           0      -12.033059   -0.778441   -3.611766
     90          1           0      -13.707541   -0.899770   -3.401671
     91          1           0       -9.681346   -5.031982   -0.250915
     92          1           0       -9.485942   -4.345516   -2.027724
     93          1           0       -8.243049   -5.583132   -1.295647
     94          1           0       -3.826425   -3.377346   -0.460896
     95          1           0       -1.970683   -6.249970    2.334995
     96          1           0       -2.326304   -4.933589    3.409906
     97          1           0       -3.556199   -6.023462    3.226204
     98          1           0        2.786888   -2.062846   -1.393824
     99          1           0        2.331205   -0.817885   -2.176275
    100          1           0        4.156852   -0.713668    0.575435
    101          1           0        5.209559    1.356687   -3.134131
    102          1           0        5.695301   -0.384132   -3.158031
    103          1           0        4.113871    0.068989   -3.263485
    104          1           0        6.392910    1.457727   -0.624083
    105          1           0        5.869593    0.158464    0.496274
    106          1           0        7.246594   -1.282837   -1.080054
    107          1           0        7.743963    0.029623   -1.978404
    108          1           0        8.882471    1.065991   -0.145097
    109          1           0        8.545365   -0.110182    1.069690
    110          1           0        9.976944   -0.452071   -1.547393
    111          1           0        8.933961   -2.708334   -1.013722
    112          1           0       10.644128   -3.033085   -0.551812
    113          1           0        9.780095   -2.443600    0.819187
    114          1           0       11.076294    1.011569   -0.055921
    115          1           0       11.353153   -0.357549    1.153724
    116          1           0       12.522446   -1.600772   -0.690317
    117          1           0       12.632748   -0.107434   -1.487932
    118          1           0       13.653642    1.211391   -0.115747
    119          1           0       13.734818   -0.150222    1.325686
    120          1           0       15.297462   -0.192801   -1.483013
    121          1           0       14.873279   -2.569479   -0.605372
    122          1           0       16.503483   -2.380242   -0.519756
    123          1           0       15.513247   -2.059424    1.069088
    124          1           0       15.910004    1.716940    0.437347
    125          1           0       16.493698    0.479717    1.473929
    126          1           0       17.890150   -0.463714   -0.111118
    127          1           0       17.476395    0.933915   -1.338100
    128          1           0       18.468949    2.562232    0.357474
    129          1           0       18.667436    1.692151    1.763197
    130          1           0       20.358433    0.569456    0.275966
    131          1           0       19.775837    3.019572   -1.495336
    132          1           0       21.370104    2.276140   -1.619217
    133          1           0       19.622105    1.466600   -2.228384
    134          1           0       21.152856    2.121433    1.847067
    135          1           0       22.116577    2.345706    0.684997
    136          1           0       20.741954    3.587314    0.733956
    137          1           0       -6.962652    1.736948    0.511465
    138          1           0       -7.741464   -0.120346   -0.205073
 ---------------------------------------------------------------------

 SCF Done:  E(RB3LYP) =  -2733.00628834     A.U. after   17 cycles

 Excitation energies and oscillator strengths:

 Excited State   1:      Singlet-A      2.1475 eV  577.34 nm  f=0.1861  <S**2>=0.000
     235 -> 237       -0.11005
     235 -> 238       -0.25754
     236 -> 237        0.63954
 This state for optimization and/or second-order correction.
 Total Energy, E(TD-HF/TD-KS) =  -2732.92736878
 Copying the excited state density for this state as the 1-particle RhoCI density.

 The electronic state is 1-A.
 Alpha  occ. eigenvalues --  -19.18194 -19.15544 -19.13158 -19.12978 -19.12333
 Alpha  occ. eigenvalues --  -14.36491 -14.35424 -14.32779 -14.30953 -10.32166
 Alpha  occ. eigenvalues --  -10.30428 -10.28576 -10.24078 -10.23955 -10.23654
 Alpha  occ. eigenvalues --  -10.23571 -10.23247 -10.23058 -10.22791 -10.22235
 Alpha  occ. eigenvalues --  -10.21923 -10.21892 -10.21858 -10.21835 -10.21609
 Alpha  occ. eigenvalues --  -10.21252 -10.21212 -10.21159 -10.21146 -10.21026
 Alpha  occ. eigenvalues --  -10.20992 -10.20859 -10.20854 -10.20616 -10.20546
 Alpha  occ. eigenvalues --  -10.20493 -10.20461 -10.20322 -10.20191 -10.20014
 Alpha  occ. eigenvalues --  -10.19727 -10.19723 -10.19623 -10.19531 -10.19489
 Alpha  occ. eigenvalues --  -10.19463 -10.19291 -10.19224 -10.19191 -10.19158
 Alpha  occ. eigenvalues --  -10.19048 -10.18536 -10.18497 -10.18351 -10.18335
 Alpha  occ. eigenvalues --  -10.18335 -10.18332 -10.18274 -10.18050 -10.17995
 Alpha  occ. eigenvalues --  -10.17824 -10.17320 -10.17169 -10.17152  -1.10121
 Alpha  occ. eigenvalues --   -1.08619  -1.04926  -1.00034  -0.99152  -0.98201
 Alpha  occ. eigenvalues --   -0.96399  -0.94230  -0.93723  -0.83992  -0.82791
 Alpha  occ. eigenvalues --   -0.82612  -0.81396  -0.80955  -0.80655  -0.79965
 Alpha  occ. eigenvalues --   -0.79834  -0.78971  -0.78703  -0.78614  -0.76982
 Alpha  occ. eigenvalues --   -0.76565  -0.75941  -0.75309  -0.74496  -0.74112
 Alpha  occ. eigenvalues --   -0.73301  -0.72917  -0.72200  -0.71322  -0.70988
 Alpha  occ. eigenvalues --   -0.69736  -0.69448  -0.68251  -0.67879  -0.67831
 Alpha  occ. eigenvalues --   -0.66869  -0.66672  -0.66111  -0.65447  -0.65217
 Alpha  occ. eigenvalues --   -0.63931  -0.62888  -0.62410  -0.62037  -0.61248
 Alpha  occ. eigenvalues --   -0.61098  -0.59436  -0.58306  -0.57862  -0.57420
 Alpha  occ. eigenvalues --   -0.57107  -0.56712  -0.56305  -0.56241  -0.55291
 Alpha  occ. eigenvalues --   -0.55006  -0.54528  -0.53721  -0.53246  -0.52755
 Alpha  occ. eigenvalues --   -0.52330  -0.51948  -0.51436  -0.50862  -0.50276
 Alpha  occ. eigenvalues --   -0.49555  -0.49140  -0.48867  -0.48327  -0.48118
 Alpha  occ. eigenvalues --   -0.47757  -0.47480  -0.47195  -0.47088  -0.46870
 Alpha  occ. eigenvalues --   -0.46371  -0.46298  -0.45837  -0.45787  -0.45583
 Alpha  occ. eigenvalues --   -0.45524  -0.45353  -0.44867  -0.44683  -0.44477
 Alpha  occ. eigenvalues --   -0.44188  -0.44093  -0.43911  -0.43833  -0.43739
 Alpha  occ. eigenvalues --   -0.43478  -0.43240  -0.42875  -0.42684  -0.42580
 Alpha  occ. eigenvalues --   -0.42572  -0.42012  -0.41891  -0.41759  -0.41521
 Alpha  occ. eigenvalues --   -0.41482  -0.41125  -0.40804  -0.40662  -0.40392
 Alpha  occ. eigenvalues --   -0.40065  -0.39856  -0.39710  -0.39587  -0.39521
 Alpha  occ. eigenvalues --   -0.39167  -0.38975  -0.38551  -0.38417  -0.38316
 Alpha  occ. eigenvalues --   -0.38257  -0.38062  -0.37845  -0.37749  -0.37389
 Alpha  occ. eigenvalues --   -0.37317  -0.36767  -0.36644  -0.36573  -0.36362
 Alpha  occ. eigenvalues --   -0.36137  -0.36064  -0.35675  -0.35511  -0.35447
 Alpha  occ. eigenvalues --   -0.35391  -0.35271  -0.35061  -0.34803  -0.34693
 Alpha  occ. eigenvalues --   -0.34621  -0.34208  -0.34157  -0.33827  -0.33691
 Alpha  occ. eigenvalues --   -0.33501  -0.33449  -0.32979  -0.32908  -0.32685
 Alpha  occ. eigenvalues --   -0.31813  -0.31749  -0.31470  -0.31443  -0.31234
 Alpha  occ. eigenvalues --   -0.30607  -0.30434  -0.30330  -0.29888  -0.29762
 Alpha  occ. eigenvalues --   -0.29665  -0.28870  -0.28438  -0.28291  -0.27903
 Alpha  occ. eigenvalues --   -0.27870  -0.27715  -0.27220  -0.26574  -0.25512
 Alpha  occ. eigenvalues --   -0.25336  -0.24982  -0.23926  -0.22990  -0.20155
 Alpha  occ. eigenvalues --   -0.19133
 Alpha virt. eigenvalues --   -0.10177  -0.07366  -0.04209  -0.02505  -0.01073
 Alpha virt. eigenvalues --    0.00009   0.01051   0.01644   0.02555   0.03177
 Alpha virt. eigenvalues --    0.03334   0.04024   0.04671   0.04748   0.04813

 Mulliken charges:
               1
     1  C    0.030982
     2  C   -0.080910
     3  C   -0.174976
     4  C   -0.092903
     5  N   -0.160994
     6  C   -0.062584
     7  C   -0.065527
     8  C   -0.105369
     9  C    0.002833
    10  C    0.049188
    11  C    0.042337
    12  C   -0.001564
    13  C    0.212677
    14  O   -0.273897
    15  O   -0.307301
    16  N   -0.074745
    17  C    0.103510
    18  C   -0.092356
    19  C    0.055557
    20  C    0.212802
    21  C    0.089362
    22  C   -0.148084
    23  C   -0.042486
    24  N   -0.244242
    25  C    0.032136
    26  C   -0.169507
    27  C   -0.004966
    28  C    0.057070
    29  C    0.087326
    30  C   -0.012722
    31  C    0.019611
    32  N   -0.168479
    33  C    0.077746
    34  C   -0.150129
    35  C   -0.031437
    36  C    0.054407
    37  C    0.020218
    38  C    0.079179
    39  O   -0.115885
    40  C   -0.054441
    41  C    0.194089
    42  O   -0.145123
    43  O   -0.369409
    44  C    0.261726
    45  C    0.309097
    46  C   -0.073813
    47  C   -0.170898
    48  C    0.108532
    49  C    0.086750
    50  C    0.118360
    51  C    0.006813
    52  C   -0.019770
    53  C    0.009818
    54  C    0.039616
    55  C    0.039823
    56  C    0.011613
    57  C   -0.059705
    58  C   -0.026559
    59  C    0.005434
    60  C    0.041587
    61  C    0.013136
    62  C   -0.111834
    63  C    0.003295
    64  C    0.116111
    65  H   -0.013127
    66  H    0.014750
    67  H    0.018323
    68  H    0.044832
    69  H    0.005223
    70  H    0.046028
    71  H   -0.015491
    72  H    0.029230
    73  H    0.043401
    74  H   -0.004253
    75  H    0.034333
    76  H    0.058750
    77  H    0.025016
    78  H    0.042879
    79  H   -0.017626
    80  H    0.043984
    81  H    0.054079
    82  H    0.019417
    83  H    0.042475
    84  H    0.006479
    85  H    0.040182
    86  H    0.014144
    87  H    0.032205
    88  H    0.005391
    89  H    0.010779
    90  H   -0.011647
    91  H    0.034675
    92  H    0.023453
    93  H    0.055711
    94  H    0.090093
    95  H    0.024346
    96  H   -0.012021
    97  H    0.030969
    98  H   -0.023172
    99  H    0.005161
   100  H    0.009336
   101  H    0.028752
   102  H    0.014996
   103  H   -0.026331
   104  H   -0.007345
   105  H   -0.019070
   106  H   -0.039107
   107  H   -0.009083
   108  H   -0.032795
   109  H   -0.013553
   110  H   -0.044415
   111  H    0.031604
   112  H    0.004502
   113  H    0.026266
   114  H   -0.008990
   115  H   -0.014494
   116  H   -0.012095
   117  H   -0.039157
   118  H    0.008905
   119  H    0.016079
   120  H    0.000061
   121  H    0.009621
   122  H    0.020448
   123  H    0.029434
   124  H   -0.013270
   125  H   -0.006204
   126  H    0.009731
   127  H    0.011796
   128  H   -0.059678
   129  H   -0.010639
   130  H   -0.009609
   131  H   -0.013530
   132  H    0.015286
   133  H    0.028591
   134  H   -0.033866
   135  H   -0.005554
   136  H    0.024653
   137  H    0.128571
   138  H    0.221054
 Sum of Mulliken charges =   0.00000

 Dipole moment (field-independent basis, Debye):
    X=              3.1637    Y=              5.1126    Z=              0.4984  Tot=              6.0330
 Quadrupole moment (field-independent basis, Debye-Ang):
   XX=           -369.0251   YY=           -380.4058   ZZ=           -390.8045
   XY=            -30.2683   XZ=              3.4642   YZ=             -2.7987

 Normal termination of Gaussian 09 at Fri Aug  2 05:22:30 2019.
