 Gaussian 09, Revision D.01,
 Gaussian 09:  ES64L-G09RevD.01 24-Apr-2013

 --------------------------
 # td=(NStates=1) B3LYP/SVP
 --------------------------

 --
 TD
 --
 Symbolic Z-matrix:
 Charge =  0 Multiplicity = 1

                         Standard orientation:
 ---------------------------------------------------------------------
 Center     Atomic      Atomic             Coordinates (Angstroms)
 Number     Number       Type             X           Y           Z
 ---------------------------------------------------------------------
      1          6           0       -5.176245   -1.966432    0.324470
      2          6           0       -4.621083    2.699416    1.443736
      3          6           0       -9.151696    3.471656   -0.356766
      4          6           0       -9.904254   -1.319335   -0.945294
      5          7           0       -5.270340    0.470883    0.662145
      6          6           0       -4.550826   -0.747547    0.674562
      7          6           0       -3.109055   -0.649753    1.225595
      8          6           0       -3.014964    0.812223    1.860946
      9          6           0       -4.286290    1.292281    1.226745
     10          6           0       -2.964303    0.817730    3.305121
     11          6           0       -1.980552   -1.028754    0.145631
     12          6           0       -0.539310   -0.905656    0.794030
     13          6           0        0.439820   -1.264599   -0.235218
     14          8           0        0.111002   -1.767208   -1.348057
     15          8           0        1.704405   -1.012235    0.018337
     16          7           0       -6.946688    2.814596    0.524786
     17          6           0       -5.748182    3.319030    1.146699
     18          6           0       -6.083752    4.757606    1.198215
     19          6           0       -7.350658    5.034303    0.603105
     20          6           0       -7.949039    3.703034    0.239897
     21          6           0       -5.234665    5.729973    1.854061
     22          6           0       -8.067663    6.274802    0.547705
     23          6           0       -8.796433    6.638078   -0.539920
     24          7           0       -9.148210    0.994520   -0.601148
     25          6           0       -9.743469    2.209703   -0.698243
     26          6           0      -11.194156    2.114464   -1.123204
     27          6           0      -11.358197    0.726913   -1.373608
     28          6           0      -10.110569    0.076540   -0.972123
     29          6           0      -12.106546    3.286676   -1.161630
     30          6           0      -12.577789   -0.030365   -1.883548
     31          6           0      -12.568880   -0.393321   -3.345779
     32          7           0       -7.520581   -1.217300   -0.296064
     33          6           0       -8.632645   -2.012818   -0.643046
     34          6           0       -8.281864   -3.377869   -0.692699
     35          6           0       -6.984933   -3.455090   -0.358558
     36          6           0       -6.545965   -2.064498   -0.124153
     37          6           0       -9.142245   -4.518843   -1.098714
     38          6           0       -5.857378   -4.351537   -0.061950
     39          8           0       -5.781402   -5.572753   -0.116944
     40          6           0       -4.645754   -3.354102    0.431220
     41          6           0       -4.004916   -3.739571    1.746448
     42          8           0       -4.345051   -3.249115    2.843928
     43          8           0       -3.297313   -4.842596    1.522496
     44          6           0       -2.892154   -5.451718    2.841651
     45          6           0        2.723961   -1.097268   -1.019005
     46          6           0        4.164820   -0.708290   -0.471516
     47          6           0        5.018398    0.002505   -1.140124
     48          6           0        4.923738    0.424578   -2.579694
     49          6           0        6.335013    0.268389   -0.343099
     50          6           0        7.567624   -0.569422   -0.919846
     51          6           0        8.751982   -0.168718   -0.011601
     52          6           0       10.087525   -0.766294   -0.718013
     53          6           0        9.956351   -2.314852   -0.797148
     54          6           0       11.295368   -0.269162    0.309200
     55          6           0       12.638138   -0.664197   -0.411177
     56          6           0       13.789649    0.069879    0.239181
     57          6           0       15.198509   -0.057798   -0.458499
     58          6           0       15.574612   -1.667397   -0.294152
     59          6           0       16.211790    0.697198    0.342541
     60          6           0       17.620420    0.731903   -0.283036
     61          6           0       18.457886    1.805973    0.360694
     62          6           0       20.010926    1.653629   -0.026836
     63          6           0       20.259881    1.996511   -1.518551
     64          6           0       20.869023    2.534392    0.893645
     65          1           0       -3.995551    3.180940    2.162814
     66          1           0       -9.804747    4.350617   -0.493404
     67          1           0      -10.847976   -2.106221   -1.045933
     68          1           0       -3.061020   -1.547861    2.152142
     69          1           0       -2.117568    1.303989    1.430037
     70          1           0       -2.078803    0.257176    3.779856
     71          1           0       -2.834642    1.932145    3.719166
     72          1           0       -3.809053    0.272394    3.770761
     73          1           0       -2.261441   -2.142711   -0.264917
     74          1           0       -2.180537   -0.207498   -0.708085
     75          1           0       -0.306426    0.065425    1.219487
     76          1           0       -0.364792   -1.673175    1.760292
     77          1           0       -4.135098    5.823417    1.405438
     78          1           0       -5.621297    6.724435    1.649756
     79          1           0       -4.886188    5.303740    2.775249
     80          1           0       -8.098221    6.937345    1.445586
     81          1           0       -8.723271    6.017681   -1.516489
     82          1           0       -9.309951    7.677979   -0.332314
     83          1           0      -12.294415    3.859129   -0.302137
     84          1           0      -11.907550    3.867480   -2.174020
     85          1           0      -13.099153    2.906561   -1.468040
     86          1           0      -12.831754   -0.882047   -1.342573
     87          1           0      -13.391399    0.593280   -1.746634
     88          1           0      -12.535022    0.570080   -3.899541
     89          1           0      -11.630530   -1.000757   -3.621268
     90          1           0      -13.451582   -1.086584   -3.409101
     91          1           0       -9.910676   -4.595217   -0.197502
     92          1           0       -9.751868   -4.376242   -2.053244
     93          1           0       -8.369725   -5.394543   -1.100480
     94          1           0       -3.995814   -3.715650   -0.422787
     95          1           0       -2.131629   -6.365997    2.449477
     96          1           0       -2.516609   -4.587490    3.401879
     97          1           0       -3.789808   -5.766956    3.345384
     98          1           0        2.769512   -2.028229   -1.450442
     99          1           0        2.547228   -0.355228   -1.703944
    100          1           0        4.386411   -0.841558    0.755541
    101          1           0        5.757957    1.488595   -2.878385
    102          1           0        5.334118   -0.412487   -3.370190
    103          1           0        3.751997    0.686537   -2.879148
    104          1           0        6.354813    1.347802   -0.542642
    105          1           0        6.205686    0.328703    0.896170
    106          1           0        7.356838   -1.599344   -0.858102
    107          1           0        7.489988   -0.212662   -1.909019
    108          1           0        8.907792    1.024315    0.053918
    109          1           0        8.817821   -0.558268    1.064099
    110          1           0       10.303075   -0.305368   -1.590236
    111          1           0        9.098478   -2.775426   -1.178184
    112          1           0       10.847614   -2.454997   -1.583396
    113          1           0       10.101692   -2.672247    0.244385
    114          1           0       11.020027    0.855407    0.366307
    115          1           0       11.231510   -0.655899    1.363730
    116          1           0       12.593586   -1.787380   -0.525345
    117          1           0       12.581768   -0.493432   -1.656269
    118          1           0       13.389022    1.174534   -0.042929
    119          1           0       14.004382   -0.191789    1.259263
    120          1           0       15.066436    0.278919   -1.506596
    121          1           0       14.827651   -2.322146   -0.702166
    122          1           0       16.534655   -1.678771   -0.782319
    123          1           0       15.583093   -1.897764    0.878285
    124          1           0       15.781132    1.741880    0.614667
    125          1           0       16.335612    0.348873    1.344459
    126          1           0       18.254943   -0.141442   -0.191286
    127          1           0       17.453180    1.070472   -1.341696
    128          1           0       18.124163    2.939985    0.005190
    129          1           0       18.454653    2.091801    1.574521
    130          1           0       20.264656    0.632171    0.272856
    131          1           0       20.101617    3.151601   -1.857861
    132          1           0       21.172310    1.626493   -2.187697
    133          1           0       19.435397    1.212509   -2.045318
    134          1           0       20.972260    2.321895    1.898445
    135          1           0       21.873064    2.295922    0.746494
    136          1           0       20.555522    3.732696    0.668900
    137          1           0       -7.161324    1.803823    0.402891
    138          1           0       -7.682637   -0.258071   -0.271986
 ---------------------------------------------------------------------

 SCF Done:  E(RB3LYP) =  -2732.99305584     A.U. after   17 cycles

 Excitation energies and oscillator strengths:

 Excited State   1:      Singlet-A      2.0568 eV  602.80 nm  f=0.1504  <S**2>=0.000
     235 -> 238        0.30243
     236 -> 237        0.63584
 This state for optimization and/or second-order correction.
 Total Energy, E(TD-HF/TD-KS) =  -2732.91746979
 Copying the excited state density for this state as the 1-particle RhoCI density.

 The electronic state is 1-A.
 Alpha  occ. eigenvalues --  -19.18706 -19.17942 -19.12518 -19.12467 -19.10553
 Alpha  occ. eigenvalues --  -14.36943 -14.35880 -14.33911 -14.30112 -10.31752
 Alpha  occ. eigenvalues --  -10.31212 -10.28476 -10.26034 -10.24557 -10.24503
 Alpha  occ. eigenvalues --  -10.23993 -10.23710 -10.23475 -10.23437 -10.23173
 Alpha  occ. eigenvalues --  -10.22949 -10.22417 -10.22359 -10.22116 -10.21595
 Alpha  occ. eigenvalues --  -10.21579 -10.21277 -10.21085 -10.20972 -10.20940
 Alpha  occ. eigenvalues --  -10.20811 -10.20704 -10.20509 -10.20397 -10.20384
 Alpha  occ. eigenvalues --  -10.20367 -10.20238 -10.20209 -10.20160 -10.19944
 Alpha  occ. eigenvalues --  -10.19936 -10.19928 -10.19925 -10.19883 -10.19825
 Alpha  occ. eigenvalues --  -10.19780 -10.19475 -10.19449 -10.19211 -10.19134
 Alpha  occ. eigenvalues --  -10.19111 -10.18908 -10.18854 -10.18837 -10.18781
 Alpha  occ. eigenvalues --  -10.18707 -10.18679 -10.18676 -10.18595 -10.18565
 Alpha  occ. eigenvalues --  -10.18527 -10.18074 -10.17524 -10.17524  -1.09255
 Alpha  occ. eigenvalues --   -1.09059  -1.02090  -0.99483  -0.99260  -0.97276
 Alpha  occ. eigenvalues --   -0.95695  -0.93011  -0.92388  -0.83794  -0.82405
 Alpha  occ. eigenvalues --   -0.81815  -0.81405  -0.81172  -0.80732  -0.80616
 Alpha  occ. eigenvalues --   -0.79946  -0.79239  -0.78858  -0.78395  -0.77687
 Alpha  occ. eigenvalues --   -0.76261  -0.75774  -0.75101  -0.74634  -0.74340
 Alpha  occ. eigenvalues --   -0.73008  -0.72711  -0.71897  -0.71046  -0.69825
 Alpha  occ. eigenvalues --   -0.69713  -0.68942  -0.68187  -0.67147  -0.66920
 Alpha  occ. eigenvalues --   -0.66607  -0.66120  -0.65741  -0.65445  -0.64387
 Alpha  occ. eigenvalues --   -0.63710  -0.62737  -0.62264  -0.60932  -0.60784
 Alpha  occ. eigenvalues --   -0.60138  -0.58948  -0.58400  -0.57383  -0.56905
 Alpha  occ. eigenvalues --   -0.56728  -0.56358  -0.56033  -0.55283  -0.55205
 Alpha  occ. eigenvalues --   -0.54357  -0.54287  -0.54161  -0.52923  -0.52588
 Alpha  occ. eigenvalues --   -0.52021  -0.51568  -0.51063  -0.50590  -0.50027
 Alpha  occ. eigenvalues --   -0.49801  -0.49204  -0.48760  -0.48378  -0.47801
 Alpha  occ. eigenvalues --   -0.47667  -0.47320  -0.47120  -0.46682  -0.46575
 Alpha  occ. eigenvalues --   -0.46484  -0.45850  -0.45820  -0.45657  -0.45346
 Alpha  occ. eigenvalues --   -0.45140  -0.44883  -0.44704  -0.44424  -0.44171
 Alpha  occ. eigenvalues --   -0.43898  -0.43743  -0.43528  -0.43188  -0.43077
 Alpha  occ. eigenvalues --   -0.42995  -0.42831  -0.42733  -0.42591  -0.42421
 Alpha  occ. eigenvalues --   -0.42229  -0.41789  -0.41234  -0.41019  -0.40959
 Alpha  occ. eigenvalues --   -0.40655  -0.40268  -0.40191  -0.40065  -0.39961
 Alpha  occ. eigenvalues --   -0.39527  -0.39457  -0.39330  -0.39230  -0.38877
 Alpha  occ. eigenvalues --   -0.38647  -0.38549  -0.38434  -0.38284  -0.37903
 Alpha  occ. eigenvalues --   -0.37537  -0.37480  -0.37389  -0.37235  -0.37212
 Alpha  occ. eigenvalues --   -0.37118  -0.36927  -0.36779  -0.36662  -0.36639
 Alpha  occ. eigenvalues --   -0.36249  -0.36090  -0.35939  -0.35859  -0.35750
 Alpha  occ. eigenvalues --   -0.35543  -0.35485  -0.35449  -0.35223  -0.34986
 Alpha  occ. eigenvalues --   -0.34727  -0.34299  -0.34290  -0.33798  -0.33708
 Alpha  occ. eigenvalues --   -0.33568  -0.32869  -0.32791  -0.32532  -0.32174
 Alpha  occ. eigenvalues --   -0.31863  -0.31549  -0.31409  -0.30979  -0.30866
 Alpha  occ. eigenvalues --   -0.30151  -0.30087  -0.29706  -0.29579  -0.29521
 Alpha  occ. eigenvalues --   -0.29191  -0.28863  -0.28453  -0.27947  -0.27365
 Alpha  occ. eigenvalues --   -0.27022  -0.26748  -0.26714  -0.26204  -0.25752
 Alpha  occ. eigenvalues --   -0.25055  -0.24782  -0.22952  -0.22337  -0.19646
 Alpha  occ. eigenvalues --   -0.18471
 Alpha virt. eigenvalues --   -0.09699  -0.07663  -0.04259  -0.02256  -0.01151
 Alpha virt. eigenvalues --   -0.00840   0.00028   0.00184   0.01383   0.02220
 Alpha virt. eigenvalues --    0.03484   0.03954   0.04037   0.04294   0.04728

 Mulliken charges:
               1
     1  C    0.052894
     2  C   -0.089326
     3  C   -0.095876
     4  C   -0.102157
     5  N   -0.206670
     6  C    0.007396
     7  C   -0.191398
     8  C    0.046429
     9  C   -0.014431
    10  C    0.027285
    11  C   -0.000937
    12  C    0.013566
    13  C    0.185782
    14  O   -0.303370
    15  O   -0.303186
    16  N   -0.136842
    17  C    0.215563
    18  C   -0.140922
    19  C    0.019448
    20  C    0.119535
    21  C    0.114698
    22  C   -0.104085
    23  C   -0.062209
    24  N   -0.249627
    25  C    0.045398
    26  C   -0.170182
    27  C   -0.096712
    28  C    0.079382
    29  C    0.119356
    30  C    0.142261
    31  C   -0.007454
    32  N    0.070043
    33  C   -0.002740
    34  C   -0.156205
    35  C    0.014022
    36  C    0.009836
    37  C    0.022855
    38  C    0.067200
    39  O   -0.172646
    40  C   -0.079545
    41  C    0.219608
    42  O   -0.279826
    43  O   -0.292592
    44  C    0.157480
    45  C    0.390207
    46  C   -0.158397
    47  C   -0.115614
    48  C   -0.103297
    49  C   -0.027825
    50  C    0.130089
    51  C   -0.029137
    52  C   -0.086397
    53  C    0.025008
    54  C   -0.007855
    55  C   -0.048688
    56  C    0.055933
    57  C   -0.086703
    58  C    0.003100
    59  C    0.045930
    60  C    0.098575
    61  C   -0.113560
    62  C   -0.066839
    63  C   -0.074959
    64  C    0.061729
    65  H   -0.041481
    66  H   -0.010778
    67  H    0.033482
    68  H    0.067524
    69  H    0.002306
    70  H    0.019457
    71  H    0.026252
    72  H    0.039038
    73  H    0.071334
    74  H    0.041072
    75  H    0.026848
    76  H    0.062331
    77  H    0.010645
    78  H    0.019655
    79  H    0.014398
    80  H    0.024685
    81  H    0.063090
    82  H    0.042418
    83  H    0.032120
    84  H    0.029405
    85  H   -0.014042
    86  H   -0.028061
    87  H   -0.040261
    88  H    0.020457
    89  H    0.019681
    90  H    0.019011
    91  H    0.046690
    92  H    0.047523
    93  H    0.065662
    94  H    0.067324
    95  H    0.078737
    96  H    0.043852
    97  H    0.043696
    98  H    0.013854
    99  H   -0.027816
   100  H    0.035561
   101  H    0.043815
   102  H    0.070866
   103  H    0.067750
   104  H    0.000232
   105  H    0.017465
   106  H    0.000107
   107  H   -0.012450
   108  H    0.013152
   109  H    0.016189
   110  H   -0.028805
   111  H    0.007710
   112  H    0.027648
   113  H    0.017744
   114  H    0.006842
   115  H    0.011025
   116  H    0.004997
   117  H   -0.000499
   118  H    0.016670
   119  H   -0.005797
   120  H   -0.003904
   121  H    0.012166
   122  H    0.015590
   123  H    0.018525
   124  H   -0.004197
   125  H   -0.027494
   126  H    0.009560
   127  H    0.020321
   128  H    0.001077
   129  H    0.018834
   130  H   -0.003437
   131  H    0.042266
   132  H    0.030762
   133  H    0.013102
   134  H   -0.023096
   135  H   -0.023801
   136  H    0.025621
   137  H    0.157587
   138  H    0.097790
 Sum of Mulliken charges =   0.00000

 Dipole moment (field-independent basis, Debye):
    X=              3.0744    Y=              3.4862    Z=              1.7859  Tot=              4.9795
 Quadrupole moment (field-independent basis, Debye-Ang):
   XX=           -357.6277   YY=           -390.5332   ZZ=           -391.3891
   XY=            -30.8604   XZ=              3.4080   YZ=             -3.3006

 Normal termination of Gaussian 09 at Sun Aug  4 10:46:33 2019.
