 Gaussian 09, Revision D.01,
 Gaussian 09:  ES64L-G09RevD.01 24-Apr-2013

 --------------------------
 # td=(NStates=1) B3LYP/SVP
 --------------------------

 --
 TD
 --
 Symbolic Z-matrix:
 Charge =  0 Multiplicity = 1

                         Standard orientation:
 ---------------------------------------------------------------------
 Center     Atomic      Atomic             Coordinates (Angstroms)
 Number     Number       Type             X           Y           Z
 ---------------------------------------------------------------------
      1          6           0       -5.142743   -1.868525    0.441538
      2          6           0       -4.874310    2.844999    1.258634
      3          6           0       -9.406212    3.238138   -0.374380
      4          6           0       -9.802147   -1.544815   -0.970295
      5          7           0       -5.296699    0.490231    0.821205
      6          6           0       -4.541826   -0.689670    0.787092
      7          6           0       -3.021132   -0.599813    1.269402
      8          6           0       -3.121805    0.884459    1.807809
      9          6           0       -4.413548    1.479235    1.217769
     10          6           0       -3.021984    1.102748    3.300151
     11          6           0       -2.067095   -0.740608    0.102761
     12          6           0       -0.621541   -0.540833    0.564423
     13          6           0        0.373804   -0.950791   -0.536019
     14          8           0        0.047741   -1.270040   -1.653199
     15          8           0        1.591384   -1.060275   -0.042039
     16          7           0       -7.258391    2.760001    0.470065
     17          6           0       -6.060565    3.364571    1.031055
     18          6           0       -6.460102    4.857789    1.165777
     19          6           0       -7.734509    4.962623    0.489208
     20          6           0       -8.178177    3.576113    0.227596
     21          6           0       -5.567914    5.837261    1.604467
     22          6           0       -8.442602    6.240860    0.246953
     23          6           0       -9.213846    6.522193   -0.721014
     24          7           0       -9.236145    0.840529   -0.474268
     25          6           0      -10.023070    1.997219   -0.547367
     26          6           0      -11.292003    1.787091   -1.053091
     27          6           0      -11.385667    0.411150   -1.205651
     28          6           0      -10.042008   -0.138184   -0.859305
     29          6           0      -12.318916    2.907733   -1.217579
     30          6           0      -12.570522   -0.355265   -1.667888
     31          6           0      -12.462745   -0.786605   -3.175749
     32          7           0       -7.459922   -1.291169   -0.320383
     33          6           0       -8.590261   -2.071720   -0.626846
     34          6           0       -8.186107   -3.481550   -0.576422
     35          6           0       -6.874086   -3.454638   -0.212943
     36          6           0       -6.471701   -2.092846    0.006372
     37          6           0       -9.086023   -4.687281   -0.891205
     38          6           0       -5.728739   -4.217894    0.016843
     39          8           0       -5.725038   -5.457957    0.150619
     40          6           0       -4.438153   -3.268555    0.463916
     41          6           0       -3.766225   -3.741552    1.685816
     42          8           0       -4.160261   -3.287192    2.741985
     43          8           0       -2.786319   -4.619263    1.373172
     44          6           0       -2.102707   -5.289295    2.500852
     45          6           0        2.775728   -1.445920   -1.061111
     46          6           0        4.030422   -0.855015   -0.488568
     47          6           0        4.905200    0.081348   -0.945876
     48          6           0        4.976653    0.646553   -2.331227
     49          6           0        6.182956    0.233599   -0.107410
     50          6           0        7.594404   -0.179660   -0.853561
     51          6           0        8.798400   -0.029145    0.095082
     52          6           0       10.117192   -0.579980   -0.631187
     53          6           0        9.999609   -2.094179   -0.932842
     54          6           0       11.245815   -0.133643    0.277687
     55          6           0       12.601153   -0.415395   -0.384792
     56          6           0       13.772633    0.163484    0.356984
     57          6           0       15.207896   -0.187026   -0.442179
     58          6           0       15.625440   -1.687666   -0.525966
     59          6           0       16.319309    0.648530    0.309620
     60          6           0       17.767094    0.652608   -0.255101
     61          6           0       18.829454    1.464376    0.559652
     62          6           0       20.153472    1.528035   -0.103842
     63          6           0       20.153957    2.363896   -1.527087
     64          6           0       21.110873    2.137354    0.852965
     65          1           0       -4.326243    3.570570    1.693579
     66          1           0      -10.025955    4.163699   -0.428236
     67          1           0      -10.662117   -2.332829   -0.883559
     68          1           0       -2.782266   -1.370610    2.051854
     69          1           0       -2.197107    1.438508    1.197326
     70          1           0       -2.224129    0.429013    3.465002
     71          1           0       -2.946914    2.155828    3.610561
     72          1           0       -3.876509    0.736623    3.811855
     73          1           0       -2.327299   -1.800292   -0.342803
     74          1           0       -2.217460   -0.234857   -0.701390
     75          1           0       -0.339759    0.418999    0.732895
     76          1           0       -0.217890   -1.233638    1.557040
     77          1           0       -4.704073    6.328047    0.565220
     78          1           0       -6.182669    6.699868    2.403695
     79          1           0       -4.606241    5.416145    2.391033
     80          1           0       -8.234506    6.964711    0.962037
     81          1           0       -9.352105    5.682574   -1.545627
     82          1           0       -9.421559    7.581259   -0.829594
     83          1           0      -12.221268    3.308601   -0.208009
     84          1           0      -12.021121    3.522497   -2.015740
     85          1           0      -13.320036    2.553359   -1.322649
     86          1           0      -12.462938   -1.300799   -1.060839
     87          1           0      -13.477581   -0.000035   -1.431312
     88          1           0      -12.651553    0.116250   -3.741647
     89          1           0      -11.258976   -1.007685   -3.458157
     90          1           0      -12.903527   -1.596545   -3.538152
     91          1           0       -9.785044   -4.844851    0.037925
     92          1           0       -9.823356   -4.461995   -1.810044
     93          1           0       -8.312739   -5.544453   -0.958047
     94          1           0       -3.713206   -3.337148   -0.569772
     95          1           0       -1.431811   -6.061074    1.989180
     96          1           0       -1.416912   -4.473204    2.985108
     97          1           0       -2.871376   -5.750479    3.245941
     98          1           0        2.769807   -2.572906   -1.048776
     99          1           0        2.558518   -1.057139   -2.081636
    100          1           0        4.412344   -1.238180    0.523210
    101          1           0        5.235328    1.685695   -2.069704
    102          1           0        5.740809    0.021145   -3.083654
    103          1           0        3.946873    0.625317   -2.811443
    104          1           0        6.273615    1.277437    0.132681
    105          1           0        6.087528   -0.469025    0.848272
    106          1           0        7.653188   -1.376731   -1.284226
    107          1           0        7.638710    0.506180   -1.657133
    108          1           0        8.948437    1.061568    0.384509
    109          1           0        8.704144   -0.720320    1.022764
    110          1           0       10.129528   -0.051276   -1.693681
    111          1           0        9.292709   -2.320527   -1.806541
    112          1           0       11.078929   -2.613742   -1.146941
    113          1           0        9.593234   -2.542698    0.137985
    114          1           0       11.203308    0.978221    0.243596
    115          1           0       11.140047   -0.670395    1.357156
    116          1           0       13.105834   -1.451140   -0.650156
    117          1           0       12.399895    0.246167   -1.424851
    118          1           0       13.721957    1.308215    0.381890
    119          1           0       14.016144   -0.146682    1.423520
    120          1           0       15.098640    0.174698   -1.471414
    121          1           0       14.996795   -2.397636   -0.985777
    122          1           0       16.779651   -1.876944   -0.611198
    123          1           0       15.461161   -1.794737    0.712468
    124          1           0       16.085954    1.746184    0.290766
    125          1           0       16.283621    0.332840    1.241027
    126          1           0       18.062710   -0.419631   -0.365903
    127          1           0       17.722430    1.004040   -1.307216
    128          1           0       18.380904    2.406821    0.611242
    129          1           0       19.082920    1.061678    1.729706
    130          1           0       20.467797    0.416178   -0.473593
    131          1           0       19.981621    3.424902   -1.120368
    132          1           0       21.156826    2.286980   -1.861634
    133          1           0       19.592026    1.845171   -2.234729
    134          1           0       21.355590    1.789015    1.856893
    135          1           0       22.092558    2.064194    0.427159
    136          1           0       21.053078    3.160610    1.136402
    137          1           0       -7.523619    1.737062    0.506398
    138          1           0       -7.510106   -0.051360   -0.155913
 ---------------------------------------------------------------------

 SCF Done:  E(RB3LYP) =  -2732.93861507     A.U. after   16 cycles

 Excitation energies and oscillator strengths:

 Excited State   1:      Singlet-A      1.9537 eV  634.60 nm  f=0.2312  <S**2>=0.000
     235 -> 238        0.22989
     236 -> 237        0.65799
 This state for optimization and/or second-order correction.
 Total Energy, E(TD-HF/TD-KS) =  -2732.86681627
 Copying the excited state density for this state as the 1-particle RhoCI density.

 The electronic state is 1-A.
 Alpha  occ. eigenvalues --  -19.18468 -19.16833 -19.12274 -19.11046 -19.10825
 Alpha  occ. eigenvalues --  -14.36811 -14.36722 -14.32807 -14.30076 -10.31440
 Alpha  occ. eigenvalues --  -10.30081 -10.26991 -10.26799 -10.26636 -10.25380
 Alpha  occ. eigenvalues --  -10.24115 -10.23451 -10.23057 -10.22623 -10.22605
 Alpha  occ. eigenvalues --  -10.22457 -10.21840 -10.21522 -10.21448 -10.21440
 Alpha  occ. eigenvalues --  -10.21373 -10.21305 -10.21191 -10.21081 -10.21046
 Alpha  occ. eigenvalues --  -10.21041 -10.20772 -10.20736 -10.20609 -10.20566
 Alpha  occ. eigenvalues --  -10.20491 -10.20380 -10.20302 -10.20171 -10.20069
 Alpha  occ. eigenvalues --  -10.20016 -10.19946 -10.19785 -10.19754 -10.19744
 Alpha  occ. eigenvalues --  -10.19705 -10.19428 -10.19120 -10.18924 -10.18776
 Alpha  occ. eigenvalues --  -10.18656 -10.18536 -10.18478 -10.18386 -10.18185
 Alpha  occ. eigenvalues --  -10.18180 -10.18173 -10.18152 -10.18121 -10.18051
 Alpha  occ. eigenvalues --  -10.18045 -10.17503 -10.17173 -10.16714  -1.08308
 Alpha  occ. eigenvalues --   -1.07477  -1.00856  -1.00048  -0.98954  -0.98621
 Alpha  occ. eigenvalues --   -0.97632  -0.93616  -0.92427  -0.83342  -0.82397
 Alpha  occ. eigenvalues --   -0.82196  -0.81532  -0.81302  -0.80919  -0.80798
 Alpha  occ. eigenvalues --   -0.79806  -0.79298  -0.79078  -0.78774  -0.77143
 Alpha  occ. eigenvalues --   -0.76624  -0.76122  -0.75523  -0.74732  -0.74023
 Alpha  occ. eigenvalues --   -0.73130  -0.72958  -0.72272  -0.71194  -0.70002
 Alpha  occ. eigenvalues --   -0.69856  -0.68460  -0.68260  -0.67817  -0.67558
 Alpha  occ. eigenvalues --   -0.67283  -0.66907  -0.66636  -0.65118  -0.64509
 Alpha  occ. eigenvalues --   -0.64107  -0.62766  -0.62254  -0.61476  -0.61132
 Alpha  occ. eigenvalues --   -0.60822  -0.58594  -0.58093  -0.57577  -0.56737
 Alpha  occ. eigenvalues --   -0.55835  -0.55204  -0.55101  -0.54554  -0.54489
 Alpha  occ. eigenvalues --   -0.53957  -0.53732  -0.53611  -0.53077  -0.52544
 Alpha  occ. eigenvalues --   -0.51681  -0.51055  -0.50606  -0.50002  -0.49219
 Alpha  occ. eigenvalues --   -0.48840  -0.48408  -0.48338  -0.48256  -0.47925
 Alpha  occ. eigenvalues --   -0.47567  -0.47471  -0.47223  -0.46951  -0.46820
 Alpha  occ. eigenvalues --   -0.46217  -0.46071  -0.45685  -0.45581  -0.45285
 Alpha  occ. eigenvalues --   -0.45199  -0.45030  -0.44632  -0.44531  -0.44404
 Alpha  occ. eigenvalues --   -0.44176  -0.44030  -0.43793  -0.43698  -0.43443
 Alpha  occ. eigenvalues --   -0.43382  -0.43341  -0.42768  -0.42444  -0.42270
 Alpha  occ. eigenvalues --   -0.42166  -0.41939  -0.41861  -0.41718  -0.41249
 Alpha  occ. eigenvalues --   -0.40844  -0.40755  -0.40477  -0.40279  -0.40240
 Alpha  occ. eigenvalues --   -0.39930  -0.39894  -0.39467  -0.39107  -0.38981
 Alpha  occ. eigenvalues --   -0.38820  -0.38704  -0.38471  -0.38416  -0.38311
 Alpha  occ. eigenvalues --   -0.37908  -0.37792  -0.37440  -0.37349  -0.37221
 Alpha  occ. eigenvalues --   -0.36831  -0.36818  -0.36731  -0.36388  -0.36203
 Alpha  occ. eigenvalues --   -0.36066  -0.35980  -0.35883  -0.35791  -0.35502
 Alpha  occ. eigenvalues --   -0.35440  -0.35201  -0.35017  -0.34723  -0.34627
 Alpha  occ. eigenvalues --   -0.34551  -0.34437  -0.33857  -0.33585  -0.33449
 Alpha  occ. eigenvalues --   -0.33013  -0.32915  -0.32799  -0.32481  -0.32387
 Alpha  occ. eigenvalues --   -0.32250  -0.32023  -0.31825  -0.31396  -0.31149
 Alpha  occ. eigenvalues --   -0.30995  -0.30965  -0.30523  -0.30417  -0.29994
 Alpha  occ. eigenvalues --   -0.29854  -0.29260  -0.28352  -0.27828  -0.27744
 Alpha  occ. eigenvalues --   -0.27468  -0.27038  -0.26671  -0.26095  -0.25771
 Alpha  occ. eigenvalues --   -0.25091  -0.23790  -0.23649  -0.22370  -0.20202
 Alpha  occ. eigenvalues --   -0.17591
 Alpha virt. eigenvalues --   -0.09741  -0.07657  -0.04532  -0.02630  -0.02117
 Alpha virt. eigenvalues --   -0.00453   0.00937   0.01463   0.01554   0.02181
 Alpha virt. eigenvalues --    0.02986   0.03592   0.03908   0.04306   0.04323

 Mulliken charges:
               1
     1  C    0.060538
     2  C    0.006937
     3  C   -0.082809
     4  C   -0.152286
     5  N   -0.219681
     6  C   -0.080703
     7  C   -0.059361
     8  C   -0.080948
     9  C    0.029928
    10  C    0.153679
    11  C    0.144271
    12  C    0.020986
    13  C    0.150332
    14  O   -0.248556
    15  O   -0.339323
    16  N   -0.012560
    17  C    0.111638
    18  C   -0.000151
    19  C   -0.001220
    20  C   -0.006652
    21  C   -0.189366
    22  C   -0.007595
    23  C   -0.022762
    24  N   -0.279996
    25  C    0.069427
    26  C   -0.154663
    27  C   -0.132852
    28  C    0.082062
    29  C    0.172420
    30  C    0.136116
    31  C    0.011380
    32  N   -0.130421
    33  C    0.087469
    34  C   -0.148119
    35  C    0.122884
    36  C    0.023753
    37  C    0.019049
    38  C    0.003314
    39  O   -0.223129
    40  C   -0.116433
    41  C    0.252843
    42  O   -0.231753
    43  O   -0.314412
    44  C    0.122189
    45  C    0.282488
    46  C   -0.097452
    47  C   -0.148852
    48  C    0.018400
    49  C    0.031115
    50  C   -0.029399
    51  C    0.013623
    52  C   -0.150239
    53  C   -0.051529
    54  C    0.092083
    55  C   -0.040124
    56  C   -0.006117
    57  C   -0.079710
    58  C   -0.038914
    59  C    0.078584
    60  C    0.005728
    61  C    0.063884
    62  C   -0.149125
    63  C    0.053694
    64  C    0.078375
    65  H   -0.106778
    66  H   -0.011559
    67  H    0.031663
    68  H    0.031699
    69  H    0.012681
    70  H    0.003677
    71  H    0.019306
    72  H    0.005720
    73  H    0.020103
    74  H   -0.055972
    75  H   -0.000011
    76  H    0.053867
    77  H    0.062814
    78  H    0.070845
    79  H    0.059012
    80  H   -0.033811
    81  H    0.051672
    82  H    0.019691
    83  H    0.028701
    84  H    0.018837
    85  H   -0.007653
    86  H   -0.012825
    87  H   -0.035343
    88  H    0.007982
    89  H    0.020593
    90  H   -0.011907
    91  H    0.051427
    92  H    0.053581
    93  H    0.068126
    94  H    0.089352
    95  H    0.059378
    96  H    0.049855
    97  H    0.074044
    98  H    0.044836
    99  H    0.041772
   100  H    0.005703
   101  H    0.022951
   102  H    0.077419
   103  H    0.025697
   104  H    0.003038
   105  H    0.022854
   106  H    0.027733
   107  H   -0.002095
   108  H    0.006190
   109  H    0.011407
   110  H    0.004648
   111  H    0.045456
   112  H    0.040487
   113  H    0.020430
   114  H    0.004524
   115  H    0.021925
   116  H    0.023535
   117  H    0.010931
   118  H   -0.002936
   119  H    0.008718
   120  H   -0.016469
   121  H    0.027333
   122  H    0.045191
   123  H    0.000524
   124  H   -0.007259
   125  H   -0.051368
   126  H   -0.016771
   127  H   -0.006064
   128  H   -0.029353
   129  H    0.016876
   130  H    0.006578
   131  H    0.027340
   132  H   -0.006503
   133  H    0.006810
   134  H   -0.008869
   135  H   -0.022488
   136  H   -0.017058
   137  H    0.163592
   138  H    0.261990
 Sum of Mulliken charges =   0.00000

 Dipole moment (field-independent basis, Debye):
    X=              4.9081    Y=              4.1337    Z=              0.7092  Tot=              6.4560
 Quadrupole moment (field-independent basis, Debye-Ang):
   XX=           -344.5554   YY=           -385.8576   ZZ=           -395.8919
   XY=            -19.9417   XZ=              0.7805   YZ=              1.8449

 Normal termination of Gaussian 09 at Sat Aug  3 08:03:44 2019.
