 Gaussian 09, Revision D.01,
 Gaussian 09:  ES64L-G09RevD.01 24-Apr-2013

 --------------------------
 # td=(NStates=1) B3LYP/SVP
 --------------------------

 --
 TD
 --
 Symbolic Z-matrix:
 Charge =  0 Multiplicity = 1

                         Standard orientation:
 ---------------------------------------------------------------------
 Center     Atomic      Atomic             Coordinates (Angstroms)
 Number     Number       Type             X           Y           Z
 ---------------------------------------------------------------------
      1          6           0       -5.117518   -2.029583    0.573704
      2          6           0       -4.707720    2.634415    1.420496
      3          6           0       -9.287479    3.414414   -0.142077
      4          6           0       -9.867498   -1.444309   -0.749949
      5          7           0       -5.145766    0.321006    0.783716
      6          6           0       -4.481477   -0.872386    0.817071
      7          6           0       -2.925606   -0.615198    1.168229
      8          6           0       -2.974758    0.850786    1.796163
      9          6           0       -4.428348    1.312344    1.289422
     10          6           0       -2.932182    0.759304    3.270369
     11          6           0       -2.032106   -0.850834   -0.011854
     12          6           0       -0.541929   -0.792162    0.412549
     13          6           0        0.335123   -0.973483   -0.818462
     14          8           0       -0.000801   -1.471266   -1.873851
     15          8           0        1.687862   -0.758828   -0.492812
     16          7           0       -6.952564    2.853578    0.277366
     17          6           0       -5.839365    3.424053    0.952646
     18          6           0       -6.033860    4.913299    1.010313
     19          6           0       -7.361343    5.045485    0.572773
     20          6           0       -7.916639    3.717655    0.240231
     21          6           0       -5.245170    5.892539    1.645498
     22          6           0       -7.975089    6.388755    0.377314
     23          6           0       -8.892935    6.859444   -0.425310
     24          7           0       -9.198894    1.001184   -0.361033
     25          6           0       -9.836027    2.186375   -0.442117
     26          6           0      -11.232548    1.926330   -0.906690
     27          6           0      -11.412091    0.623313   -1.133430
     28          6           0      -10.062159   -0.089915   -0.809823
     29          6           0      -12.193125    3.006166   -1.000744
     30          6           0      -12.617406   -0.233804   -1.567024
     31          6           0      -12.507390   -0.532465   -3.057440
     32          7           0       -7.358079   -1.204504   -0.243231
     33          6           0       -8.545200   -1.940338   -0.579566
     34          6           0       -8.251842   -3.367687   -0.641973
     35          6           0       -6.901827   -3.463440   -0.146522
     36          6           0       -6.433064   -2.125143   -0.005432
     37          6           0       -9.157214   -4.535281   -0.835923
     38          6           0       -5.817480   -4.315579    0.141310
     39          8           0       -5.663407   -5.501597    0.131947
     40          6           0       -4.512441   -3.402715    0.526140
     41          6           0       -3.963298   -3.916241    1.798415
     42          8           0       -4.131613   -3.489958    2.853539
     43          8           0       -3.185212   -4.983481    1.524412
     44          6           0       -2.503390   -5.575287    2.657901
     45          6           0        2.613528   -0.935139   -1.480210
     46          6           0        3.966482   -0.570369   -0.925956
     47          6           0        4.990199    0.128409   -1.444942
     48          6           0        4.969540    0.868760   -2.735673
     49          6           0        6.186812    0.285832   -0.613011
     50          6           0        7.382871   -0.478708   -1.185622
     51          6           0        8.626737   -0.286073   -0.232471
     52          6           0       10.014563   -0.712081   -0.945153
     53          6           0        9.964315   -2.243310   -1.244112
     54          6           0       11.270499   -0.463824    0.070403
     55          6           0       12.584511   -0.733618   -0.463682
     56          6           0       13.786964   -0.055063    0.408828
     57          6           0       15.233434   -0.182014   -0.258643
     58          6           0       15.668924   -1.611913   -0.315984
     59          6           0       16.170456    0.694750    0.552028
     60          6           0       17.531545    0.752910    0.020540
     61          6           0       18.450190    1.707897    0.870283
     62          6           0       19.907715    1.740623    0.385543
     63          6           0       20.066688    2.049446   -1.130463
     64          6           0       20.796961    2.567076    1.209123
     65          1           0       -4.012196    3.328544    2.050195
     66          1           0      -10.045614    4.283017   -0.115545
     67          1           0      -10.653647   -2.173574   -0.935221
     68          1           0       -2.685810   -1.337873    1.841440
     69          1           0       -2.190289    1.563572    1.293845
     70          1           0       -2.059343    0.395133    3.663764
     71          1           0       -3.136791    1.687163    3.812169
     72          1           0       -3.713602    0.011775    3.659701
     73          1           0       -2.125974   -1.853614   -0.395994
     74          1           0       -2.376038   -0.112495   -0.947379
     75          1           0       -0.459338    0.110019    0.708315
     76          1           0       -0.142838   -1.730726    0.877808
     77          1           0       -4.262356    5.891067    1.210525
     78          1           0       -5.600030    6.938156    1.492578
     79          1           0       -5.041717    5.707229    2.656249
     80          1           0       -7.556864    7.164883    1.314731
     81          1           0       -9.322378    6.292118   -1.346129
     82          1           0       -9.150416    7.935376   -0.305158
     83          1           0      -12.181465    3.842167   -0.258970
     84          1           0      -11.993913    3.501104   -2.025880
     85          1           0      -13.342807    2.702364   -1.092993
     86          1           0      -12.558527   -1.234532   -0.908715
     87          1           0      -13.492764    0.122114   -1.272036
     88          1           0      -12.281896    0.354423   -3.604446
     89          1           0      -11.649280   -1.159873   -3.245352
     90          1           0      -13.452845   -1.075214   -3.325767
     91          1           0      -10.017901   -4.402959   -0.265860
     92          1           0       -9.601164   -4.560424   -1.872976
     93          1           0       -8.461023   -5.482507   -0.716078
     94          1           0       -3.973419   -3.595555   -0.161562
     95          1           0       -1.651784   -6.087198    2.325653
     96          1           0       -2.212510   -4.771813    3.401059
     97          1           0       -3.349715   -6.205051    3.243478
     98          1           0        2.656270   -1.945007   -1.676035
     99          1           0        2.311512   -0.427502   -2.384472
    100          1           0        4.171926   -1.006809    0.042910
    101          1           0        5.466253    1.777760   -2.496137
    102          1           0        5.488284    0.471920   -3.494939
    103          1           0        3.995584    1.015579   -3.095436
    104          1           0        6.740938    1.381225   -0.623797
    105          1           0        5.944620   -0.182437    0.448255
    106          1           0        6.855669   -1.478476   -1.205335
    107          1           0        7.438447   -0.232081   -2.206232
    108          1           0        8.699014    0.684460   -0.049084
    109          1           0        8.342351   -0.888267    0.760984
    110          1           0       10.237163   -0.155776   -1.929920
    111          1           0        9.210115   -2.707948   -1.840221
    112          1           0       11.069115   -2.740530   -1.470943
    113          1           0        9.868185   -2.733011   -0.370481
    114          1           0       11.146738    0.481379    0.578949
    115          1           0       11.086727   -0.961732    0.940240
    116          1           0       12.647569   -1.845733   -0.502309
    117          1           0       12.714419   -0.329244   -1.482779
    118          1           0       13.640812    1.016384    0.230293
    119          1           0       13.768820   -0.546364    1.381797
    120          1           0       15.060856    0.097779   -1.158955
    121          1           0       14.875644   -2.105089   -0.547458
    122          1           0       16.614505   -1.935844   -0.932311
    123          1           0       16.163358   -2.070364    0.725535
    124          1           0       15.786747    1.692760    0.484251
    125          1           0       16.148056    0.465580    1.653127
    126          1           0       18.049466   -0.354143   -0.066276
    127          1           0       17.644940    1.136942   -1.136684
    128          1           0       18.103665    2.577389    0.966435
    129          1           0       18.511628    1.156692    1.727482
    130          1           0       20.358079    0.752499    0.413110
    131          1           0       19.433191    3.038835   -1.354250
    132          1           0       21.017781    2.001988   -1.656553
    133          1           0       19.667662    1.169634   -1.616684
    134          1           0       20.820125    2.456488    2.277014
    135          1           0       21.793031    2.388690    0.781475
    136          1           0       20.612792    3.697501    0.948296
    137          1           0       -7.152325    1.775352    0.311229
    138          1           0       -7.384215   -0.209616   -0.095356
 ---------------------------------------------------------------------

 SCF Done:  E(RB3LYP) =  -2733.02371209     A.U. after   16 cycles

 Excitation energies and oscillator strengths:

 Excited State   1:      Singlet-A      2.0301 eV  610.72 nm  f=0.2111  <S**2>=0.000
     235 -> 238       -0.26841
     236 -> 237        0.64230
 This state for optimization and/or second-order correction.
 Total Energy, E(TD-HF/TD-KS) =  -2732.94910610
 Copying the excited state density for this state as the 1-particle RhoCI density.

 The electronic state is 1-A.
 Alpha  occ. eigenvalues --  -19.16773 -19.16126 -19.13152 -19.11644 -19.11472
 Alpha  occ. eigenvalues --  -14.38183 -14.37896 -14.32286 -14.30718 -10.31805
 Alpha  occ. eigenvalues --  -10.29756 -10.26990 -10.25468 -10.24788 -10.24462
 Alpha  occ. eigenvalues --  -10.23966 -10.23646 -10.23147 -10.22926 -10.22430
 Alpha  occ. eigenvalues --  -10.22349 -10.22054 -10.21912 -10.21874 -10.21678
 Alpha  occ. eigenvalues --  -10.21439 -10.21138 -10.20865 -10.20728 -10.20720
 Alpha  occ. eigenvalues --  -10.20622 -10.20353 -10.20246 -10.20150 -10.20112
 Alpha  occ. eigenvalues --  -10.20095 -10.19761 -10.19717 -10.19651 -10.19477
 Alpha  occ. eigenvalues --  -10.19407 -10.19299 -10.19277 -10.19115 -10.18972
 Alpha  occ. eigenvalues --  -10.18860 -10.18537 -10.18533 -10.18172 -10.18122
 Alpha  occ. eigenvalues --  -10.18100 -10.18053 -10.17956 -10.17947 -10.17926
 Alpha  occ. eigenvalues --  -10.17893 -10.17432 -10.17345 -10.17256 -10.17219
 Alpha  occ. eigenvalues --  -10.17123 -10.17103 -10.16824 -10.15732  -1.09994
 Alpha  occ. eigenvalues --   -1.08982  -1.03179  -1.01326  -1.01228  -0.99400
 Alpha  occ. eigenvalues --   -0.98376  -0.93934  -0.91513  -0.84844  -0.83033
 Alpha  occ. eigenvalues --   -0.82973  -0.82381  -0.81860  -0.81408  -0.80764
 Alpha  occ. eigenvalues --   -0.79880  -0.79628  -0.79517  -0.79158  -0.78165
 Alpha  occ. eigenvalues --   -0.77218  -0.76567  -0.75855  -0.75223  -0.74691
 Alpha  occ. eigenvalues --   -0.74052  -0.73563  -0.72951  -0.72218  -0.72197
 Alpha  occ. eigenvalues --   -0.71003  -0.69404  -0.68735  -0.68399  -0.67880
 Alpha  occ. eigenvalues --   -0.67350  -0.67237  -0.66714  -0.66538  -0.65470
 Alpha  occ. eigenvalues --   -0.63409  -0.62941  -0.62488  -0.62133  -0.61368
 Alpha  occ. eigenvalues --   -0.60846  -0.58767  -0.58231  -0.57492  -0.57277
 Alpha  occ. eigenvalues --   -0.56948  -0.56641  -0.56530  -0.56127  -0.55921
 Alpha  occ. eigenvalues --   -0.55839  -0.55164  -0.54754  -0.53767  -0.52998
 Alpha  occ. eigenvalues --   -0.52688  -0.52323  -0.51875  -0.51503  -0.50617
 Alpha  occ. eigenvalues --   -0.50238  -0.49903  -0.49004  -0.48731  -0.48679
 Alpha  occ. eigenvalues --   -0.48565  -0.47929  -0.47870  -0.47638  -0.47380
 Alpha  occ. eigenvalues --   -0.46819  -0.46740  -0.46637  -0.46237  -0.46086
 Alpha  occ. eigenvalues --   -0.45643  -0.45599  -0.45239  -0.45160  -0.44768
 Alpha  occ. eigenvalues --   -0.44711  -0.44664  -0.44326  -0.44032  -0.43758
 Alpha  occ. eigenvalues --   -0.43566  -0.43513  -0.43480  -0.43017  -0.43004
 Alpha  occ. eigenvalues --   -0.42727  -0.42705  -0.42340  -0.42300  -0.41830
 Alpha  occ. eigenvalues --   -0.41819  -0.41654  -0.41604  -0.41345  -0.40947
 Alpha  occ. eigenvalues --   -0.40692  -0.40313  -0.40078  -0.39883  -0.39767
 Alpha  occ. eigenvalues --   -0.39517  -0.39337  -0.39000  -0.38927  -0.38617
 Alpha  occ. eigenvalues --   -0.38367  -0.38312  -0.38200  -0.37950  -0.37740
 Alpha  occ. eigenvalues --   -0.37541  -0.37464  -0.37374  -0.37263  -0.36884
 Alpha  occ. eigenvalues --   -0.36736  -0.36501  -0.36392  -0.36242  -0.35874
 Alpha  occ. eigenvalues --   -0.35781  -0.35707  -0.35535  -0.34859  -0.34750
 Alpha  occ. eigenvalues --   -0.34392  -0.34251  -0.33816  -0.33789  -0.33635
 Alpha  occ. eigenvalues --   -0.33530  -0.33502  -0.33325  -0.32729  -0.32135
 Alpha  occ. eigenvalues --   -0.32091  -0.31924  -0.31830  -0.31419  -0.31174
 Alpha  occ. eigenvalues --   -0.30960  -0.30444  -0.30186  -0.29988  -0.29705
 Alpha  occ. eigenvalues --   -0.29516  -0.29483  -0.28242  -0.28204  -0.28007
 Alpha  occ. eigenvalues --   -0.27998  -0.27038  -0.26377  -0.26171  -0.25596
 Alpha  occ. eigenvalues --   -0.24876  -0.24128  -0.24067  -0.23006  -0.19828
 Alpha  occ. eigenvalues --   -0.19180
 Alpha virt. eigenvalues --   -0.10859  -0.07210  -0.03956  -0.01523  -0.00300
 Alpha virt. eigenvalues --    0.00286   0.00547   0.01839   0.02306   0.03267
 Alpha virt. eigenvalues --    0.04129   0.04550   0.04642   0.04807   0.05142

 Mulliken charges:
               1
     1  C    0.080423
     2  C   -0.057277
     3  C   -0.101586
     4  C   -0.082175
     5  N   -0.164305
     6  C   -0.097973
     7  C    0.100614
     8  C   -0.102690
     9  C    0.018022
    10  C    0.104189
    11  C   -0.027283
    12  C    0.196060
    13  C    0.138911
    14  O   -0.228158
    15  O   -0.338004
    16  N   -0.058668
    17  C    0.022620
    18  C   -0.095014
    19  C   -0.008798
    20  C    0.051288
    21  C    0.144715
    22  C   -0.068742
    23  C   -0.067875
    24  N   -0.307934
    25  C    0.073425
    26  C   -0.083003
    27  C   -0.112477
    28  C    0.099720
    29  C    0.012433
    30  C    0.091479
    31  C    0.056881
    32  N   -0.007639
    33  C    0.087807
    34  C   -0.153325
    35  C    0.017923
    36  C    0.014151
    37  C    0.106542
    38  C   -0.024942
    39  O   -0.151817
    40  C    0.110176
    41  C    0.156979
    42  O   -0.162337
    43  O   -0.316060
    44  C    0.160809
    45  C    0.370121
    46  C   -0.117315
    47  C   -0.156366
    48  C    0.206970
    49  C   -0.026219
    50  C    0.002369
    51  C    0.108015
    52  C   -0.094074
    53  C    0.053647
    54  C    0.089073
    55  C    0.022532
    56  C    0.002537
    57  C    0.030335
    58  C    0.043330
    59  C    0.116899
    60  C   -0.113655
    61  C    0.208067
    62  C   -0.104759
    63  C   -0.008902
    64  C    0.066780
    65  H    0.003643
    66  H    0.003211
    67  H   -0.010776
    68  H   -0.057661
    69  H    0.021126
    70  H   -0.012255
    71  H   -0.000649
    72  H    0.032330
    73  H    0.007050
    74  H    0.036448
    75  H   -0.049051
    76  H    0.058095
    77  H    0.003728
    78  H    0.021062
    79  H    0.019786
    80  H    0.037639
    81  H    0.049346
    82  H    0.032459
    83  H    0.034347
    84  H    0.026037
    85  H    0.023312
    86  H    0.006494
    87  H   -0.047109
    88  H    0.009969
    89  H    0.000750
    90  H    0.019473
    91  H    0.015277
    92  H    0.018650
    93  H    0.074170
    94  H   -0.090135
    95  H    0.028383
    96  H    0.033047
    97  H    0.048757
    98  H   -0.023857
    99  H   -0.007514
   100  H   -0.024854
   101  H   -0.008409
   102  H   -0.011106
   103  H   -0.013599
   104  H    0.012985
   105  H    0.014005
   106  H   -0.009002
   107  H   -0.020496
   108  H   -0.041445
   109  H    0.023293
   110  H    0.013673
   111  H    0.008082
   112  H    0.004960
   113  H   -0.042496
   114  H   -0.042527
   115  H   -0.055251
   116  H    0.020109
   117  H   -0.009539
   118  H    0.001539
   119  H    0.005502
   120  H   -0.079236
   121  H   -0.052326
   122  H    0.020365
   123  H   -0.000983
   124  H   -0.034270
   125  H   -0.006510
   126  H    0.006614
   127  H    0.012730
   128  H   -0.068133
   129  H   -0.033843
   130  H   -0.026211
   131  H    0.022430
   132  H    0.000688
   133  H    0.000307
   134  H    0.003262
   135  H   -0.006236
   136  H   -0.005046
   137  H    0.202547
   138  H    0.126373
 Sum of Mulliken charges =   0.00000

 Dipole moment (field-independent basis, Debye):
    X=              0.3028    Y=              5.0251    Z=              0.7759  Tot=              5.0936
 Quadrupole moment (field-independent basis, Debye-Ang):
   XX=           -356.2467   YY=           -383.7711   ZZ=           -394.8583
   XY=            -28.8640   XZ=             10.5944   YZ=              0.9514

 Normal termination of Gaussian 09 at Thu Jul 25 13:38:55 2019.
