 Gaussian 09, Revision D.01,
 Gaussian 09:  ES64L-G09RevD.01 24-Apr-2013

 --------------------------
 # td=(NStates=1) B3LYP/SVP
 --------------------------

 --
 TD
 --
 Symbolic Z-matrix:
 Charge =  0 Multiplicity = 1

                         Standard orientation:
 ---------------------------------------------------------------------
 Center     Atomic      Atomic             Coordinates (Angstroms)
 Number     Number       Type             X           Y           Z
 ---------------------------------------------------------------------
      1          6           0       -4.998853   -1.862595    0.438627
      2          6           0       -4.905101    2.752174    1.443025
      3          6           0       -9.437775    3.202066   -0.141162
      4          6           0       -9.653536   -1.605576   -1.006614
      5          7           0       -5.156228    0.461830    0.840218
      6          6           0       -4.393642   -0.640597    0.860718
      7          6           0       -3.007617   -0.377795    1.354649
      8          6           0       -3.100058    0.984276    1.927639
      9          6           0       -4.431016    1.479705    1.379615
     10          6           0       -3.147255    0.977863    3.483386
     11          6           0       -2.139318   -0.547514    0.158724
     12          6           0       -0.626470   -0.449163    0.515781
     13          6           0        0.371402   -0.884883   -0.554098
     14          8           0        0.051078   -1.317587   -1.660380
     15          8           0        1.655289   -0.589139   -0.292015
     16          7           0       -7.138765    2.737404    0.460863
     17          6           0       -6.091504    3.349758    0.885572
     18          6           0       -6.453255    4.876096    1.064539
     19          6           0       -7.749507    4.913020    0.430834
     20          6           0       -8.169958    3.533119    0.147450
     21          6           0       -5.515284    5.916641    1.619169
     22          6           0       -8.516862    6.095065    0.332485
     23          6           0       -9.355573    6.550372   -0.691908
     24          7           0       -9.161499    0.799755   -0.477474
     25          6           0       -9.901936    1.913043   -0.495054
     26          6           0      -11.268621    1.660787   -0.998046
     27          6           0      -11.352281    0.316587   -1.239593
     28          6           0      -10.046788   -0.216928   -0.883842
     29          6           0      -12.514522    2.637521   -1.116261
     30          6           0      -12.505380   -0.489032   -1.790260
     31          6           0      -12.398407   -0.732539   -3.299210
     32          7           0       -7.399675   -1.326919   -0.222549
     33          6           0       -8.483096   -2.143158   -0.604707
     34          6           0       -7.984785   -3.511480   -0.608484
     35          6           0       -6.673985   -3.465380   -0.213617
     36          6           0       -6.327152   -2.075887    0.070145
     37          6           0       -8.818335   -4.720504   -1.081230
     38          6           0       -5.557191   -4.355399   -0.021399
     39          8           0       -5.395662   -5.511841    0.096137
     40          6           0       -4.371542   -3.209203    0.436217
     41          6           0       -3.834416   -3.659127    1.877719
     42          8           0       -4.106420   -3.214670    2.937778
     43          8           0       -2.950765   -4.653028    1.666799
     44          6           0       -2.358082   -5.376956    2.811069
     45          6           0        2.599210   -0.809932   -1.254885
     46          6           0        3.889960   -0.575460   -0.729031
     47          6           0        4.990082    0.132088   -1.198016
     48          6           0        4.965135    0.910355   -2.491509
     49          6           0        6.267863    0.337523   -0.441397
     50          6           0        7.451864   -0.338803   -1.056493
     51          6           0        8.779066   -0.098191   -0.319349
     52          6           0       10.039944   -0.721208   -0.855730
     53          6           0        9.993770   -2.203565   -1.073636
     54          6           0       11.140558   -0.243599    0.121006
     55          6           0       12.615716   -0.563139   -0.470794
     56          6           0       13.887619   -0.036895    0.287466
     57          6           0       15.225555   -0.325806   -0.251355
     58          6           0       15.653866   -1.777375   -0.328287
     59          6           0       16.240280    0.590567    0.476594
     60          6           0       17.701111    0.499510   -0.046635
     61          6           0       18.601931    1.510946    0.691236
     62          6           0       20.081971    1.570117    0.066252
     63          6           0       20.089864    2.109476   -1.291530
     64          6           0       20.989283    2.455866    0.932630
     65          1           0       -4.361545    3.490362    2.010237
     66          1           0      -10.158109    3.921316   -0.281557
     67          1           0      -10.596928   -2.343775   -1.113767
     68          1           0       -2.716254   -1.220707    2.103784
     69          1           0       -2.129489    1.659508    1.756625
     70          1           0       -2.137326    0.511397    3.845648
     71          1           0       -3.234002    2.017157    3.899642
     72          1           0       -3.913037    0.334265    3.892320
     73          1           0       -2.187220   -1.492049   -0.445154
     74          1           0       -2.454580    0.266928   -0.548263
     75          1           0       -0.165644    0.403001    1.051845
     76          1           0       -0.415705   -1.114677    1.319670
     77          1           0       -4.721124    6.008242    0.983797
     78          1           0       -5.981036    6.882379    1.613635
     79          1           0       -5.208937    5.591282    2.604732
     80          1           0       -8.366590    6.806787    0.955413
     81          1           0       -9.746221    5.951485   -1.589818
     82          1           0       -9.583044    7.605113   -0.748762
     83          1           0      -12.972276    2.717314   -0.021484
     84          1           0      -11.979048    3.870804   -1.481628
     85          1           0      -13.201366    2.115373   -2.126290
     86          1           0      -12.775973   -1.428177   -1.082577
     87          1           0      -13.486507   -0.081583   -1.703286
     88          1           0      -12.288916    0.381384   -3.655166
     89          1           0      -11.332541   -1.226973   -3.473084
     90          1           0      -13.292214   -1.502163   -3.609603
     91          1           0       -9.829950   -4.820383   -0.513937
     92          1           0       -8.982046   -4.506981   -2.198900
     93          1           0       -8.154034   -5.635452   -0.885660
     94          1           0       -3.617471   -3.445512   -0.247556
     95          1           0       -1.509729   -6.145729    2.550964
     96          1           0       -1.802117   -4.876052    3.647369
     97          1           0       -3.039009   -5.978431    3.424156
     98          1           0        2.629378   -1.910253   -1.555192
     99          1           0        2.477505   -0.212109   -2.266100
    100          1           0        4.166366   -0.784571    0.239027
    101          1           0        5.235544    1.882531   -2.118496
    102          1           0        5.709592    0.513569   -3.132700
    103          1           0        3.925401    0.887306   -3.077359
    104          1           0        6.434694    1.478844   -0.480347
    105          1           0        6.035432   -0.105027    0.618143
    106          1           0        7.318242   -1.307873   -1.236883
    107          1           0        7.757326    0.160260   -1.935532
    108          1           0        8.740581    1.048577    0.013511
    109          1           0        8.620527   -0.635788    0.689056
    110          1           0       10.414202   -0.458314   -1.887048
    111          1           0        9.319882   -2.406977   -1.908538
    112          1           0       10.969971   -2.523653   -1.425014
    113          1           0        9.781617   -2.910990   -0.197589
    114          1           0       10.996543    0.994851   -0.027854
    115          1           0       10.900486   -0.624318    1.044816
    116          1           0       12.864748   -1.749296   -0.509116
    117          1           0       12.483522    0.018472   -1.527862
    118          1           0       13.763108    0.956220    0.224372
    119          1           0       13.741078   -0.162004    1.432402
    120          1           0       15.237515    0.161412   -1.370773
    121          1           0       14.804469   -2.097325   -0.999128
    122          1           0       16.426274   -1.910902   -0.970048
    123          1           0       15.780751   -2.226098    0.724826
    124          1           0       15.808166    1.513903    0.401082
    125          1           0       16.120771    0.387932    1.581013
    126          1           0       18.131157   -0.533615    0.133963
    127          1           0       17.693635    0.806743   -1.242905
    128          1           0       18.071839    2.637601    0.786358
    129          1           0       18.962778    1.155627    1.662622
    130          1           0       20.483633    0.719117   -0.089554
    131          1           0       19.955017    3.388744   -1.242695
    132          1           0       21.220025    2.190660   -1.473990
    133          1           0       19.419822    1.706942   -2.079835
    134          1           0       21.100586    1.863480    1.881219
    135          1           0       21.791585    2.576879    0.256141
    136          1           0       20.689950    3.499646    1.295183
    137          1           0       -7.000324    1.796579    0.099205
    138          1           0       -7.600059   -0.457743   -0.006187
 ---------------------------------------------------------------------

 SCF Done:  E(RB3LYP) =  -2733.02464197     A.U. after   16 cycles

 Excitation energies and oscillator strengths:

 Excited State   1:      Singlet-A      2.0964 eV  591.42 nm  f=0.1353  <S**2>=0.000
     235 -> 237        0.11765
     235 -> 238       -0.33240
     236 -> 237        0.60287
 This state for optimization and/or second-order correction.
 Total Energy, E(TD-HF/TD-KS) =  -2732.94760101
 Copying the excited state density for this state as the 1-particle RhoCI density.

 The electronic state is 1-A.
 Alpha  occ. eigenvalues --  -19.18260 -19.17820 -19.13505 -19.12254 -19.11956
 Alpha  occ. eigenvalues --  -14.37892 -14.36006 -14.31965 -14.29837 -10.31789
 Alpha  occ. eigenvalues --  -10.31109 -10.28260 -10.25380 -10.25045 -10.24740
 Alpha  occ. eigenvalues --  -10.24387 -10.23783 -10.23155 -10.23136 -10.22879
 Alpha  occ. eigenvalues --  -10.22713 -10.21980 -10.21940 -10.21488 -10.21370
 Alpha  occ. eigenvalues --  -10.21352 -10.21081 -10.20787 -10.20758 -10.20730
 Alpha  occ. eigenvalues --  -10.20727 -10.20683 -10.20674 -10.20425 -10.20399
 Alpha  occ. eigenvalues --  -10.20050 -10.20000 -10.19904 -10.19805 -10.19788
 Alpha  occ. eigenvalues --  -10.19726 -10.19683 -10.19535 -10.19532 -10.19443
 Alpha  occ. eigenvalues --  -10.19283 -10.19280 -10.19249 -10.19156 -10.19090
 Alpha  occ. eigenvalues --  -10.19073 -10.18961 -10.18879 -10.18662 -10.18614
 Alpha  occ. eigenvalues --  -10.18040 -10.17967 -10.17898 -10.17472 -10.17301
 Alpha  occ. eigenvalues --  -10.17278 -10.17177 -10.17158 -10.16934  -1.10948
 Alpha  occ. eigenvalues --   -1.08939  -1.05598  -1.01128  -1.00756  -1.00076
 Alpha  occ. eigenvalues --   -0.98790  -0.95469  -0.92720  -0.84361  -0.83200
 Alpha  occ. eigenvalues --   -0.82719  -0.82227  -0.82054  -0.81424  -0.81259
 Alpha  occ. eigenvalues --   -0.80897  -0.80387  -0.79126  -0.78619  -0.78403
 Alpha  occ. eigenvalues --   -0.76806  -0.76198  -0.75771  -0.74915  -0.74052
 Alpha  occ. eigenvalues --   -0.73407  -0.72596  -0.72430  -0.71713  -0.71524
 Alpha  occ. eigenvalues --   -0.70655  -0.68941  -0.68452  -0.68434  -0.67828
 Alpha  occ. eigenvalues --   -0.66866  -0.66513  -0.66412  -0.65708  -0.65397
 Alpha  occ. eigenvalues --   -0.64113  -0.63444  -0.62898  -0.62233  -0.61341
 Alpha  occ. eigenvalues --   -0.59843  -0.59085  -0.58853  -0.58666  -0.57458
 Alpha  occ. eigenvalues --   -0.56935  -0.56695  -0.56238  -0.56118  -0.55369
 Alpha  occ. eigenvalues --   -0.55255  -0.55114  -0.54688  -0.53535  -0.53147
 Alpha  occ. eigenvalues --   -0.52606  -0.51624  -0.51497  -0.51077  -0.50267
 Alpha  occ. eigenvalues --   -0.49651  -0.49505  -0.49039  -0.48945  -0.48293
 Alpha  occ. eigenvalues --   -0.48059  -0.47742  -0.47458  -0.47184  -0.46924
 Alpha  occ. eigenvalues --   -0.46749  -0.46651  -0.46467  -0.46138  -0.45781
 Alpha  occ. eigenvalues --   -0.45657  -0.45582  -0.45443  -0.45090  -0.44906
 Alpha  occ. eigenvalues --   -0.44529  -0.44292  -0.44101  -0.43963  -0.43640
 Alpha  occ. eigenvalues --   -0.43281  -0.43046  -0.42985  -0.42756  -0.42571
 Alpha  occ. eigenvalues --   -0.42509  -0.42364  -0.42085  -0.42005  -0.41613
 Alpha  occ. eigenvalues --   -0.41477  -0.41168  -0.40971  -0.40842  -0.40563
 Alpha  occ. eigenvalues --   -0.40455  -0.40054  -0.39950  -0.39815  -0.39504
 Alpha  occ. eigenvalues --   -0.39366  -0.39117  -0.39059  -0.38650  -0.38513
 Alpha  occ. eigenvalues --   -0.38425  -0.38247  -0.37862  -0.37729  -0.37603
 Alpha  occ. eigenvalues --   -0.37286  -0.36932  -0.36650  -0.36517  -0.36450
 Alpha  occ. eigenvalues --   -0.36242  -0.36016  -0.35669  -0.35592  -0.35467
 Alpha  occ. eigenvalues --   -0.35252  -0.35013  -0.34954  -0.34811  -0.34544
 Alpha  occ. eigenvalues --   -0.34468  -0.34203  -0.34109  -0.34090  -0.33682
 Alpha  occ. eigenvalues --   -0.33670  -0.33484  -0.33190  -0.32526  -0.32435
 Alpha  occ. eigenvalues --   -0.32254  -0.32192  -0.31609  -0.31237  -0.31219
 Alpha  occ. eigenvalues --   -0.30711  -0.30560  -0.30505  -0.30390  -0.30305
 Alpha  occ. eigenvalues --   -0.29670  -0.29227  -0.28408  -0.27945  -0.27680
 Alpha  occ. eigenvalues --   -0.27565  -0.27335  -0.27230  -0.26792  -0.26222
 Alpha  occ. eigenvalues --   -0.24596  -0.23585  -0.23321  -0.22637  -0.19839
 Alpha  occ. eigenvalues --   -0.18707
 Alpha virt. eigenvalues --   -0.09685  -0.07978  -0.04531  -0.02612  -0.00380
 Alpha virt. eigenvalues --    0.00249   0.00597   0.01420   0.01547   0.02604
 Alpha virt. eigenvalues --    0.03530   0.04108   0.04185   0.04304   0.04981

 Mulliken charges:
               1
     1  C    0.068759
     2  C   -0.055325
     3  C   -0.049542
     4  C   -0.101434
     5  N   -0.176141
     6  C   -0.098250
     7  C    0.008219
     8  C   -0.051884
     9  C    0.054991
    10  C    0.032568
    11  C    0.062594
    12  C    0.079050
    13  C    0.155064
    14  O   -0.253793
    15  O   -0.268329
    16  N    0.084013
    17  C   -0.017472
    18  C   -0.198258
    19  C    0.083222
    20  C    0.132074
    21  C    0.186544
    22  C   -0.023096
    23  C   -0.065972
    24  N   -0.244087
    25  C    0.023771
    26  C   -0.122126
    27  C   -0.049135
    28  C    0.006370
    29  C   -0.086197
    30  C    0.013961
    31  C   -0.048745
    32  N    0.050804
    33  C    0.077427
    34  C   -0.129164
    35  C   -0.025743
    36  C    0.079225
    37  C    0.038495
    38  C    0.068721
    39  O   -0.110916
    40  C   -0.139695
    41  C    0.199468
    42  O   -0.193615
    43  O   -0.301451
    44  C    0.158231
    45  C    0.305548
    46  C   -0.055031
    47  C   -0.233962
    48  C    0.085710
    49  C    0.050971
    50  C    0.116786
    51  C   -0.025882
    52  C   -0.068519
    53  C    0.027493
    54  C    0.026868
    55  C   -0.074776
    56  C    0.106133
    57  C   -0.149929
    58  C    0.115828
    59  C    0.066645
    60  C    0.008259
    61  C    0.005180
    62  C   -0.006103
    63  C   -0.049667
    64  C    0.030919
    65  H   -0.048620
    66  H   -0.078018
    67  H    0.030405
    68  H    0.028314
    69  H    0.023396
    70  H    0.017491
    71  H    0.022216
    72  H    0.028864
    73  H    0.044128
    74  H    0.013448
    75  H    0.014278
    76  H   -0.005939
    77  H    0.009601
    78  H    0.002180
    79  H    0.035408
    80  H   -0.075350
    81  H    0.043231
    82  H    0.026353
    83  H    0.077281
    84  H    0.042145
    85  H    0.071614
    86  H    0.010142
    87  H   -0.018913
    88  H    0.036757
    89  H    0.029462
    90  H    0.047096
    91  H    0.052761
    92  H    0.055221
    93  H    0.055973
    94  H    0.024955
    95  H    0.039128
    96  H    0.021649
    97  H    0.027798
    98  H    0.026990
    99  H    0.023284
   100  H   -0.065915
   101  H    0.005899
   102  H    0.013155
   103  H    0.024408
   104  H    0.011716
   105  H    0.007419
   106  H   -0.037162
   107  H   -0.020201
   108  H    0.007536
   109  H   -0.014239
   110  H   -0.013365
   111  H    0.008186
   112  H   -0.002306
   113  H    0.008988
   114  H    0.020341
   115  H   -0.018454
   116  H    0.038109
   117  H    0.017911
   118  H   -0.059178
   119  H   -0.007970
   120  H   -0.010452
   121  H   -0.003444
   122  H   -0.023850
   123  H    0.028063
   124  H   -0.045136
   125  H   -0.016999
   126  H    0.014138
   127  H    0.017900
   128  H    0.022522
   129  H   -0.009683
   130  H   -0.062477
   131  H   -0.006172
   132  H    0.003792
   133  H    0.033511
   134  H    0.010489
   135  H   -0.009445
   136  H    0.022261
   137  H    0.160146
   138  H    0.059558
 Sum of Mulliken charges =   0.00000

 Dipole moment (field-independent basis, Debye):
    X=              2.3146    Y=              3.8532    Z=              1.4947  Tot=              4.7370
 Quadrupole moment (field-independent basis, Debye-Ang):
   XX=           -359.4809   YY=           -377.9883   ZZ=           -396.6422
   XY=            -24.7307   XZ=              6.0978   YZ=              1.1055

 Normal termination of Gaussian 09 at Mon Aug  5 02:08:55 2019.
