 Gaussian 09, Revision D.01,
 Gaussian 09:  ES64L-G09RevD.01 24-Apr-2013

 --------------------------
 # td=(NStates=1) B3LYP/SVP
 --------------------------

 --
 TD
 --
 Symbolic Z-matrix:
 Charge =  0 Multiplicity = 1

                         Standard orientation:
 ---------------------------------------------------------------------
 Center     Atomic      Atomic             Coordinates (Angstroms)
 Number     Number       Type             X           Y           Z
 ---------------------------------------------------------------------
      1          6           0       -5.129561   -1.854401    0.531263
      2          6           0       -4.905296    2.873346    1.345647
      3          6           0       -9.490603    3.210657   -0.260317
      4          6           0       -9.638937   -1.584867   -1.022243
      5          7           0       -5.173984    0.480027    0.765712
      6          6           0       -4.494904   -0.674774    0.933759
      7          6           0       -3.058890   -0.400332    1.339973
      8          6           0       -3.080290    1.082752    1.770207
      9          6           0       -4.474629    1.488599    1.261752
     10          6           0       -2.825946    1.339503    3.277096
     11          6           0       -2.143248   -0.695738    0.254076
     12          6           0       -0.674011   -0.706160    0.557151
     13          6           0        0.304643   -0.863488   -0.580300
     14          8           0        0.047259   -1.101713   -1.798268
     15          8           0        1.542300   -0.704364   -0.132490
     16          7           0       -7.198172    2.757324    0.419065
     17          6           0       -6.114908    3.314893    0.943791
     18          6           0       -6.473731    4.691502    1.004459
     19          6           0       -7.699078    4.914995    0.532028
     20          6           0       -8.211009    3.594357    0.184725
     21          6           0       -5.480666    5.839238    1.501381
     22          6           0       -8.388986    6.178530    0.312164
     23          6           0       -9.259794    6.459301   -0.655787
     24          7           0       -9.219270    0.762516   -0.406912
     25          6           0       -9.944047    1.878258   -0.464438
     26          6           0      -11.279224    1.658554   -0.955296
     27          6           0      -11.413067    0.317063   -1.258132
     28          6           0      -10.036216   -0.194148   -0.880980
     29          6           0      -12.418870    2.686824   -1.182330
     30          6           0      -12.545653   -0.498204   -1.725865
     31          6           0      -12.491489   -0.824774   -3.251002
     32          7           0       -7.437077   -1.343362   -0.139844
     33          6           0       -8.482380   -2.123834   -0.531908
     34          6           0       -8.046402   -3.509213   -0.606166
     35          6           0       -6.672816   -3.374663   -0.224609
     36          6           0       -6.435936   -2.093374    0.121507
     37          6           0       -8.689669   -4.760536   -1.139425
     38          6           0       -5.518901   -4.227604    0.057026
     39          8           0       -5.408719   -5.451965   -0.014933
     40          6           0       -4.393597   -3.229888    0.581974
     41          6           0       -3.876609   -3.712480    1.861842
     42          8           0       -4.297123   -3.309105    2.949301
     43          8           0       -2.849853   -4.623984    1.672011
     44          6           0       -2.461191   -5.329389    2.819824
     45          6           0        2.633013   -0.880226   -1.207282
     46          6           0        3.961279   -0.616437   -0.610780
     47          6           0        4.975886    0.078428   -1.077665
     48          6           0        4.867817    0.926595   -2.406471
     49          6           0        6.244217    0.274082   -0.334699
     50          6           0        7.492836   -0.342555   -1.055321
     51          6           0        8.736269   -0.150730   -0.205889
     52          6           0       10.091643   -0.725801   -0.848700
     53          6           0       10.010353   -2.196532   -0.907646
     54          6           0       11.317433   -0.154436    0.003591
     55          6           0       12.728180   -0.525466   -0.647517
     56          6           0       13.825895   -0.077384    0.233402
     57          6           0       15.227349   -0.217341   -0.448427
     58          6           0       15.582631   -1.751354   -0.493990
     59          6           0       16.281697    0.564275    0.438703
     60          6           0       17.675559    0.621976   -0.158902
     61          6           0       18.658340    1.510762    0.615417
     62          6           0       20.205808    1.508472    0.046818
     63          6           0       20.311248    2.067356   -1.252149
     64          6           0       20.943294    2.345110    1.110531
     65          1           0       -4.074262    3.565066    1.693267
     66          1           0      -10.229245    3.901745   -0.595185
     67          1           0      -10.331746   -2.347881   -1.447054
     68          1           0       -2.863760   -0.972432    2.190234
     69          1           0       -2.142013    1.444162    1.230283
     70          1           0       -2.009870    0.700761    3.619158
     71          1           0       -2.535171    2.468310    3.400842
     72          1           0       -3.670770    1.004274    3.968558
     73          1           0       -2.460724   -1.692714   -0.167671
     74          1           0       -2.242446   -0.047430   -0.536152
     75          1           0       -0.206990    0.201626    0.946065
     76          1           0       -0.417641   -1.186417    1.572697
     77          1           0       -4.768663    5.703815    0.669989
     78          1           0       -6.110442    6.752974    1.643681
     79          1           0       -5.034417    5.817864    2.601362
     80          1           0       -8.091300    6.828706    1.051405
     81          1           0       -9.584391    5.999410   -1.559874
     82          1           0       -9.607750    7.481424   -0.559683
     83          1           0      -12.319463    3.131374   -0.215926
     84          1           0      -12.036743    3.475962   -1.954065
     85          1           0      -13.236413    2.266501   -1.535519
     86          1           0      -12.413645   -1.422633   -0.956150
     87          1           0      -13.627874   -0.008701   -1.388401
     88          1           0      -12.650005    0.102945   -3.845657
     89          1           0      -11.631319   -0.962494   -3.675416
     90          1           0      -13.198763   -1.441960   -3.344364
     91          1           0       -9.813949   -4.515713   -0.840498
     92          1           0       -8.721479   -4.801103   -2.226041
     93          1           0       -8.222336   -5.759947   -0.671141
     94          1           0       -3.620572   -3.267928   -0.180367
     95          1           0       -1.601973   -5.998501    2.577982
     96          1           0       -2.059597   -4.584339    3.573623
     97          1           0       -3.395006   -5.903878    3.320216
     98          1           0        2.398865   -1.906680   -1.684190
     99          1           0        2.155683   -0.253246   -2.104889
    100          1           0        4.086647   -1.149890    0.425316
    101          1           0        5.186183    2.009451   -2.139008
    102          1           0        5.661323    0.664793   -3.172321
    103          1           0        3.842197    0.912071   -2.894958
    104          1           0        6.194370    1.371167   -0.262497
    105          1           0        6.247730   -0.474272    0.591852
    106          1           0        7.274361   -1.340079   -1.380338
    107          1           0        7.591392    0.141243   -2.078871
    108          1           0        8.769001    1.003578    0.138030
    109          1           0        8.389444   -0.643987    0.761528
    110          1           0       10.077944   -0.347089   -1.838413
    111          1           0        9.086284   -2.593262   -1.503094
    112          1           0       10.929276   -2.597709   -1.230679
    113          1           0        9.847168   -2.641256    0.131302
    114          1           0       11.158335    0.775708    0.137243
    115          1           0       11.120031   -0.501313    1.118868
    116          1           0       12.778656   -1.545222   -0.880315
    117          1           0       12.760570    0.008017   -1.632419
    118          1           0       13.547028    1.028463    0.664973
    119          1           0       13.961048   -0.610276    1.341772
    120          1           0       15.041406    0.280038   -1.515634
    121          1           0       14.877844   -2.067215   -1.265775
    122          1           0       16.576984   -1.805050   -0.996390
    123          1           0       15.366292   -2.089320    0.459378
    124          1           0       16.017180    1.675553    0.504894
    125          1           0       16.367575    0.265392    1.448633
    126          1           0       18.248580   -0.473271    0.170893
    127          1           0       17.761353    0.865216   -1.345664
    128          1           0       18.309480    2.506384    0.696520
    129          1           0       18.852104    1.096754    1.752942
    130          1           0       20.334688    0.459872    0.305067
    131          1           0       19.737240    3.116101   -1.184414
    132          1           0       21.401666    2.338013   -1.743555
    133          1           0       19.937466    1.577109   -2.067556
    134          1           0       20.893131    2.005684    2.271254
    135          1           0       21.971857    2.330659    0.709902
    136          1           0       20.595795    3.392871    1.274648
    137          1           0       -7.322705    1.818915    0.444161
    138          1           0       -7.121148   -0.379035   -0.134708
 ---------------------------------------------------------------------

 SCF Done:  E(RB3LYP) =  -2733.07054721     A.U. after   17 cycles

 Excitation energies and oscillator strengths:

 Excited State   1:      Singlet-A      2.1413 eV  579.02 nm  f=0.1568  <S**2>=0.000
     235 -> 237       -0.16703
     235 -> 238        0.28471
     236 -> 237        0.60300
     236 -> 238        0.15763
 This state for optimization and/or second-order correction.
 Total Energy, E(TD-HF/TD-KS) =  -2732.99185675
 Copying the excited state density for this state as the 1-particle RhoCI density.

 The electronic state is 1-A.
 Alpha  occ. eigenvalues --  -19.17775 -19.17749 -19.12472 -19.12145 -19.11607
 Alpha  occ. eigenvalues --  -14.36643 -14.36555 -14.32535 -14.29324 -10.31635
 Alpha  occ. eigenvalues --  -10.31620 -10.27773 -10.26318 -10.25058 -10.23374
 Alpha  occ. eigenvalues --  -10.23364 -10.23294 -10.23003 -10.22634 -10.21747
 Alpha  occ. eigenvalues --  -10.21734 -10.21408 -10.21321 -10.21315 -10.21168
 Alpha  occ. eigenvalues --  -10.20893 -10.20780 -10.20725 -10.20704 -10.20618
 Alpha  occ. eigenvalues --  -10.20554 -10.20408 -10.20365 -10.20220 -10.20189
 Alpha  occ. eigenvalues --  -10.20085 -10.20058 -10.20010 -10.19959 -10.19848
 Alpha  occ. eigenvalues --  -10.19816 -10.19737 -10.19656 -10.19402 -10.19261
 Alpha  occ. eigenvalues --  -10.19212 -10.19199 -10.19106 -10.19080 -10.19008
 Alpha  occ. eigenvalues --  -10.18991 -10.18831 -10.18689 -10.18669 -10.18650
 Alpha  occ. eigenvalues --  -10.18343 -10.18342 -10.18247 -10.18193 -10.17950
 Alpha  occ. eigenvalues --  -10.17854 -10.17757 -10.17745 -10.16382  -1.08334
 Alpha  occ. eigenvalues --   -1.08004  -1.01961  -1.01166  -1.01095  -1.00014
 Alpha  occ. eigenvalues --   -0.97242  -0.95549  -0.93954  -0.85032  -0.83116
 Alpha  occ. eigenvalues --   -0.82809  -0.82617  -0.81622  -0.81589  -0.80891
 Alpha  occ. eigenvalues --   -0.80694  -0.79803  -0.79316  -0.78844  -0.77761
 Alpha  occ. eigenvalues --   -0.76845  -0.76358  -0.76203  -0.75399  -0.74884
 Alpha  occ. eigenvalues --   -0.73691  -0.73293  -0.72765  -0.71991  -0.70884
 Alpha  occ. eigenvalues --   -0.70211  -0.69494  -0.68705  -0.67846  -0.67599
 Alpha  occ. eigenvalues --   -0.67517  -0.67092  -0.66326  -0.66221  -0.65273
 Alpha  occ. eigenvalues --   -0.64719  -0.63603  -0.62833  -0.62424  -0.61793
 Alpha  occ. eigenvalues --   -0.61166  -0.58868  -0.58722  -0.58561  -0.57769
 Alpha  occ. eigenvalues --   -0.56963  -0.56803  -0.56456  -0.56332  -0.55388
 Alpha  occ. eigenvalues --   -0.55271  -0.54632  -0.54545  -0.54372  -0.53367
 Alpha  occ. eigenvalues --   -0.52603  -0.51875  -0.51521  -0.51183  -0.50216
 Alpha  occ. eigenvalues --   -0.49792  -0.49173  -0.49008  -0.48438  -0.48285
 Alpha  occ. eigenvalues --   -0.48155  -0.47975  -0.47617  -0.47456  -0.47201
 Alpha  occ. eigenvalues --   -0.47119  -0.46868  -0.46466  -0.45989  -0.45852
 Alpha  occ. eigenvalues --   -0.45607  -0.45343  -0.45189  -0.45071  -0.44965
 Alpha  occ. eigenvalues --   -0.44694  -0.44538  -0.44165  -0.43843  -0.43699
 Alpha  occ. eigenvalues --   -0.43441  -0.43348  -0.43227  -0.43010  -0.42777
 Alpha  occ. eigenvalues --   -0.42335  -0.42174  -0.42123  -0.41862  -0.41703
 Alpha  occ. eigenvalues --   -0.41524  -0.41261  -0.41118  -0.40921  -0.40726
 Alpha  occ. eigenvalues --   -0.40689  -0.40412  -0.40077  -0.39856  -0.39425
 Alpha  occ. eigenvalues --   -0.39132  -0.38942  -0.38570  -0.38265  -0.38201
 Alpha  occ. eigenvalues --   -0.38026  -0.37962  -0.37876  -0.37659  -0.37529
 Alpha  occ. eigenvalues --   -0.37301  -0.37128  -0.37075  -0.36846  -0.36642
 Alpha  occ. eigenvalues --   -0.36523  -0.36469  -0.35927  -0.35793  -0.35482
 Alpha  occ. eigenvalues --   -0.35438  -0.35268  -0.35162  -0.34952  -0.34850
 Alpha  occ. eigenvalues --   -0.34794  -0.34553  -0.34079  -0.34046  -0.33822
 Alpha  occ. eigenvalues --   -0.33563  -0.33412  -0.33176  -0.32863  -0.32435
 Alpha  occ. eigenvalues --   -0.32254  -0.32024  -0.31825  -0.31594  -0.31472
 Alpha  occ. eigenvalues --   -0.31163  -0.31020  -0.30107  -0.29917  -0.29769
 Alpha  occ. eigenvalues --   -0.29519  -0.29006  -0.28703  -0.27792  -0.27766
 Alpha  occ. eigenvalues --   -0.27410  -0.26892  -0.26775  -0.26170  -0.25863
 Alpha  occ. eigenvalues --   -0.25645  -0.24712  -0.24553  -0.22177  -0.20002
 Alpha  occ. eigenvalues --   -0.18598
 Alpha virt. eigenvalues --   -0.09685  -0.07488  -0.04123  -0.01576  -0.00728
 Alpha virt. eigenvalues --   -0.00291   0.00062   0.00881   0.02652   0.03651
 Alpha virt. eigenvalues --    0.03862   0.03964   0.04329   0.04884   0.05019

 Mulliken charges:
               1
     1  C   -0.015594
     2  C   -0.155825
     3  C   -0.083937
     4  C   -0.118851
     5  N   -0.170630
     6  C   -0.119947
     7  C    0.088220
     8  C   -0.088747
     9  C   -0.015415
    10  C    0.032307
    11  C    0.157869
    12  C   -0.008222
    13  C    0.212756
    14  O   -0.301077
    15  O   -0.328365
    16  N    0.089694
    17  C    0.172029
    18  C   -0.170654
    19  C    0.033983
    20  C    0.048852
    21  C    0.051485
    22  C    0.002322
    23  C    0.001490
    24  N   -0.177596
    25  C    0.044929
    26  C   -0.207373
    27  C   -0.060743
    28  C    0.018659
    29  C    0.185501
    30  C   -0.090543
    31  C    0.203957
    32  N    0.088270
    33  C    0.107506
    34  C   -0.127457
    35  C   -0.025918
    36  C    0.013900
    37  C    0.035086
    38  C    0.052750
    39  O   -0.185690
    40  C   -0.042485
    41  C    0.236640
    42  O   -0.241309
    43  O   -0.308160
    44  C    0.143909
    45  C    0.163559
    46  C   -0.058506
    47  C   -0.122396
    48  C    0.019724
    49  C    0.056953
    50  C   -0.013966
    51  C   -0.016585
    52  C   -0.028874
    53  C    0.038666
    54  C    0.091071
    55  C    0.117298
    56  C   -0.082888
    57  C   -0.127447
    58  C    0.105587
    59  C    0.086463
    60  C   -0.043517
    61  C   -0.066879
    62  C   -0.040718
    63  C    0.033585
    64  C   -0.006126
    65  H    0.004139
    66  H   -0.055763
    67  H   -0.012787
    68  H   -0.039818
    69  H    0.010462
    70  H    0.008455
    71  H    0.032976
    72  H    0.033700
    73  H    0.010718
    74  H   -0.024626
    75  H    0.012915
    76  H    0.027855
    77  H    0.055123
    78  H    0.016161
    79  H    0.042838
    80  H   -0.028024
    81  H    0.023976
    82  H    0.014406
    83  H    0.024449
    84  H    0.023690
    85  H   -0.031785
    86  H    0.033546
    87  H    0.028525
    88  H   -0.008893
    89  H   -0.037783
    90  H   -0.034189
    91  H    0.033176
    92  H    0.042209
    93  H    0.082291
    94  H    0.058171
    95  H    0.038208
    96  H    0.023802
    97  H    0.053045
    98  H    0.049653
    99  H    0.054223
   100  H    0.017555
   101  H    0.020542
   102  H    0.033661
   103  H    0.031633
   104  H    0.022856
   105  H    0.019931
   106  H   -0.005437
   107  H   -0.013377
   108  H    0.006147
   109  H   -0.007997
   110  H   -0.021868
   111  H    0.020718
   112  H   -0.004845
   113  H    0.001394
   114  H   -0.075395
   115  H   -0.004845
   116  H   -0.014677
   117  H   -0.002187
   118  H    0.006547
   119  H    0.005268
   120  H    0.006717
   121  H   -0.000398
   122  H    0.024170
   123  H    0.001559
   124  H   -0.008549
   125  H   -0.020377
   126  H    0.006853
   127  H    0.028324
   128  H   -0.020443
   129  H    0.008988
   130  H   -0.005040
   131  H    0.015761
   132  H    0.016175
   133  H   -0.007712
   134  H    0.017058
   135  H    0.009250
   136  H    0.006510
   137  H    0.089358
   138  H    0.148552
 Sum of Mulliken charges =   0.00000

 Dipole moment (field-independent basis, Debye):
    X=              2.9081    Y=              4.5371    Z=             -0.4268  Tot=              5.4059
 Quadrupole moment (field-independent basis, Debye-Ang):
   XX=           -362.0065   YY=           -388.5443   ZZ=           -391.9124
   XY=            -21.5196   XZ=              9.7362   YZ=              1.2158

 Normal termination of Gaussian 09 at Fri Aug  2 15:37:42 2019.
