 Gaussian 09, Revision D.01,
 Gaussian 09:  ES64L-G09RevD.01 24-Apr-2013

 --------------------------
 # td=(NStates=1) B3LYP/SVP
 --------------------------

 --
 TD
 --
 Symbolic Z-matrix:
 Charge =  0 Multiplicity = 1

                         Standard orientation:
 ---------------------------------------------------------------------
 Center     Atomic      Atomic             Coordinates (Angstroms)
 Number     Number       Type             X           Y           Z
 ---------------------------------------------------------------------
      1          6           0       -5.126045   -1.931596    0.437592
      2          6           0       -4.867827    2.783932    1.656377
      3          6           0       -9.430825    3.265599   -0.135666
      4          6           0       -9.762894   -1.579914   -0.990975
      5          7           0       -5.210167    0.400359    0.925787
      6          6           0       -4.564974   -0.750031    0.934459
      7          6           0       -3.002606   -0.555079    1.281784
      8          6           0       -3.112219    0.842506    1.946326
      9          6           0       -4.394600    1.391593    1.473586
     10          6           0       -3.000845    0.838509    3.484120
     11          6           0       -2.092787   -0.703737    0.151740
     12          6           0       -0.611292   -0.646176    0.449742
     13          6           0        0.246129   -0.876247   -0.684206
     14          8           0       -0.079036   -1.146236   -1.805757
     15          8           0        1.614909   -0.752037   -0.267567
     16          7           0       -7.139362    2.672029    0.556964
     17          6           0       -6.006481    3.346335    1.173403
     18          6           0       -6.367300    4.763692    1.209310
     19          6           0       -7.592422    4.896766    0.510215
     20          6           0       -8.077317    3.562249    0.213155
     21          6           0       -5.328204    5.857653    1.466121
     22          6           0       -8.263443    6.142283    0.440114
     23          6           0       -9.147874    6.504002   -0.577889
     24          7           0       -9.129496    0.787198   -0.472927
     25          6           0       -9.902196    1.948525   -0.615613
     26          6           0      -11.220243    1.783399   -1.110023
     27          6           0      -11.402071    0.373001   -1.237492
     28          6           0      -10.107074   -0.174211   -0.922197
     29          6           0      -12.284078    2.895623   -1.259836
     30          6           0      -12.596286   -0.327829   -1.632548
     31          6           0      -12.591121   -0.672718   -3.215544
     32          7           0       -7.512382   -1.280349   -0.285775
     33          6           0       -8.584433   -2.087701   -0.719864
     34          6           0       -8.090789   -3.492631   -0.596945
     35          6           0       -6.790921   -3.444633   -0.231567
     36          6           0       -6.415309   -2.068908    0.038223
     37          6           0       -8.922533   -4.678936   -0.921549
     38          6           0       -5.625893   -4.290292    0.083522
     39          8           0       -5.473454   -5.472724    0.044133
     40          6           0       -4.429665   -3.293024    0.400099
     41          6           0       -3.811117   -3.817407    1.760861
     42          8           0       -4.048141   -3.280228    2.777149
     43          8           0       -2.989791   -4.803600    1.533996
     44          6           0       -2.331450   -5.425882    2.706919
     45          6           0        2.638138   -0.918616   -1.258381
     46          6           0        3.917197   -0.599827   -0.668109
     47          6           0        4.875253    0.257932   -1.157163
     48          6           0        4.840554    1.058636   -2.472431
     49          6           0        6.235187    0.448218   -0.396394
     50          6           0        7.489843   -0.158125   -0.985254
     51          6           0        8.722788   -0.092509   -0.087389
     52          6           0        9.989756   -0.490714   -0.735789
     53          6           0       10.029992   -2.075488   -1.216468
     54          6           0       11.250902   -0.227635    0.067902
     55          6           0       12.649422   -0.317776   -0.527735
     56          6           0       13.827934    0.215806    0.301065
     57          6           0       15.100916   -0.137786   -0.367706
     58          6           0       15.575602   -1.639535   -0.541131
     59          6           0       16.252681    0.586361    0.433712
     60          6           0       17.639239    0.580568   -0.325041
     61          6           0       18.687209    1.425896    0.574608
     62          6           0       20.127718    1.346371    0.164159
     63          6           0       20.287885    1.939663   -1.220034
     64          6           0       21.165212    1.915217    1.237246
     65          1           0       -3.976438    3.436640    2.093163
     66          1           0       -9.981740    4.092309   -0.427020
     67          1           0      -10.628513   -2.198080   -1.351823
     68          1           0       -2.808438   -1.158668    2.069870
     69          1           0       -2.186798    1.294346    1.288196
     70          1           0       -1.994124    0.460363    3.876059
     71          1           0       -3.005896    1.764371    4.078673
     72          1           0       -3.765456    0.228465    3.859545
     73          1           0       -2.244664   -1.748571   -0.113055
     74          1           0       -2.335054    0.065429   -0.464874
     75          1           0       -0.395950    0.159828    0.965107
     76          1           0       -0.480907   -1.518784    1.254444
     77          1           0       -4.583392    5.878161    0.566058
     78          1           0       -5.821906    6.796412    1.664765
     79          1           0       -4.673819    5.640283    2.202830
     80          1           0       -7.963577    7.001641    1.146241
     81          1           0       -9.547310    5.863013   -1.554829
     82          1           0       -9.414991    7.524840   -0.728659
     83          1           0      -12.625205    3.515992   -0.289788
     84          1           0      -12.038227    3.930518   -1.725464
     85          1           0      -13.103493    2.402393   -1.637138
     86          1           0      -12.802769   -1.288564   -1.245115
     87          1           0      -13.312890    0.423697   -1.399724
     88          1           0      -12.659269    0.263150   -3.605408
     89          1           0      -11.765394   -1.239371   -3.469879
     90          1           0      -13.514011   -1.327886   -3.412623
     91          1           0      -10.105174   -4.689835   -0.476217
     92          1           0       -9.120664   -4.653869   -2.121474
     93          1           0       -8.325919   -5.568182   -0.467396
     94          1           0       -3.886510   -3.328219   -0.571827
     95          1           0       -2.039107   -6.493002    2.187215
     96          1           0       -1.488379   -4.810136    3.146152
     97          1           0       -3.224589   -5.552908    3.670139
     98          1           0        2.581797   -1.889126   -1.749745
     99          1           0        2.492121   -0.074415   -2.148048
    100          1           0        4.187898   -1.155544    0.274246
    101          1           0        5.155479    2.098845   -2.200982
    102          1           0        5.770088    0.882865   -2.920637
    103          1           0        3.920978    0.972036   -3.118552
    104          1           0        6.285871    1.533346   -0.362161
    105          1           0        6.025878    0.129142    0.782138
    106          1           0        7.158500   -1.105749   -1.441956
    107          1           0        7.708616    0.546570   -1.888607
    108          1           0        8.768432    0.875066    0.169582
    109          1           0        8.438752   -0.788944    0.774932
    110          1           0       10.065188   -0.087335   -1.925605
    111          1           0        9.315080   -2.372491   -2.012978
    112          1           0       11.012435   -2.345286   -1.611180
    113          1           0        9.830064   -2.712833   -0.316659
    114          1           0       11.116149    0.774441    0.248115
    115          1           0       11.252265   -0.579357    1.206552
    116          1           0       12.897256   -1.446832   -0.598774
    117          1           0       12.736896    0.186200   -1.568415
    118          1           0       13.662365    1.314236    0.511981
    119          1           0       13.744718   -0.302540    1.317124
    120          1           0       14.989932    0.401572   -1.257996
    121          1           0       15.069654   -2.164649   -1.331329
    122          1           0       16.522838   -1.591275   -0.880640
    123          1           0       15.716095   -2.258157    0.432032
    124          1           0       16.169485    1.766624    0.720934
    125          1           0       16.227555    0.266054    1.419468
    126          1           0       18.313568   -0.356159   -0.301576
    127          1           0       17.634333    1.061135   -1.407023
    128          1           0       18.417417    2.575872    0.580389
    129          1           0       18.513201    1.239604    1.638974
    130          1           0       20.431581    0.293017    0.115312
    131          1           0       19.929544    3.111669   -1.332239
    132          1           0       21.230695    2.107487   -1.645786
    133          1           0       20.031629    1.252137   -2.053214
    134          1           0       20.799046    1.273414    2.108784
    135          1           0       22.383593    1.652078    1.173475
    136          1           0       20.993550    3.034249    1.354568
    137          1           0       -7.236570    1.712524    0.300386
    138          1           0       -7.865990   -0.383562   -0.097553
 ---------------------------------------------------------------------

 SCF Done:  E(RB3LYP) =  -2733.05144534     A.U. after   17 cycles

 Excitation energies and oscillator strengths:

 Excited State   1:      Singlet-A      1.9980 eV  620.54 nm  f=0.0914  <S**2>=0.000
     235 -> 238        0.36243
     236 -> 237        0.59978
 This state for optimization and/or second-order correction.
 Total Energy, E(TD-HF/TD-KS) =  -2732.97801980
 Copying the excited state density for this state as the 1-particle RhoCI density.

 The electronic state is 1-A.
 Alpha  occ. eigenvalues --  -19.19061 -19.16321 -19.13601 -19.12912 -19.12686
 Alpha  occ. eigenvalues --  -14.36317 -14.35405 -14.32223 -14.30015 -10.32097
 Alpha  occ. eigenvalues --  -10.31807 -10.28671 -10.27984 -10.24697 -10.24086
 Alpha  occ. eigenvalues --  -10.23530 -10.23507 -10.23221 -10.22652 -10.22416
 Alpha  occ. eigenvalues --  -10.22289 -10.21638 -10.21409 -10.21280 -10.21214
 Alpha  occ. eigenvalues --  -10.21144 -10.21063 -10.20832 -10.20798 -10.20793
 Alpha  occ. eigenvalues --  -10.20680 -10.20554 -10.20242 -10.20128 -10.20062
 Alpha  occ. eigenvalues --  -10.20046 -10.20040 -10.19990 -10.19647 -10.19630
 Alpha  occ. eigenvalues --  -10.19598 -10.19430 -10.19401 -10.19352 -10.19253
 Alpha  occ. eigenvalues --  -10.19251 -10.19009 -10.18991 -10.18961 -10.18835
 Alpha  occ. eigenvalues --  -10.18812 -10.18741 -10.18620 -10.18579 -10.18517
 Alpha  occ. eigenvalues --  -10.18480 -10.18426 -10.18401 -10.18378 -10.18196
 Alpha  occ. eigenvalues --  -10.18001 -10.17880 -10.17809 -10.17712  -1.11364
 Alpha  occ. eigenvalues --   -1.07720  -1.04280  -1.02864  -1.00519  -0.97000
 Alpha  occ. eigenvalues --   -0.96753  -0.94192  -0.90945  -0.85058  -0.83398
 Alpha  occ. eigenvalues --   -0.82473  -0.81596  -0.81560  -0.80641  -0.80402
 Alpha  occ. eigenvalues --   -0.79805  -0.79760  -0.79491  -0.78613  -0.78117
 Alpha  occ. eigenvalues --   -0.76694  -0.75520  -0.74790  -0.74279  -0.73516
 Alpha  occ. eigenvalues --   -0.73194  -0.72791  -0.72051  -0.71115  -0.70739
 Alpha  occ. eigenvalues --   -0.70556  -0.69229  -0.68459  -0.68263  -0.67427
 Alpha  occ. eigenvalues --   -0.67114  -0.67021  -0.65960  -0.65562  -0.65050
 Alpha  occ. eigenvalues --   -0.64331  -0.63298  -0.62681  -0.62201  -0.61285
 Alpha  occ. eigenvalues --   -0.61029  -0.58874  -0.58490  -0.57249  -0.57021
 Alpha  occ. eigenvalues --   -0.56803  -0.55824  -0.55789  -0.55526  -0.55385
 Alpha  occ. eigenvalues --   -0.54988  -0.54287  -0.53868  -0.53198  -0.53111
 Alpha  occ. eigenvalues --   -0.52129  -0.52057  -0.51567  -0.51344  -0.50699
 Alpha  occ. eigenvalues --   -0.50177  -0.49585  -0.49251  -0.48767  -0.48562
 Alpha  occ. eigenvalues --   -0.48067  -0.47676  -0.47570  -0.47364  -0.47115
 Alpha  occ. eigenvalues --   -0.47022  -0.46807  -0.46474  -0.46095  -0.45499
 Alpha  occ. eigenvalues --   -0.45360  -0.45177  -0.44955  -0.44647  -0.44541
 Alpha  occ. eigenvalues --   -0.44379  -0.44088  -0.43994  -0.43651  -0.43531
 Alpha  occ. eigenvalues --   -0.42978  -0.42873  -0.42840  -0.42682  -0.42075
 Alpha  occ. eigenvalues --   -0.41914  -0.41748  -0.41621  -0.41286  -0.41033
 Alpha  occ. eigenvalues --   -0.40964  -0.40729  -0.40546  -0.40336  -0.40020
 Alpha  occ. eigenvalues --   -0.39770  -0.39623  -0.39472  -0.39439  -0.39256
 Alpha  occ. eigenvalues --   -0.39131  -0.39017  -0.38757  -0.38617  -0.38509
 Alpha  occ. eigenvalues --   -0.38206  -0.38192  -0.37987  -0.37864  -0.37439
 Alpha  occ. eigenvalues --   -0.37192  -0.37013  -0.36721  -0.36697  -0.36466
 Alpha  occ. eigenvalues --   -0.36213  -0.36133  -0.35997  -0.35769  -0.35546
 Alpha  occ. eigenvalues --   -0.35385  -0.35265  -0.35226  -0.34888  -0.34779
 Alpha  occ. eigenvalues --   -0.34632  -0.34488  -0.34431  -0.34175  -0.34018
 Alpha  occ. eigenvalues --   -0.33836  -0.33671  -0.33251  -0.32876  -0.32083
 Alpha  occ. eigenvalues --   -0.32008  -0.31851  -0.31823  -0.31540  -0.31221
 Alpha  occ. eigenvalues --   -0.31113  -0.30845  -0.30706  -0.30555  -0.30129
 Alpha  occ. eigenvalues --   -0.29386  -0.28960  -0.28841  -0.28776  -0.28380
 Alpha  occ. eigenvalues --   -0.28105  -0.27875  -0.26670  -0.26286  -0.25689
 Alpha  occ. eigenvalues --   -0.24931  -0.24210  -0.22959  -0.21501  -0.19786
 Alpha  occ. eigenvalues --   -0.18245
 Alpha virt. eigenvalues --   -0.09424  -0.08780  -0.04673  -0.02109  -0.01258
 Alpha virt. eigenvalues --   -0.00208   0.00226   0.00946   0.02180   0.03311
 Alpha virt. eigenvalues --    0.04091   0.04183   0.04533   0.04550   0.04735

 Mulliken charges:
               1
     1  C   -0.060229
     2  C   -0.093341
     3  C    0.016930
     4  C   -0.104351
     5  N   -0.144678
     6  C   -0.114636
     7  C    0.017142
     8  C   -0.080679
     9  C   -0.046252
    10  C    0.086223
    11  C    0.190927
    12  C    0.049706
    13  C    0.218238
    14  O   -0.197919
    15  O   -0.377746
    16  N   -0.062382
    17  C    0.178628
    18  C   -0.156305
    19  C    0.059731
    20  C    0.053146
    21  C    0.127157
    22  C   -0.074947
    23  C   -0.091722
    24  N   -0.337859
    25  C    0.069444
    26  C   -0.106371
    27  C   -0.095875
    28  C    0.045059
    29  C    0.062873
    30  C    0.068875
    31  C    0.048227
    32  N   -0.045850
    33  C    0.117033
    34  C   -0.125427
    35  C    0.020457
    36  C    0.167590
    37  C   -0.039381
    38  C    0.029317
    39  O   -0.142968
    40  C   -0.047415
    41  C    0.206835
    42  O   -0.187192
    43  O   -0.267400
    44  C    0.059388
    45  C    0.262374
    46  C   -0.095051
    47  C   -0.165484
    48  C    0.139283
    49  C   -0.013996
    50  C   -0.017928
    51  C    0.169875
    52  C   -0.155247
    53  C   -0.010143
    54  C    0.117194
    55  C   -0.025957
    56  C    0.000539
    57  C    0.002425
    58  C    0.112394
    59  C   -0.015625
    60  C   -0.007909
    61  C   -0.019540
    62  C   -0.058637
    63  C    0.025615
    64  C   -0.051363
    65  H    0.017032
    66  H   -0.067557
    67  H   -0.017541
    68  H   -0.067081
    69  H    0.008347
    70  H    0.010596
    71  H    0.011966
    72  H    0.020396
    73  H    0.005805
    74  H   -0.019355
    75  H   -0.025296
    76  H    0.043847
    77  H    0.041347
    78  H    0.012267
    79  H   -0.015822
    80  H    0.031357
    81  H    0.063897
    82  H    0.015716
    83  H    0.022984
    84  H    0.024119
    85  H   -0.007979
    86  H   -0.009545
    87  H   -0.001394
    88  H   -0.002762
    89  H    0.002124
    90  H    0.014967
    91  H    0.050691
    92  H    0.062585
    93  H    0.069020
    94  H    0.073870
    95  H    0.086658
    96  H    0.066605
    97  H    0.077679
    98  H    0.023922
    99  H    0.018710
   100  H   -0.004300
   101  H   -0.006899
   102  H   -0.018207
   103  H    0.041888
   104  H   -0.003084
   105  H    0.013407
   106  H    0.014116
   107  H   -0.001409
   108  H   -0.041569
   109  H    0.011414
   110  H    0.013832
   111  H    0.011750
   112  H    0.008164
   113  H    0.000643
   114  H   -0.051011
   115  H    0.001448
   116  H    0.014317
   117  H    0.003459
   118  H    0.000666
   119  H   -0.014849
   120  H   -0.035100
   121  H    0.005496
   122  H   -0.042466
   123  H    0.017939
   124  H    0.003312
   125  H   -0.027960
   126  H    0.024468
   127  H    0.039869
   128  H   -0.008520
   129  H   -0.014119
   130  H   -0.008977
   131  H    0.014803
   132  H   -0.029522
   133  H    0.004731
   134  H    0.019281
   135  H    0.038251
   136  H    0.028453
   137  H    0.135617
   138  H    0.113670
 Sum of Mulliken charges =   0.00000

 Dipole moment (field-independent basis, Debye):
    X=              3.5138    Y=              2.5269    Z=              0.9973  Tot=              4.4415
 Quadrupole moment (field-independent basis, Debye-Ang):
   XX=           -355.8627   YY=           -376.4688   ZZ=           -393.8655
   XY=            -16.0944   XZ=              6.6711   YZ=             -3.9402

 Normal termination of Gaussian 09 at Sun Aug  4 09:31:57 2019.
