 Gaussian 09, Revision D.01,
 Gaussian 09:  ES64L-G09RevD.01 24-Apr-2013

 --------------------------
 # td=(NStates=1) B3LYP/SVP
 --------------------------

 --
 TD
 --
 Symbolic Z-matrix:
 Charge =  0 Multiplicity = 1

                         Standard orientation:
 ---------------------------------------------------------------------
 Center     Atomic      Atomic             Coordinates (Angstroms)
 Number     Number       Type             X           Y           Z
 ---------------------------------------------------------------------
      1          6           0       -5.140579   -1.924022    0.406666
      2          6           0       -4.758030    2.740956    1.666632
      3          6           0       -9.303835    3.305718   -0.176465
      4          6           0       -9.852023   -1.414985   -0.854802
      5          7           0       -5.189833    0.496586    0.803507
      6          6           0       -4.584004   -0.663820    0.711966
      7          6           0       -3.035810   -0.514191    1.203526
      8          6           0       -3.073295    0.791194    1.852381
      9          6           0       -4.394674    1.393293    1.406190
     10          6           0       -2.998065    0.724486    3.391589
     11          6           0       -2.029419   -0.706504   -0.025234
     12          6           0       -0.609159   -0.825360    0.351681
     13          6           0        0.408501   -0.981790   -0.715315
     14          8           0        0.161927   -1.315047   -1.887808
     15          8           0        1.730704   -0.732710   -0.331964
     16          7           0       -6.951788    2.671149    0.416834
     17          6           0       -5.934331    3.341470    1.138507
     18          6           0       -6.255960    4.817020    1.184566
     19          6           0       -7.492099    4.944800    0.542259
     20          6           0       -7.997338    3.626752    0.161963
     21          6           0       -5.345991    5.829774    1.597579
     22          6           0       -8.240279    6.311183    0.393467
     23          6           0       -9.060393    6.517715   -0.579171
     24          7           0       -9.160693    0.874595   -0.609257
     25          6           0       -9.756124    2.092521   -0.638362
     26          6           0      -11.222428    1.877188   -0.934558
     27          6           0      -11.415488    0.595656   -1.248666
     28          6           0      -10.169550   -0.066716   -0.842480
     29          6           0      -12.159188    3.095624   -1.151087
     30          6           0      -12.620827   -0.126100   -1.687221
     31          6           0      -12.626590   -0.487387   -3.128246
     32          7           0       -7.572003   -1.250643   -0.243466
     33          6           0       -8.694237   -2.059228   -0.656657
     34          6           0       -8.231818   -3.445206   -0.583758
     35          6           0       -6.884025   -3.382780   -0.281125
     36          6           0       -6.487158   -2.079463   -0.042092
     37          6           0       -9.107639   -4.695416   -0.839277
     38          6           0       -5.677558   -4.303561   -0.020423
     39          8           0       -5.620620   -5.532353   -0.006257
     40          6           0       -4.472630   -3.275247    0.358937
     41          6           0       -3.953765   -3.823175    1.770175
     42          8           0       -4.286879   -3.373243    2.786264
     43          8           0       -3.060035   -4.924819    1.573308
     44          6           0       -2.597676   -5.568561    2.704851
     45          6           0        2.737867   -1.070444   -1.225082
     46          6           0        4.063019   -0.745258   -0.680249
     47          6           0        5.027073    0.152229   -0.993891
     48          6           0        4.867351    0.921376   -2.248280
     49          6           0        6.289226    0.244022   -0.202137
     50          6           0        7.466892   -0.291453   -0.891139
     51          6           0        8.744710   -0.186385   -0.060574
     52          6           0       10.074287   -0.591436   -0.787369
     53          6           0       10.056811   -2.073529   -1.292624
     54          6           0       11.213494   -0.410488    0.137882
     55          6           0       12.635331   -0.563894   -0.606903
     56          6           0       13.824978   -0.046492    0.260911
     57          6           0       15.229567   -0.232476   -0.284421
     58          6           0       15.636475   -1.614614   -0.494252
     59          6           0       16.333463    0.721522    0.423200
     60          6           0       17.727877    0.570434   -0.200188
     61          6           0       18.541618    1.648203    0.525799
     62          6           0       20.019873    1.664321    0.204954
     63          6           0       20.263467    2.063412   -1.289376
     64          6           0       20.914384    2.488964    1.147917
     65          1           0       -4.204262    3.456919    2.288003
     66          1           0      -10.092451    4.221747   -0.416357
     67          1           0      -10.729044   -2.154228   -1.035268
     68          1           0       -2.872797   -1.287761    1.975076
     69          1           0       -2.021566    1.376770    1.576751
     70          1           0       -1.935903    0.178996    3.765061
     71          1           0       -3.194812    1.746156    3.833157
     72          1           0       -3.809790   -0.040508    3.849469
     73          1           0       -2.432541   -1.649667   -0.603097
     74          1           0       -2.444800    0.027819   -0.683073
     75          1           0       -0.131090    0.085670    0.887507
     76          1           0       -0.415146   -1.469964    1.169907
     77          1           0       -4.425967    5.523799    0.869119
     78          1           0       -5.724600    6.722354    1.876665
     79          1           0       -5.041266    5.466814    2.551963
     80          1           0       -7.744562    7.195102    0.988248
     81          1           0       -9.371256    5.897496   -1.317907
     82          1           0       -9.552157    7.462827   -0.622967
     83          1           0      -12.378424    3.750962   -0.043224
     84          1           0      -11.502244    3.859921   -1.741088
     85          1           0      -13.186818    2.818150   -1.628701
     86          1           0      -12.703344   -0.979120   -1.110510
     87          1           0      -13.523993    0.394521   -1.385357
     88          1           0      -12.564241    0.495713   -3.818937
     89          1           0      -11.846416   -1.115380   -3.714003
     90          1           0      -13.632843   -0.888250   -3.544251
     91          1           0       -9.761319   -4.737576    0.065618
     92          1           0       -9.937115   -4.657554   -1.797005
     93          1           0       -8.459838   -5.555717   -0.867437
     94          1           0       -3.808635   -3.573220   -0.347880
     95          1           0       -2.104972   -6.551117    2.658017
     96          1           0       -1.601677   -5.055942    3.303922
     97          1           0       -3.448418   -5.783137    3.511485
     98          1           0        2.737160   -2.115746   -1.322482
     99          1           0        2.549421   -0.638850   -2.125178
    100          1           0        4.172959   -1.441143    0.162494
    101          1           0        5.163268    1.901329   -2.064986
    102          1           0        5.636378    0.668033   -2.884616
    103          1           0        3.829500    0.785238   -2.902578
    104          1           0        6.314835    1.459480    0.134984
    105          1           0        6.214948   -0.341626    0.830370
    106          1           0        7.126395   -1.376414   -1.255890
    107          1           0        7.663801    0.007483   -1.878421
    108          1           0        8.791553    0.856636    0.225151
    109          1           0        8.470072   -0.826515    0.748083
    110          1           0       10.290380   -0.004251   -1.673057
    111          1           0        9.069865   -2.376332   -1.845939
    112          1           0       10.926418   -2.402572   -1.840607
    113          1           0        9.924799   -2.840923   -0.443181
    114          1           0       11.181722    0.673052    0.778310
    115          1           0       11.230859   -1.159232    0.970069
    116          1           0       12.862854   -1.681322   -0.910362
    117          1           0       12.592286    0.115084   -1.585027
    118          1           0       13.359671    1.070234    0.524881
    119          1           0       13.788965   -0.723499    1.194946
    120          1           0       14.976326    0.120709   -1.364884
    121          1           0       14.894677   -2.368402   -1.072475
    122          1           0       16.729868   -1.744501   -1.029161
    123          1           0       15.826810   -1.810517    0.525344
    124          1           0       16.129215    1.757975    0.495855
    125          1           0       16.531068    0.182141    1.329732
    126          1           0       18.011165   -0.516114    0.066276
    127          1           0       17.653858    0.826646   -1.247844
    128          1           0       18.133756    2.549928    0.506887
    129          1           0       18.715520    1.289829    1.585745
    130          1           0       20.574841    0.541900    0.323957
    131          1           0       19.822951    3.081137   -1.572679
    132          1           0       21.321781    2.158689   -1.473287
    133          1           0       19.813464    1.267429   -2.081356
    134          1           0       20.817098    2.070454    2.273006
    135          1           0       22.051986    2.400391    1.039919
    136          1           0       20.644689    3.525966    1.140194
    137          1           0       -6.913943    1.724222    0.431047
    138          1           0       -7.675161   -0.224184   -0.140855
 ---------------------------------------------------------------------

 SCF Done:  E(RB3LYP) =  -2733.04435741     A.U. after   17 cycles

 Excitation energies and oscillator strengths:

 Excited State   1:      Singlet-A      2.0833 eV  595.12 nm  f=0.1438  <S**2>=0.000
     235 -> 238        0.32800
     236 -> 237        0.62303
 This state for optimization and/or second-order correction.
 Total Energy, E(TD-HF/TD-KS) =  -2732.96779585
 Copying the excited state density for this state as the 1-particle RhoCI density.

 The electronic state is 1-A.
 Alpha  occ. eigenvalues --  -19.17859 -19.16655 -19.14433 -19.13337 -19.12023
 Alpha  occ. eigenvalues --  -14.36810 -14.36008 -14.32881 -14.30292 -10.32674
 Alpha  occ. eigenvalues --  -10.31787 -10.29180 -10.25730 -10.24791 -10.24580
 Alpha  occ. eigenvalues --  -10.23966 -10.23530 -10.23414 -10.23119 -10.22239
 Alpha  occ. eigenvalues --  -10.22188 -10.22075 -10.21960 -10.21771 -10.21454
 Alpha  occ. eigenvalues --  -10.21381 -10.21323 -10.21284 -10.21184 -10.21175
 Alpha  occ. eigenvalues --  -10.21107 -10.21080 -10.20981 -10.20907 -10.20714
 Alpha  occ. eigenvalues --  -10.20381 -10.20316 -10.20303 -10.20291 -10.20258
 Alpha  occ. eigenvalues --  -10.20075 -10.19969 -10.19929 -10.19862 -10.19779
 Alpha  occ. eigenvalues --  -10.19607 -10.19407 -10.19331 -10.19223 -10.19169
 Alpha  occ. eigenvalues --  -10.18948 -10.18814 -10.18802 -10.18764 -10.18583
 Alpha  occ. eigenvalues --  -10.18579 -10.18571 -10.18535 -10.18318 -10.18308
 Alpha  occ. eigenvalues --  -10.18241 -10.17993 -10.17508 -10.17426  -1.09976
 Alpha  occ. eigenvalues --   -1.07926  -1.03025  -1.02369  -0.99021  -0.96909
 Alpha  occ. eigenvalues --   -0.96316  -0.95546  -0.92877  -0.84446  -0.83161
 Alpha  occ. eigenvalues --   -0.82648  -0.82234  -0.81775  -0.81155  -0.80975
 Alpha  occ. eigenvalues --   -0.80136  -0.79824  -0.79631  -0.79173  -0.78550
 Alpha  occ. eigenvalues --   -0.77619  -0.76850  -0.75841  -0.75146  -0.74461
 Alpha  occ. eigenvalues --   -0.73860  -0.73025  -0.72526  -0.71876  -0.71580
 Alpha  occ. eigenvalues --   -0.69800  -0.68727  -0.68345  -0.67996  -0.66701
 Alpha  occ. eigenvalues --   -0.66620  -0.66345  -0.66146  -0.65155  -0.65040
 Alpha  occ. eigenvalues --   -0.63892  -0.62948  -0.62065  -0.61768  -0.61305
 Alpha  occ. eigenvalues --   -0.60896  -0.58706  -0.58606  -0.57452  -0.57138
 Alpha  occ. eigenvalues --   -0.56619  -0.56214  -0.56154  -0.55589  -0.55412
 Alpha  occ. eigenvalues --   -0.54754  -0.54487  -0.54113  -0.53769  -0.53416
 Alpha  occ. eigenvalues --   -0.52549  -0.52187  -0.51439  -0.51053  -0.50673
 Alpha  occ. eigenvalues --   -0.50273  -0.50050  -0.49433  -0.48813  -0.48593
 Alpha  occ. eigenvalues --   -0.48339  -0.47953  -0.47823  -0.47421  -0.47196
 Alpha  occ. eigenvalues --   -0.46755  -0.46570  -0.46304  -0.46223  -0.46087
 Alpha  occ. eigenvalues --   -0.45500  -0.45196  -0.44988  -0.44754  -0.44616
 Alpha  occ. eigenvalues --   -0.44096  -0.43918  -0.43802  -0.43773  -0.43636
 Alpha  occ. eigenvalues --   -0.43399  -0.43219  -0.43167  -0.42909  -0.42327
 Alpha  occ. eigenvalues --   -0.42321  -0.42149  -0.41804  -0.41749  -0.41496
 Alpha  occ. eigenvalues --   -0.41459  -0.41280  -0.41016  -0.40943  -0.40509
 Alpha  occ. eigenvalues --   -0.40359  -0.40103  -0.40004  -0.39513  -0.39421
 Alpha  occ. eigenvalues --   -0.39212  -0.39042  -0.38716  -0.38650  -0.38525
 Alpha  occ. eigenvalues --   -0.38446  -0.38298  -0.37957  -0.37762  -0.37676
 Alpha  occ. eigenvalues --   -0.37453  -0.37247  -0.37033  -0.36952  -0.36752
 Alpha  occ. eigenvalues --   -0.36416  -0.36301  -0.36054  -0.35996  -0.35896
 Alpha  occ. eigenvalues --   -0.35214  -0.35040  -0.34784  -0.34579  -0.34247
 Alpha  occ. eigenvalues --   -0.34052  -0.33984  -0.33565  -0.33488  -0.33438
 Alpha  occ. eigenvalues --   -0.33365  -0.33030  -0.32667  -0.32521  -0.32440
 Alpha  occ. eigenvalues --   -0.32210  -0.32132  -0.31659  -0.31620  -0.31269
 Alpha  occ. eigenvalues --   -0.30926  -0.30501  -0.30238  -0.30020  -0.29743
 Alpha  occ. eigenvalues --   -0.29448  -0.28996  -0.28726  -0.28333  -0.28008
 Alpha  occ. eigenvalues --   -0.27635  -0.27193  -0.26673  -0.26622  -0.26009
 Alpha  occ. eigenvalues --   -0.25331  -0.24543  -0.24264  -0.23262  -0.20301
 Alpha  occ. eigenvalues --   -0.18934
 Alpha virt. eigenvalues --   -0.10070  -0.08037  -0.04420  -0.02093  -0.00864
 Alpha virt. eigenvalues --   -0.00480   0.00307   0.00474   0.01825   0.03467
 Alpha virt. eigenvalues --    0.03618   0.03847   0.04107   0.04185   0.04301

 Mulliken charges:
               1
     1  C    0.032795
     2  C   -0.055973
     3  C   -0.105539
     4  C   -0.099673
     5  N   -0.124132
     6  C   -0.110134
     7  C   -0.061267
     8  C   -0.060657
     9  C    0.050625
    10  C   -0.043229
    11  C    0.091822
    12  C    0.092728
    13  C    0.189385
    14  O   -0.258267
    15  O   -0.338219
    16  N   -0.065569
    17  C    0.040073
    18  C   -0.175140
    19  C   -0.011970
    20  C    0.139293
    21  C    0.180933
    22  C   -0.018915
    23  C    0.025444
    24  N   -0.256182
    25  C    0.039723
    26  C   -0.114315
    27  C   -0.069804
    28  C    0.062130
    29  C   -0.038480
    30  C    0.189032
    31  C   -0.079075
    32  N   -0.123645
    33  C    0.087236
    34  C   -0.133001
    35  C   -0.020482
    36  C    0.120152
    37  C    0.052172
    38  C    0.078977
    39  O   -0.173370
    40  C   -0.005905
    41  C    0.213797
    42  O   -0.137736
    43  O   -0.313958
    44  C    0.110713
    45  C    0.412666
    46  C   -0.156740
    47  C   -0.118525
    48  C    0.136877
    49  C    0.018471
    50  C   -0.021241
    51  C    0.110413
    52  C   -0.008295
    53  C   -0.024962
    54  C   -0.016309
    55  C   -0.070908
    56  C   -0.015332
    57  C   -0.025776
    58  C   -0.042157
    59  C    0.063535
    60  C    0.016093
    61  C    0.090548
    62  C   -0.131909
    63  C   -0.011839
    64  C   -0.006120
    65  H   -0.023349
    66  H    0.025474
    67  H   -0.004311
    68  H    0.002807
    69  H    0.027097
    70  H    0.035922
    71  H    0.030276
    72  H    0.046942
    73  H    0.030027
    74  H   -0.005775
    75  H    0.029694
    76  H    0.017081
    77  H    0.072460
    78  H   -0.023443
    79  H    0.003148
    80  H    0.026680
    81  H    0.003031
    82  H    0.011911
    83  H    0.043521
    84  H    0.049964
    85  H    0.044053
    86  H   -0.025886
    87  H   -0.013088
    88  H    0.007795
    89  H    0.036772
    90  H    0.014877
    91  H    0.037423
    92  H    0.054571
    93  H    0.039563
    94  H    0.016908
    95  H    0.029360
    96  H    0.011632
    97  H    0.040674
    98  H   -0.022057
    99  H   -0.051606
   100  H   -0.027153
   101  H   -0.027254
   102  H   -0.017259
   103  H    0.052910
   104  H    0.021178
   105  H    0.019501
   106  H    0.006186
   107  H   -0.026683
   108  H   -0.005962
   109  H   -0.012493
   110  H   -0.011361
   111  H    0.013272
   112  H    0.019658
   113  H    0.001514
   114  H    0.008782
   115  H    0.000062
   116  H    0.024300
   117  H    0.011746
   118  H    0.021644
   119  H   -0.013729
   120  H   -0.023358
   121  H    0.050234
   122  H    0.040819
   123  H   -0.015577
   124  H   -0.007167
   125  H   -0.014889
   126  H    0.016410
   127  H    0.001114
   128  H   -0.040591
   129  H   -0.005607
   130  H    0.005860
   131  H    0.006052
   132  H   -0.000089
   133  H    0.030777
   134  H    0.013148
   135  H    0.021256
   136  H    0.004061
   137  H    0.087193
   138  H    0.150468
 Sum of Mulliken charges =   0.00000

 Dipole moment (field-independent basis, Debye):
    X=              1.1306    Y=              5.0401    Z=              1.4377  Tot=              5.3617
 Quadrupole moment (field-independent basis, Debye-Ang):
   XX=           -341.0787   YY=           -377.6710   ZZ=           -399.2411
   XY=            -25.1268   XZ=              6.6964   YZ=              0.7748

 Normal termination of Gaussian 09 at Wed Jul 31 22:00:05 2019.
