 Gaussian 09, Revision D.01,
 Gaussian 09:  ES64L-G09RevD.01 24-Apr-2013

 --------------------------
 # td=(NStates=1) B3LYP/SVP
 --------------------------

 --
 TD
 --
 Symbolic Z-matrix:
 Charge =  0 Multiplicity = 1

                         Standard orientation:
 ---------------------------------------------------------------------
 Center     Atomic      Atomic             Coordinates (Angstroms)
 Number     Number       Type             X           Y           Z
 ---------------------------------------------------------------------
      1          6           0       -5.080038   -1.886136    0.447520
      2          6           0       -4.724415    2.797101    1.131374
      3          6           0       -9.476953    3.112727   -0.103096
      4          6           0       -9.809351   -1.588146   -0.887337
      5          7           0       -5.169170    0.486836    0.736987
      6          6           0       -4.455543   -0.608842    0.794035
      7          6           0       -2.948402   -0.488022    1.144171
      8          6           0       -3.051910    0.930744    1.753821
      9          6           0       -4.339303    1.519685    1.217773
     10          6           0       -2.903359    1.105439    3.239612
     11          6           0       -2.015872   -0.670230    0.038440
     12          6           0       -0.487923   -0.710287    0.390334
     13          6           0        0.427993   -0.813998   -0.743036
     14          8           0        0.044374   -0.957291   -2.013524
     15          8           0        1.659146   -0.766949   -0.331191
     16          7           0       -7.041675    2.731973    0.455554
     17          6           0       -5.974117    3.408075    0.865762
     18          6           0       -6.351758    4.788099    0.919604
     19          6           0       -7.801718    4.917472    0.650746
     20          6           0       -8.198397    3.547505    0.276385
     21          6           0       -5.357646    5.842525    1.336159
     22          6           0       -8.479779    6.272787    0.461125
     23          6           0       -9.447534    6.586965   -0.437560
     24          7           0       -9.377608    0.747791   -0.454067
     25          6           0      -10.102130    1.861832   -0.450002
     26          6           0      -11.448925    1.653333   -0.841045
     27          6           0      -11.506910    0.336887   -1.053657
     28          6           0      -10.202486   -0.274576   -0.869799
     29          6           0      -12.486774    2.719471   -1.025189
     30          6           0      -12.672345   -0.467446   -1.640138
     31          6           0      -12.702721   -0.775032   -3.190518
     32          7           0       -7.436788   -1.283520   -0.105263
     33          6           0       -8.530137   -2.007342   -0.526694
     34          6           0       -8.073438   -3.388219   -0.534029
     35          6           0       -6.765248   -3.383678   -0.180232
     36          6           0       -6.405151   -2.049063   -0.015000
     37          6           0       -8.781960   -4.658096   -0.868578
     38          6           0       -5.612514   -4.319195    0.111971
     39          8           0       -5.588068   -5.515883    0.109598
     40          6           0       -4.419775   -3.330657    0.493051
     41          6           0       -3.845984   -3.792954    1.751624
     42          8           0       -4.227779   -3.445894    2.834778
     43          8           0       -2.784673   -4.664738    1.513022
     44          6           0       -2.172527   -5.189267    2.673861
     45          6           0        2.690194   -0.864796   -1.327983
     46          6           0        4.021535   -0.696127   -0.610225
     47          6           0        5.014310    0.186715   -1.077871
     48          6           0        4.955684    1.019500   -2.283853
     49          6           0        6.297206    0.311261   -0.288017
     50          6           0        7.504624   -0.483317   -0.958651
     51          6           0        8.836714   -0.170989   -0.104097
     52          6           0       10.114104   -0.784089   -0.763302
     53          6           0       10.086575   -2.223717   -0.812018
     54          6           0       11.302435   -0.232909    0.048620
     55          6           0       12.673119   -0.709511   -0.484483
     56          6           0       13.846941   -0.216859    0.336030
     57          6           0       15.146089   -0.344647   -0.343651
     58          6           0       15.694569   -1.757177   -0.454861
     59          6           0       16.243584    0.580914    0.479833
     60          6           0       17.528188    0.702570   -0.229471
     61          6           0       18.542096    1.594476    0.576809
     62          6           0       20.070124    1.632727    0.135799
     63          6           0       20.194351    2.285974   -1.248571
     64          6           0       21.011255    2.467141    1.162500
     65          1           0       -3.831969    3.434099    1.478416
     66          1           0      -10.328652    3.947642   -0.241260
     67          1           0      -10.352045   -2.290278   -1.158946
     68          1           0       -2.665740   -1.179477    1.968393
     69          1           0       -2.183711    1.671189    1.307629
     70          1           0       -1.812111    0.701828    3.561588
     71          1           0       -3.007708    2.217348    3.606714
     72          1           0       -3.729131    0.371291    3.660935
     73          1           0       -2.278936   -1.757020   -0.401924
     74          1           0       -2.266807    0.189189   -0.738900
     75          1           0       -0.471020    0.058392    1.027244
     76          1           0       -0.148218   -1.538045    1.010469
     77          1           0       -4.457755    5.956979    0.742316
     78          1           0       -5.863801    6.890968    0.917824
     79          1           0       -5.040932    5.818250    2.342155
     80          1           0       -8.364133    6.902226    1.264400
     81          1           0       -9.643899    6.135036   -1.388035
     82          1           0       -9.909202    7.610092   -0.436881
     83          1           0      -12.623707    3.041305   -0.092900
     84          1           0      -12.196708    3.640568   -1.690569
     85          1           0      -13.401659    2.271141   -1.505702
     86          1           0      -12.707659   -1.342821   -0.956791
     87          1           0      -13.610682    0.248199   -1.472412
     88          1           0      -12.592077    0.075651   -3.832555
     89          1           0      -12.092073   -1.584689   -3.542892
     90          1           0      -13.705102   -1.177983   -3.280547
     91          1           0       -9.833801   -4.515370   -0.231771
     92          1           0       -9.286836   -4.846016   -1.904519
     93          1           0       -8.218792   -5.534425   -0.532459
     94          1           0       -3.570419   -3.450297   -0.134876
     95          1           0       -1.127012   -5.657542    2.240050
     96          1           0       -2.011834   -4.338031    3.387433
     97          1           0       -2.689708   -5.922766    3.263537
     98          1           0        2.806544   -1.943015   -1.942371
     99          1           0        2.513050   -0.002255   -2.051455
    100          1           0        4.249049   -1.154578    0.383010
    101          1           0        5.316378    2.027294   -2.360265
    102          1           0        5.486068    0.717926   -3.176417
    103          1           0        4.113461    0.916044   -2.884016
    104          1           0        6.641959    1.435981   -0.350475
    105          1           0        6.131026   -0.047607    0.661034
    106          1           0        7.425590   -1.586056   -1.088217
    107          1           0        7.610738   -0.187706   -2.089607
    108          1           0        8.956569    0.894804   -0.024920
    109          1           0        8.656342   -0.675900    0.846154
    110          1           0       10.287556   -0.316633   -1.778304
    111          1           0        9.229257   -2.594241   -1.207000
    112          1           0       10.920440   -2.927653   -1.094043
    113          1           0        9.778932   -2.429377    0.233625
    114          1           0       11.164742    0.873333    0.198668
    115          1           0       11.191410   -0.577500    1.196795
    116          1           0       12.933790   -1.784314   -0.719242
    117          1           0       12.826955   -0.378772   -1.520835
    118          1           0       13.590743    0.878122    0.501254
    119          1           0       13.863418   -0.727148    1.159213
    120          1           0       15.134705    0.143538   -1.416986
    121          1           0       14.851319   -2.226315   -1.145087
    122          1           0       16.588591   -1.798804   -1.035681
    123          1           0       15.825248   -2.218423    0.399450
    124          1           0       15.576165    1.530144    0.591574
    125          1           0       16.369832    0.179941    1.618708
    126          1           0       18.291580   -0.258846   -0.356936
    127          1           0       17.413285    1.089812   -1.302449
    128          1           0       18.316013    2.632983    0.496086
    129          1           0       18.692395    1.324118    1.544313
    130          1           0       20.325261    0.506262    0.080935
    131          1           0       19.834676    3.217912   -1.420228
    132          1           0       21.220574    2.542575   -1.570151
    133          1           0       19.715977    1.725394   -1.993829
    134          1           0       20.895621    2.006568    2.140565
    135          1           0       22.176995    2.476565    0.640210
    136          1           0       20.784479    3.494746    1.377556
    137          1           0       -7.059784    1.631189    0.387291
    138          1           0       -7.682318   -0.211861   -0.001020
 ---------------------------------------------------------------------

 SCF Done:  E(RB3LYP) =  -2733.06460607     A.U. after   17 cycles

 Excitation energies and oscillator strengths:

 Excited State   1:      Singlet-A      2.1021 eV  589.81 nm  f=0.1896  <S**2>=0.000
     235 -> 237       -0.21414
     235 -> 238       -0.25157
     236 -> 237        0.59667
     236 -> 238       -0.18157
 This state for optimization and/or second-order correction.
 Total Energy, E(TD-HF/TD-KS) =  -2732.98735552
 Copying the excited state density for this state as the 1-particle RhoCI density.

 The electronic state is 1-A.
 Alpha  occ. eigenvalues --  -19.20109 -19.17814 -19.13590 -19.12788 -19.11410
 Alpha  occ. eigenvalues --  -14.37570 -14.37169 -14.32527 -14.29481 -10.32248
 Alpha  occ. eigenvalues --  -10.31355 -10.29114 -10.27241 -10.25117 -10.24526
 Alpha  occ. eigenvalues --  -10.23810 -10.23662 -10.23111 -10.22849 -10.22518
 Alpha  occ. eigenvalues --  -10.21992 -10.21596 -10.21470 -10.21386 -10.21156
 Alpha  occ. eigenvalues --  -10.21070 -10.21033 -10.21026 -10.21014 -10.20982
 Alpha  occ. eigenvalues --  -10.20856 -10.20769 -10.20718 -10.20641 -10.20479
 Alpha  occ. eigenvalues --  -10.20135 -10.20124 -10.20074 -10.20019 -10.20016
 Alpha  occ. eigenvalues --  -10.20006 -10.20000 -10.19993 -10.19732 -10.19653
 Alpha  occ. eigenvalues --  -10.19565 -10.19471 -10.19373 -10.19187 -10.19078
 Alpha  occ. eigenvalues --  -10.18930 -10.18873 -10.18781 -10.18339 -10.18327
 Alpha  occ. eigenvalues --  -10.18089 -10.17929 -10.17707 -10.17589 -10.17029
 Alpha  occ. eigenvalues --  -10.16837 -10.16833 -10.16399 -10.15863  -1.11335
 Alpha  occ. eigenvalues --   -1.08981  -1.04583  -1.01312  -1.00360  -0.97502
 Alpha  occ. eigenvalues --   -0.95130  -0.94941  -0.94266  -0.84133  -0.82855
 Alpha  occ. eigenvalues --   -0.82542  -0.81949  -0.81455  -0.81080  -0.80420
 Alpha  occ. eigenvalues --   -0.79964  -0.79633  -0.79288  -0.79066  -0.78684
 Alpha  occ. eigenvalues --   -0.77074  -0.75892  -0.75715  -0.75176  -0.74440
 Alpha  occ. eigenvalues --   -0.73894  -0.73646  -0.72385  -0.72174  -0.70681
 Alpha  occ. eigenvalues --   -0.70019  -0.69233  -0.69058  -0.68512  -0.68217
 Alpha  occ. eigenvalues --   -0.67992  -0.67789  -0.66413  -0.65654  -0.65271
 Alpha  occ. eigenvalues --   -0.64487  -0.63186  -0.62701  -0.62005  -0.61898
 Alpha  occ. eigenvalues --   -0.61071  -0.58933  -0.58324  -0.58086  -0.57211
 Alpha  occ. eigenvalues --   -0.56873  -0.56322  -0.56037  -0.56009  -0.55125
 Alpha  occ. eigenvalues --   -0.55004  -0.54942  -0.54759  -0.54416  -0.53902
 Alpha  occ. eigenvalues --   -0.53246  -0.52887  -0.51937  -0.51416  -0.50670
 Alpha  occ. eigenvalues --   -0.50409  -0.49508  -0.49102  -0.48911  -0.48608
 Alpha  occ. eigenvalues --   -0.48277  -0.47909  -0.47603  -0.47519  -0.47281
 Alpha  occ. eigenvalues --   -0.46748  -0.46538  -0.46286  -0.45904  -0.45432
 Alpha  occ. eigenvalues --   -0.45368  -0.45232  -0.44989  -0.44973  -0.44890
 Alpha  occ. eigenvalues --   -0.44603  -0.44219  -0.44105  -0.43961  -0.43640
 Alpha  occ. eigenvalues --   -0.43456  -0.43288  -0.43161  -0.43041  -0.42908
 Alpha  occ. eigenvalues --   -0.42609  -0.42460  -0.42067  -0.41975  -0.41875
 Alpha  occ. eigenvalues --   -0.41392  -0.41082  -0.40799  -0.40643  -0.40252
 Alpha  occ. eigenvalues --   -0.40162  -0.39968  -0.39674  -0.39518  -0.39431
 Alpha  occ. eigenvalues --   -0.39301  -0.39142  -0.38974  -0.38869  -0.38462
 Alpha  occ. eigenvalues --   -0.38341  -0.38283  -0.37933  -0.37801  -0.37748
 Alpha  occ. eigenvalues --   -0.37556  -0.37522  -0.37197  -0.37077  -0.36867
 Alpha  occ. eigenvalues --   -0.36463  -0.36243  -0.36070  -0.35852  -0.35731
 Alpha  occ. eigenvalues --   -0.35710  -0.35494  -0.35384  -0.35180  -0.35133
 Alpha  occ. eigenvalues --   -0.34954  -0.34504  -0.34198  -0.34161  -0.33919
 Alpha  occ. eigenvalues --   -0.33764  -0.33608  -0.33264  -0.33029  -0.32819
 Alpha  occ. eigenvalues --   -0.32397  -0.32139  -0.32105  -0.31420  -0.31345
 Alpha  occ. eigenvalues --   -0.31065  -0.30491  -0.30219  -0.30171  -0.29761
 Alpha  occ. eigenvalues --   -0.29640  -0.29179  -0.28509  -0.28213  -0.28037
 Alpha  occ. eigenvalues --   -0.26730  -0.26706  -0.26461  -0.26380  -0.26218
 Alpha  occ. eigenvalues --   -0.25694  -0.23887  -0.23815  -0.22933  -0.20229
 Alpha  occ. eigenvalues --   -0.18625
 Alpha virt. eigenvalues --   -0.10102  -0.07672  -0.04019  -0.02590  -0.01773
 Alpha virt. eigenvalues --   -0.01072  -0.00335   0.00068   0.01783   0.03415
 Alpha virt. eigenvalues --    0.04103   0.04147   0.04259   0.04382   0.04719

 Mulliken charges:
               1
     1  C    0.007024
     2  C   -0.069876
     3  C   -0.067063
     4  C    0.027597
     5  N   -0.179112
     6  C   -0.073865
     7  C    0.008007
     8  C   -0.094981
     9  C   -0.002982
    10  C    0.005433
    11  C    0.011060
    12  C    0.100575
    13  C    0.227055
    14  O   -0.345736
    15  O   -0.254653
    16  N   -0.103492
    17  C    0.121703
    18  C   -0.153065
    19  C   -0.004978
    20  C    0.100805
    21  C    0.070464
    22  C    0.025147
    23  C   -0.048849
    24  N   -0.239517
    25  C   -0.036664
    26  C   -0.108462
    27  C   -0.104938
    28  C    0.114260
    29  C    0.132138
    30  C    0.003609
    31  C    0.056949
    32  N   -0.002452
    33  C    0.055467
    34  C   -0.147087
    35  C   -0.021844
    36  C    0.051259
    37  C    0.013406
    38  C    0.114229
    39  O   -0.136358
    40  C   -0.012216
    41  C    0.172215
    42  O   -0.205417
    43  O   -0.324493
    44  C    0.151396
    45  C    0.213821
    46  C   -0.104367
    47  C   -0.116249
    48  C    0.123902
    49  C    0.105243
    50  C   -0.044313
    51  C    0.032899
    52  C   -0.060408
    53  C    0.119097
    54  C    0.010333
    55  C    0.031169
    56  C    0.143265
    57  C   -0.161644
    58  C    0.113260
    59  C   -0.014604
    60  C   -0.000321
    61  C    0.078526
    62  C   -0.128700
    63  C    0.097739
    64  C   -0.014390
    65  H   -0.016957
    66  H    0.008103
    67  H   -0.162922
    68  H   -0.002934
    69  H    0.012096
    70  H    0.031438
    71  H    0.042172
    72  H    0.045209
    73  H    0.036980
    74  H    0.042445
    75  H   -0.019357
    76  H    0.021326
    77  H    0.014029
    78  H    0.023606
    79  H    0.029286
    80  H   -0.002290
    81  H    0.027239
    82  H    0.028802
    83  H   -0.002833
    84  H    0.035025
    85  H    0.016378
    86  H    0.014017
    87  H    0.006496
    88  H    0.014926
    89  H    0.003688
    90  H    0.005482
    91  H    0.027549
    92  H    0.049182
    93  H    0.051756
    94  H    0.030082
    95  H    0.049354
    96  H    0.025812
    97  H    0.031804
    98  H    0.071215
    99  H    0.051769
   100  H    0.004154
   101  H    0.007083
   102  H   -0.004044
   103  H   -0.042183
   104  H    0.017328
   105  H   -0.025525
   106  H    0.003839
   107  H    0.003380
   108  H   -0.008406
   109  H    0.001126
   110  H   -0.010744
   111  H   -0.044812
   112  H    0.030378
   113  H   -0.031601
   114  H   -0.003111
   115  H   -0.012187
   116  H   -0.009332
   117  H   -0.034087
   118  H   -0.009930
   119  H   -0.057819
   120  H   -0.003037
   121  H    0.004870
   122  H    0.000548
   123  H   -0.027407
   124  H    0.009457
   125  H    0.010202
   126  H    0.017371
   127  H    0.012598
   128  H   -0.019388
   129  H   -0.035056
   130  H    0.006122
   131  H   -0.038472
   132  H   -0.014714
   133  H   -0.015990
   134  H    0.007656
   135  H    0.036515
   136  H    0.009938
   137  H    0.184500
   138  H    0.184845
 Sum of Mulliken charges =   0.00000

 Dipole moment (field-independent basis, Debye):
    X=              2.4791    Y=              3.9579    Z=              0.5598  Tot=              4.7036
 Quadrupole moment (field-independent basis, Debye-Ang):
   XX=           -367.6310   YY=           -384.6172   ZZ=           -396.6595
   XY=            -20.2933   XZ=             11.6631   YZ=             -1.1288

 Normal termination of Gaussian 09 at Sat Aug  3 19:03:57 2019.
