 Gaussian 09, Revision D.01,
 Gaussian 09:  ES64L-G09RevD.01 24-Apr-2013

 --------------------------
 # td=(NStates=1) B3LYP/SVP
 --------------------------

 --
 TD
 --
 Symbolic Z-matrix:
 Charge =  0 Multiplicity = 1

                         Standard orientation:
 ---------------------------------------------------------------------
 Center     Atomic      Atomic             Coordinates (Angstroms)
 Number     Number       Type             X           Y           Z
 ---------------------------------------------------------------------
      1          6           0       -5.109205   -1.989045    0.380113
      2          6           0       -4.684615    2.614747    1.374602
      3          6           0       -9.232166    3.471429   -0.220865
      4          6           0       -9.857808   -1.282291   -0.916265
      5          7           0       -5.109540    0.421939    0.714780
      6          6           0       -4.507137   -0.805265    0.730032
      7          6           0       -3.084554   -0.698440    1.292563
      8          6           0       -3.022034    0.741011    1.817424
      9          6           0       -4.321966    1.394566    1.227875
     10          6           0       -2.875939    0.950727    3.362220
     11          6           0       -2.036151   -0.920823    0.176605
     12          6           0       -0.611828   -0.915997    0.761500
     13          6           0        0.393239   -1.244428   -0.409049
     14          8           0        0.034869   -1.761170   -1.451575
     15          8           0        1.638723   -0.821568   -0.174958
     16          7           0       -6.962970    2.791240    0.491220
     17          6           0       -5.812843    3.282301    0.959227
     18          6           0       -5.995172    4.737544    0.981612
     19          6           0       -7.349908    5.002438    0.468308
     20          6           0       -7.877786    3.756929    0.229434
     21          6           0       -5.021135    5.768127    1.429077
     22          6           0       -7.856159    6.346039    0.425555
     23          6           0       -8.920919    6.719469   -0.355654
     24          7           0       -9.182996    1.058922   -0.492952
     25          6           0       -9.780628    2.193026   -0.542996
     26          6           0      -11.166877    2.098700   -0.945680
     27          6           0      -11.415344    0.689540   -1.148315
     28          6           0      -10.024969    0.087808   -0.872638
     29          6           0      -12.277331    3.112955   -0.975149
     30          6           0      -12.617104   -0.015380   -1.596900
     31          6           0      -12.780153   -0.192978   -3.103068
     32          7           0       -7.480927   -1.181151   -0.324740
     33          6           0       -8.578095   -1.841673   -0.670579
     34          6           0       -8.247091   -3.245175   -0.676472
     35          6           0       -6.908084   -3.347365   -0.222286
     36          6           0       -6.502436   -2.063541   -0.068098
     37          6           0       -9.069286   -4.411316   -1.048701
     38          6           0       -5.776371   -4.268286   -0.088373
     39          8           0       -5.746148   -5.515242   -0.223311
     40          6           0       -4.519832   -3.437316    0.384050
     41          6           0       -4.027132   -3.960761    1.694658
     42          8           0       -4.259144   -3.487321    2.829058
     43          8           0       -3.400461   -5.103094    1.500906
     44          6           0       -2.916371   -5.827753    2.658961
     45          6           0        2.691049   -1.093242   -1.201861
     46          6           0        4.043107   -0.816052   -0.611480
     47          6           0        4.890728   -0.085970   -1.144669
     48          6           0        4.765129    0.708246   -2.464292
     49          6           0        6.179416    0.188969   -0.365435
     50          6           0        7.445066   -0.617820   -0.974844
     51          6           0        8.785793   -0.188869   -0.247250
     52          6           0       10.146310   -0.719789   -0.820558
     53          6           0       10.030666   -2.239524   -0.981360
     54          6           0       11.335468   -0.329863   -0.007695
     55          6           0       12.726284   -0.687141   -0.474626
     56          6           0       13.842548    0.031462    0.110976
     57          6           0       15.169649   -0.213788   -0.492621
     58          6           0       15.585045   -1.676408   -0.526469
     59          6           0       16.191011    0.646142    0.359961
     60          6           0       17.565514    0.830686   -0.122897
     61          6           0       18.533477    1.621220    0.744087
     62          6           0       20.055633    1.690093    0.155929
     63          6           0       20.078550    2.435217   -1.353399
     64          6           0       20.942791    2.473234    1.192574
     65          1           0       -4.015813    3.397745    1.787031
     66          1           0       -9.974942    4.428765   -0.239694
     67          1           0      -10.709272   -1.958981   -1.043619
     68          1           0       -2.836046   -1.337147    2.029756
     69          1           0       -2.319860    1.319028    1.328100
     70          1           0       -1.795038    0.498956    3.741509
     71          1           0       -2.674172    2.171971    3.638859
     72          1           0       -3.560984    0.398032    3.905319
     73          1           0       -2.024950   -1.900363   -0.441348
     74          1           0       -2.153940   -0.194233   -0.643761
     75          1           0       -0.093632    0.158494    1.114283
     76          1           0       -0.548467   -1.619352    1.527196
     77          1           0       -4.311196    6.222881    0.672873
     78          1           0       -5.584278    6.769066    2.223500
     79          1           0       -4.312104    5.126073    2.256859
     80          1           0       -7.550599    7.008642    1.237527
     81          1           0       -9.491924    6.023490   -1.094481
     82          1           0       -9.226568    7.797767   -0.225206
     83          1           0      -12.392135    3.725736    0.100404
     84          1           0      -11.803343    3.988595   -1.629088
     85          1           0      -13.335514    2.864926   -1.316869
     86          1           0      -12.388502   -0.969937   -1.027133
     87          1           0      -13.649876    0.364682   -1.144478
     88          1           0      -12.834723    0.646250   -3.736232
     89          1           0      -11.923930   -0.678209   -3.529309
     90          1           0      -13.849166   -0.966540   -3.310405
     91          1           0       -9.857139   -4.597116   -0.370963
     92          1           0       -9.425820   -4.478473   -2.210825
     93          1           0       -8.582143   -5.348446   -0.990634
     94          1           0       -3.840307   -3.694682   -0.490709
     95          1           0       -2.343976   -6.683706    2.518388
     96          1           0       -2.353198   -5.120839    3.236290
     97          1           0       -3.642311   -6.197999    3.377819
     98          1           0        2.627852   -2.208323   -1.465697
     99          1           0        2.274114   -0.450032   -2.016086
    100          1           0        4.203099   -1.260933    0.421808
    101          1           0        4.776454    1.994244   -2.227279
    102          1           0        5.905709    0.539221   -3.033334
    103          1           0        3.906240    0.038685   -3.111797
    104          1           0        6.513578    1.207002   -0.178651
    105          1           0        6.069550   -0.012866    0.651999
    106          1           0        7.375884   -1.850515   -0.958646
    107          1           0        7.540166   -0.381123   -1.934375
    108          1           0        9.054064    0.884701   -0.085099
    109          1           0        8.817620   -0.542759    0.836861
    110          1           0       10.296970   -0.197896   -1.706732
    111          1           0        9.046845   -2.758571   -1.473260
    112          1           0       10.702962   -2.814810   -1.718463
    113          1           0        9.966738   -2.604557    0.067212
    114          1           0       11.165579    0.682385    0.321793
    115          1           0       11.258402   -0.777314    1.171839
    116          1           0       12.697700   -1.762344   -0.672735
    117          1           0       12.721794   -0.472876   -1.705049
    118          1           0       13.534990    1.186169    0.155089
    119          1           0       13.886675   -0.241524    1.108896
    120          1           0       15.329276    0.206375   -1.648479
    121          1           0       15.045869   -2.261426   -1.098147
    122          1           0       16.581570   -1.876873   -0.845914
    123          1           0       15.481933   -1.982401    0.531646
    124          1           0       15.774710    1.556077    0.483179
    125          1           0       16.278066    0.047442    1.358203
    126          1           0       18.267036   -0.111052   -0.420331
    127          1           0       17.467253    1.463518   -1.012865
    128          1           0       18.321818    2.774928    0.909578
    129          1           0       18.605636    1.335940    1.980841
    130          1           0       20.496211    0.770852    0.319173
    131          1           0       19.616800    3.515490   -1.206512
    132          1           0       21.080096    2.598429   -1.626454
    133          1           0       19.507853    1.902349   -2.214185
    134          1           0       20.671384    2.103233    2.222838
    135          1           0       21.860772    2.648499    0.929906
    136          1           0       20.504484    3.426117    1.371782
    137          1           0       -7.066644    1.735128    0.283178
    138          1           0       -7.421174   -0.081125   -0.176600
 ---------------------------------------------------------------------

 SCF Done:  E(RB3LYP) =  -2732.96719951     A.U. after   18 cycles

 Excitation energies and oscillator strengths:

 Excited State   1:      Singlet-A      2.0905 eV  593.09 nm  f=0.2109  <S**2>=0.000
     235 -> 237       -0.40919
     235 -> 238        0.21679
     236 -> 237        0.49195
     236 -> 238        0.19811
 This state for optimization and/or second-order correction.
 Total Energy, E(TD-HF/TD-KS) =  -2732.89037563
 Copying the excited state density for this state as the 1-particle RhoCI density.

 The electronic state is 1-A.
 Alpha  occ. eigenvalues --  -19.18629 -19.17605 -19.12270 -19.11878 -19.11859
 Alpha  occ. eigenvalues --  -14.37942 -14.37359 -14.31838 -14.30259 -10.32010
 Alpha  occ. eigenvalues --  -10.31229 -10.28470 -10.25944 -10.24360 -10.24003
 Alpha  occ. eigenvalues --  -10.23872 -10.23748 -10.23652 -10.23431 -10.23188
 Alpha  occ. eigenvalues --  -10.22565 -10.22417 -10.21886 -10.21738 -10.21607
 Alpha  occ. eigenvalues --  -10.21519 -10.21419 -10.21252 -10.20992 -10.20872
 Alpha  occ. eigenvalues --  -10.20870 -10.20800 -10.20650 -10.20643 -10.20592
 Alpha  occ. eigenvalues --  -10.20432 -10.20336 -10.20020 -10.19982 -10.19921
 Alpha  occ. eigenvalues --  -10.19837 -10.19745 -10.19742 -10.19718 -10.19477
 Alpha  occ. eigenvalues --  -10.19330 -10.19318 -10.19309 -10.19139 -10.19048
 Alpha  occ. eigenvalues --  -10.18991 -10.18964 -10.18954 -10.18900 -10.18844
 Alpha  occ. eigenvalues --  -10.18818 -10.18794 -10.18758 -10.18639 -10.18356
 Alpha  occ. eigenvalues --  -10.18198 -10.17671 -10.16407 -10.16366  -1.09842
 Alpha  occ. eigenvalues --   -1.08613  -1.00914  -1.00098  -0.99741  -0.99353
 Alpha  occ. eigenvalues --   -0.98675  -0.95555  -0.93712  -0.85050  -0.83576
 Alpha  occ. eigenvalues --   -0.83126  -0.82143  -0.81285  -0.81244  -0.80622
 Alpha  occ. eigenvalues --   -0.79951  -0.79794  -0.78992  -0.78833  -0.77164
 Alpha  occ. eigenvalues --   -0.76765  -0.75920  -0.75661  -0.74905  -0.74303
 Alpha  occ. eigenvalues --   -0.74088  -0.73224  -0.72785  -0.71473  -0.70491
 Alpha  occ. eigenvalues --   -0.70318  -0.69116  -0.68293  -0.67872  -0.67238
 Alpha  occ. eigenvalues --   -0.66860  -0.66767  -0.66344  -0.66152  -0.65623
 Alpha  occ. eigenvalues --   -0.63932  -0.63025  -0.62822  -0.62144  -0.61995
 Alpha  occ. eigenvalues --   -0.60900  -0.59699  -0.58681  -0.58549  -0.58034
 Alpha  occ. eigenvalues --   -0.57478  -0.57005  -0.56099  -0.56072  -0.55407
 Alpha  occ. eigenvalues --   -0.54977  -0.54843  -0.54649  -0.53331  -0.53061
 Alpha  occ. eigenvalues --   -0.52879  -0.52798  -0.51531  -0.51077  -0.50110
 Alpha  occ. eigenvalues --   -0.49729  -0.49485  -0.49019  -0.48678  -0.48133
 Alpha  occ. eigenvalues --   -0.47916  -0.47640  -0.47368  -0.47143  -0.46782
 Alpha  occ. eigenvalues --   -0.46516  -0.46068  -0.46058  -0.45984  -0.45735
 Alpha  occ. eigenvalues --   -0.45600  -0.45462  -0.44887  -0.44715  -0.44477
 Alpha  occ. eigenvalues --   -0.44223  -0.44191  -0.44032  -0.43755  -0.43473
 Alpha  occ. eigenvalues --   -0.43198  -0.43049  -0.42893  -0.42722  -0.42597
 Alpha  occ. eigenvalues --   -0.42075  -0.41738  -0.41629  -0.41333  -0.41300
 Alpha  occ. eigenvalues --   -0.41143  -0.41083  -0.40960  -0.40849  -0.40371
 Alpha  occ. eigenvalues --   -0.40256  -0.39920  -0.39862  -0.39533  -0.39312
 Alpha  occ. eigenvalues --   -0.39100  -0.38752  -0.38673  -0.38305  -0.38187
 Alpha  occ. eigenvalues --   -0.38071  -0.37879  -0.37625  -0.37460  -0.37374
 Alpha  occ. eigenvalues --   -0.37187  -0.37121  -0.37027  -0.36704  -0.36558
 Alpha  occ. eigenvalues --   -0.36460  -0.35986  -0.35873  -0.35708  -0.35521
 Alpha  occ. eigenvalues --   -0.35285  -0.35156  -0.35039  -0.34965  -0.34697
 Alpha  occ. eigenvalues --   -0.34577  -0.34081  -0.33882  -0.33657  -0.33497
 Alpha  occ. eigenvalues --   -0.32971  -0.32903  -0.32689  -0.32249  -0.32133
 Alpha  occ. eigenvalues --   -0.32042  -0.31853  -0.31809  -0.31628  -0.31336
 Alpha  occ. eigenvalues --   -0.30691  -0.30678  -0.30547  -0.30368  -0.30256
 Alpha  occ. eigenvalues --   -0.29885  -0.29292  -0.28282  -0.28110  -0.27639
 Alpha  occ. eigenvalues --   -0.27633  -0.27363  -0.26666  -0.26466  -0.25986
 Alpha  occ. eigenvalues --   -0.25816  -0.25097  -0.23356  -0.22077  -0.19837
 Alpha  occ. eigenvalues --   -0.19521
 Alpha virt. eigenvalues --   -0.11048  -0.07444  -0.04546  -0.02461  -0.00690
 Alpha virt. eigenvalues --    0.00342   0.00509   0.00883   0.01998   0.02314
 Alpha virt. eigenvalues --    0.02677   0.03671   0.03867   0.04381   0.04418

 Mulliken charges:
               1
     1  C    0.000738
     2  C   -0.047358
     3  C   -0.157055
     4  C   -0.114957
     5  N   -0.205277
     6  C   -0.054805
     7  C    0.070451
     8  C    0.069958
     9  C   -0.002503
    10  C    0.009474
    11  C   -0.023191
    12  C    0.009092
    13  C    0.171970
    14  O   -0.255566
    15  O   -0.327318
    16  N   -0.039363
    17  C    0.055576
    18  C   -0.102232
    19  C    0.053288
    20  C    0.075026
    21  C   -0.089482
    22  C   -0.049650
    23  C   -0.068783
    24  N   -0.156560
    25  C    0.062792
    26  C   -0.117327
    27  C   -0.108335
    28  C    0.075497
    29  C   -0.005862
    30  C    0.018126
    31  C    0.013443
    32  N   -0.019736
    33  C    0.071006
    34  C   -0.158559
    35  C    0.027530
    36  C    0.054601
    37  C    0.098417
    38  C    0.029242
    39  O   -0.204154
    40  C    0.011105
    41  C    0.225533
    42  O   -0.269292
    43  O   -0.271165
    44  C    0.241398
    45  C    0.229280
    46  C   -0.072329
    47  C   -0.084465
    48  C   -0.070583
    49  C    0.094640
    50  C    0.065958
    51  C   -0.035597
    52  C    0.003272
    53  C   -0.032266
    54  C   -0.013190
    55  C    0.024983
    56  C    0.114966
    57  C   -0.137326
    58  C    0.130517
    59  C    0.088301
    60  C    0.064211
    61  C   -0.116966
    62  C   -0.070252
    63  C   -0.017707
    64  C    0.104856
    65  H   -0.044999
    66  H    0.031782
    67  H   -0.000677
    68  H   -0.049985
    69  H   -0.040149
    70  H    0.018554
    71  H    0.038890
    72  H    0.023475
    73  H    0.046416
    74  H    0.000361
    75  H    0.053784
    76  H    0.015776
    77  H    0.068513
    78  H    0.050613
    79  H    0.049979
    80  H    0.009108
    81  H    0.057234
    82  H    0.029453
    83  H    0.038294
    84  H    0.026832
    85  H    0.042709
    86  H    0.014360
    87  H    0.022326
    88  H    0.008307
    89  H    0.001200
    90  H    0.022599
    91  H    0.012578
    92  H    0.040099
    93  H    0.002662
    94  H    0.075778
    95  H    0.014362
    96  H    0.010469
    97  H    0.021451
    98  H    0.043735
    99  H    0.040418
   100  H    0.013074
   101  H    0.074835
   102  H    0.044020
   103  H    0.064455
   104  H   -0.013507
   105  H   -0.035926
   106  H    0.034260
   107  H   -0.036533
   108  H   -0.007214
   109  H   -0.008153
   110  H   -0.026265
   111  H    0.008745
   112  H    0.024871
   113  H    0.012581
   114  H   -0.031885
   115  H   -0.021282
   116  H   -0.003421
   117  H   -0.025860
   118  H    0.009990
   119  H   -0.032632
   120  H   -0.002846
   121  H   -0.031971
   122  H   -0.007848
   123  H   -0.008337
   124  H   -0.039398
   125  H   -0.006265
   126  H    0.020186
   127  H   -0.006871
   128  H    0.000345
   129  H    0.003891
   130  H   -0.006637
   131  H    0.023626
   132  H    0.006236
   133  H    0.042067
   134  H   -0.000967
   135  H   -0.028819
   136  H   -0.034786
   137  H    0.172397
   138  H    0.199502
 Sum of Mulliken charges =   0.00000

 Dipole moment (field-independent basis, Debye):
    X=              3.3029    Y=              3.4898    Z=              0.4459  Tot=              4.8256
 Quadrupole moment (field-independent basis, Debye-Ang):
   XX=           -361.9061   YY=           -383.1072   ZZ=           -398.1748
   XY=            -17.4418   XZ=              1.0170   YZ=             -3.3241

 Normal termination of Gaussian 09 at Sat Aug  3 10:28:04 2019.
