 Gaussian 09, Revision D.01,
 Gaussian 09:  ES64L-G09RevD.01 24-Apr-2013

 --------------------------
 # td=(NStates=1) B3LYP/SVP
 --------------------------

 --
 TD
 --
 Symbolic Z-matrix:
 Charge =  0 Multiplicity = 1

                         Standard orientation:
 ---------------------------------------------------------------------
 Center     Atomic      Atomic             Coordinates (Angstroms)
 Number     Number       Type             X           Y           Z
 ---------------------------------------------------------------------
      1          6           0       -5.085300   -1.964229    0.421877
      2          6           0       -4.600826    2.721241    1.465935
      3          6           0       -9.202137    3.463946   -0.101779
      4          6           0       -9.820067   -1.272822   -0.918963
      5          7           0       -5.155003    0.463730    0.824104
      6          6           0       -4.486273   -0.808598    0.796868
      7          6           0       -3.084703   -0.624683    1.260798
      8          6           0       -2.967091    0.791093    1.851540
      9          6           0       -4.327671    1.445169    1.289596
     10          6           0       -2.960387    0.657769    3.381692
     11          6           0       -2.008265   -0.941987   -0.011025
     12          6           0       -0.571060   -1.006405    0.386151
     13          6           0        0.366445   -1.175792   -0.678717
     14          8           0        0.075467   -1.396988   -1.833072
     15          8           0        1.652774   -1.093761   -0.209061
     16          7           0       -7.001690    2.740846    0.588067
     17          6           0       -5.832647    3.310214    0.987315
     18          6           0       -6.128118    4.721525    1.125287
     19          6           0       -7.452775    5.006770    0.598433
     20          6           0       -7.933534    3.666275    0.276490
     21          6           0       -5.183805    5.664007    1.780547
     22          6           0       -7.995151    6.320583    0.472084
     23          6           0       -8.886255    6.708287   -0.487495
     24          7           0       -9.175622    1.011622   -0.459184
     25          6           0       -9.775130    2.141940   -0.461631
     26          6           0      -11.193458    2.018198   -1.002880
     27          6           0      -11.387836    0.732028   -1.246480
     28          6           0      -10.142991    0.059301   -0.893914
     29          6           0      -12.144483    3.152254   -1.281202
     30          6           0      -12.654758    0.044883   -1.704969
     31          6           0      -12.635487   -0.316224   -3.231095
     32          7           0       -7.552265   -1.169378   -0.173325
     33          6           0       -8.683360   -1.918722   -0.597354
     34          6           0       -8.263594   -3.317146   -0.612684
     35          6           0       -6.949848   -3.334968   -0.272747
     36          6           0       -6.472555   -2.041731    0.037489
     37          6           0       -9.073824   -4.455511   -0.862970
     38          6           0       -5.797519   -4.289085   -0.034959
     39          8           0       -5.951820   -5.509460    0.058939
     40          6           0       -4.599377   -3.439315    0.386656
     41          6           0       -4.039676   -3.862976    1.761514
     42          8           0       -4.125752   -3.398959    2.811804
     43          8           0       -3.059562   -4.869153    1.429759
     44          6           0       -2.566115   -5.593919    2.551238
     45          6           0        2.702964   -1.151617   -1.307700
     46          6           0        3.978592   -0.766687   -0.623385
     47          6           0        4.964627   -0.050709   -1.233312
     48          6           0        5.011470    0.544592   -2.581650
     49          6           0        6.189563    0.119934   -0.429357
     50          6           0        7.432023   -0.704464   -0.976737
     51          6           0        8.693355   -0.183837   -0.121637
     52          6           0       10.022418   -0.737148   -0.728379
     53          6           0       10.022668   -2.256284   -0.970105
     54          6           0       11.194942   -0.282574    0.090521
     55          6           0       12.567572   -0.586606   -0.445106
     56          6           0       13.872292   -0.057849    0.410637
     57          6           0       15.219605   -0.211738   -0.273517
     58          6           0       15.581887   -1.741271   -0.120760
     59          6           0       16.170827    0.643667    0.592912
     60          6           0       17.486619    0.873660   -0.106037
     61          6           0       18.605202    1.713589    0.570978
     62          6           0       20.008971    1.807919   -0.019133
     63          6           0       19.902213    2.335859   -1.479001
     64          6           0       20.901662    2.636852    0.842148
     65          1           0       -3.833109    3.284801    1.879910
     66          1           0       -9.800744    4.261764   -0.316880
     67          1           0      -10.570408   -1.989784   -1.060096
     68          1           0       -2.704384   -1.315456    2.101094
     69          1           0       -2.018583    1.450799    1.569376
     70          1           0       -2.063523    0.270653    3.594004
     71          1           0       -2.803752    1.688320    3.901384
     72          1           0       -3.741764    0.018202    3.595821
     73          1           0       -2.313217   -1.789302   -0.721397
     74          1           0       -2.134004   -0.058679   -0.715856
     75          1           0       -0.101525   -0.359361    1.259247
     76          1           0       -0.543437   -1.823425    1.006031
     77          1           0       -4.176987    5.829480    1.341908
     78          1           0       -5.532585    6.734550    1.790136
     79          1           0       -5.056935    5.587156    3.008081
     80          1           0       -7.438625    7.300191    1.097979
     81          1           0       -9.014600    5.804976   -1.258210
     82          1           0       -9.284295    7.671911   -0.685748
     83          1           0      -12.326701    3.716057   -0.350453
     84          1           0      -11.520677    3.811730   -2.089190
     85          1           0      -13.109937    2.841953   -1.610868
     86          1           0      -12.964215   -0.926710   -1.223883
     87          1           0      -13.399048    0.798631   -1.570367
     88          1           0      -12.375736    0.585161   -3.785304
     89          1           0      -12.012503   -1.470925   -3.597019
     90          1           0      -13.768496   -0.646692   -3.497185
     91          1           0       -9.697666   -4.510352    0.045652
     92          1           0       -9.627605   -4.376260   -1.834156
     93          1           0       -8.518981   -5.538665   -1.109134
     94          1           0       -3.850817   -3.546235   -0.433655
     95          1           0       -1.957537   -6.448522    2.061660
     96          1           0       -1.763601   -4.987378    3.093237
     97          1           0       -3.417674   -6.059820    3.193798
     98          1           0        2.625524   -2.046709   -1.830737
     99          1           0        2.411425   -0.520427   -2.185997
    100          1           0        4.205099   -1.111168    0.472376
    101          1           0        5.136468    1.639772   -2.267575
    102          1           0        5.886692    0.165522   -3.064789
    103          1           0        3.879813    0.425825   -2.851035
    104          1           0        6.639266    1.073734   -0.306173
    105          1           0        5.958754   -0.192443    0.583302
    106          1           0        7.250972   -1.767841   -0.816598
    107          1           0        7.514140   -0.607048   -2.073478
    108          1           0        8.778636    0.917362   -0.229401
    109          1           0        8.726989   -0.237879    0.952794
    110          1           0       10.257385   -0.395180   -1.577997
    111          1           0        9.294468   -2.509953   -1.764492
    112          1           0       10.918699   -2.528001   -1.483100
    113          1           0       10.061391   -2.962356   -0.128006
    114          1           0       11.103763    0.880881    0.341344
    115          1           0       11.254464   -0.731403    1.085921
    116          1           0       12.828286   -1.647136   -0.621479
    117          1           0       13.082614   -0.338499   -1.482037
    118          1           0       13.494602    1.048353    0.668693
    119          1           0       13.740272   -0.527750    1.372526
    120          1           0       15.307801   -0.044240   -1.363495
    121          1           0       14.827293   -2.269983   -0.624358
    122          1           0       16.622444   -1.744893   -0.591561
    123          1           0       15.399491   -1.926334    1.093388
    124          1           0       15.802385    1.699115    0.910080
    125          1           0       16.294082    0.248812    1.706208
    126          1           0       18.133348   -0.125992   -0.253365
    127          1           0       17.179290    1.030572   -1.011262
    128          1           0       18.417144    2.846931    0.366721
    129          1           0       18.947998    1.560366    1.739833
    130          1           0       20.370380    0.709685   -0.262162
    131          1           0       19.665665    3.392931   -1.433315
    132          1           0       20.931778    2.233974   -1.674909
    133          1           0       19.235610    1.689160   -2.109462
    134          1           0       21.298451    2.016770    1.613270
    135          1           0       21.871697    3.128293    0.232052
    136          1           0       20.342332    3.559306    1.161233
    137          1           0       -7.247116    1.734131    0.458785
    138          1           0       -7.481965    0.003869   -0.088371
 ---------------------------------------------------------------------

 SCF Done:  E(RB3LYP) =  -2733.01509170     A.U. after   17 cycles

 Excitation energies and oscillator strengths:

 Excited State   1:      Singlet-A      2.0314 eV  610.33 nm  f=0.1974  <S**2>=0.000
     235 -> 237       -0.17386
     235 -> 238        0.24655
     236 -> 237        0.63087
 This state for optimization and/or second-order correction.
 Total Energy, E(TD-HF/TD-KS) =  -2732.94043867
 Copying the excited state density for this state as the 1-particle RhoCI density.

 The electronic state is 1-A.
 Alpha  occ. eigenvalues --  -19.16884 -19.15996 -19.14977 -19.12249 -19.11993
 Alpha  occ. eigenvalues --  -14.37926 -14.36574 -14.31773 -14.30870 -10.32345
 Alpha  occ. eigenvalues --  -10.30655 -10.28192 -10.24868 -10.24817 -10.24512
 Alpha  occ. eigenvalues --  -10.23677 -10.22996 -10.22978 -10.22687 -10.22662
 Alpha  occ. eigenvalues --  -10.22582 -10.21939 -10.21925 -10.21472 -10.21436
 Alpha  occ. eigenvalues --  -10.21267 -10.21111 -10.21014 -10.20934 -10.20738
 Alpha  occ. eigenvalues --  -10.20706 -10.20587 -10.20526 -10.20441 -10.20191
 Alpha  occ. eigenvalues --  -10.19987 -10.19967 -10.19892 -10.19806 -10.19697
 Alpha  occ. eigenvalues --  -10.19542 -10.19493 -10.19443 -10.19376 -10.19314
 Alpha  occ. eigenvalues --  -10.19299 -10.19269 -10.19203 -10.19172 -10.19133
 Alpha  occ. eigenvalues --  -10.19084 -10.18946 -10.18812 -10.18748 -10.18485
 Alpha  occ. eigenvalues --  -10.18472 -10.18302 -10.18177 -10.17948 -10.17687
 Alpha  occ. eigenvalues --  -10.17644 -10.17426 -10.17299 -10.16975  -1.10372
 Alpha  occ. eigenvalues --   -1.07531  -1.01745  -1.01215  -0.99397  -0.99349
 Alpha  occ. eigenvalues --   -0.95675  -0.94343  -0.91815  -0.84505  -0.83064
 Alpha  occ. eigenvalues --   -0.82225  -0.82099  -0.81584  -0.81428  -0.80680
 Alpha  occ. eigenvalues --   -0.80382  -0.80253  -0.80120  -0.79354  -0.77919
 Alpha  occ. eigenvalues --   -0.77037  -0.76084  -0.75609  -0.74902  -0.74435
 Alpha  occ. eigenvalues --   -0.73242  -0.72893  -0.72621  -0.71565  -0.70493
 Alpha  occ. eigenvalues --   -0.69713  -0.69243  -0.68389  -0.67841  -0.67827
 Alpha  occ. eigenvalues --   -0.67191  -0.66832  -0.66380  -0.66025  -0.64927
 Alpha  occ. eigenvalues --   -0.63621  -0.62810  -0.62130  -0.61230  -0.60922
 Alpha  occ. eigenvalues --   -0.60541  -0.59552  -0.58339  -0.57954  -0.57825
 Alpha  occ. eigenvalues --   -0.56678  -0.56599  -0.56111  -0.55992  -0.55694
 Alpha  occ. eigenvalues --   -0.54910  -0.53848  -0.53319  -0.53217  -0.53108
 Alpha  occ. eigenvalues --   -0.52546  -0.51740  -0.51181  -0.50831  -0.50106
 Alpha  occ. eigenvalues --   -0.49567  -0.49439  -0.48701  -0.48642  -0.47987
 Alpha  occ. eigenvalues --   -0.47892  -0.47653  -0.47471  -0.47392  -0.46815
 Alpha  occ. eigenvalues --   -0.46689  -0.46332  -0.46113  -0.45989  -0.45547
 Alpha  occ. eigenvalues --   -0.45525  -0.45450  -0.45010  -0.44875  -0.44496
 Alpha  occ. eigenvalues --   -0.44452  -0.44366  -0.44137  -0.44051  -0.43770
 Alpha  occ. eigenvalues --   -0.43393  -0.43329  -0.43197  -0.42870  -0.42639
 Alpha  occ. eigenvalues --   -0.42508  -0.42416  -0.42212  -0.41934  -0.41882
 Alpha  occ. eigenvalues --   -0.41169  -0.41027  -0.40894  -0.40787  -0.40674
 Alpha  occ. eigenvalues --   -0.40206  -0.40144  -0.39973  -0.39893  -0.39743
 Alpha  occ. eigenvalues --   -0.39279  -0.39242  -0.39128  -0.38640  -0.38604
 Alpha  occ. eigenvalues --   -0.38253  -0.38228  -0.38043  -0.37798  -0.37590
 Alpha  occ. eigenvalues --   -0.37429  -0.37056  -0.36875  -0.36655  -0.36430
 Alpha  occ. eigenvalues --   -0.36138  -0.35968  -0.35645  -0.35617  -0.35529
 Alpha  occ. eigenvalues --   -0.35302  -0.35169  -0.35057  -0.34773  -0.34750
 Alpha  occ. eigenvalues --   -0.34470  -0.34445  -0.34336  -0.34238  -0.33839
 Alpha  occ. eigenvalues --   -0.33711  -0.33594  -0.33117  -0.32796  -0.32391
 Alpha  occ. eigenvalues --   -0.31996  -0.31725  -0.31487  -0.31443  -0.31284
 Alpha  occ. eigenvalues --   -0.31164  -0.30036  -0.29978  -0.29863  -0.29646
 Alpha  occ. eigenvalues --   -0.29045  -0.28931  -0.28457  -0.28093  -0.28071
 Alpha  occ. eigenvalues --   -0.27775  -0.27370  -0.26799  -0.25824  -0.25645
 Alpha  occ. eigenvalues --   -0.24792  -0.23984  -0.23799  -0.23565  -0.20060
 Alpha  occ. eigenvalues --   -0.18787
 Alpha virt. eigenvalues --   -0.10367  -0.07622  -0.04239  -0.02468  -0.00858
 Alpha virt. eigenvalues --   -0.00200   0.00870   0.00942   0.01835   0.03026
 Alpha virt. eigenvalues --    0.03639   0.04223   0.04342   0.04487   0.04583

 Mulliken charges:
               1
     1  C   -0.032196
     2  C   -0.045538
     3  C   -0.060061
     4  C   -0.060328
     5  N   -0.247435
     6  C   -0.008471
     7  C   -0.071252
     8  C   -0.118492
     9  C    0.054241
    10  C    0.151045
    11  C    0.006524
    12  C    0.078811
    13  C    0.175053
    14  O   -0.238050
    15  O   -0.359569
    16  N   -0.032998
    17  C    0.152816
    18  C   -0.133453
    19  C    0.057870
    20  C    0.126931
    21  C    0.022683
    22  C   -0.096019
    23  C   -0.065420
    24  N   -0.219252
    25  C    0.010495
    26  C   -0.180616
    27  C   -0.036282
    28  C    0.083558
    29  C    0.094285
    30  C    0.101388
    31  C   -0.095802
    32  N   -0.196681
    33  C    0.071912
    34  C   -0.110597
    35  C    0.004798
    36  C    0.108889
    37  C    0.010477
    38  C    0.074731
    39  O   -0.188081
    40  C    0.024390
    41  C    0.229857
    42  O   -0.127476
    43  O   -0.368790
    44  C    0.130838
    45  C    0.280421
    46  C   -0.075946
    47  C   -0.196993
    48  C    0.130176
    49  C    0.098803
    50  C   -0.006291
    51  C    0.053303
    52  C    0.056040
    53  C    0.034200
    54  C    0.055310
    55  C   -0.035128
    56  C   -0.026618
    57  C   -0.098317
    58  C    0.022729
    59  C    0.010517
    60  C    0.086192
    61  C    0.004448
    62  C   -0.165908
    63  C    0.046650
    64  C    0.014768
    65  H   -0.051983
    66  H   -0.075719
    67  H   -0.058213
    68  H    0.025697
    69  H    0.012212
    70  H   -0.031361
    71  H    0.009621
    72  H    0.021729
    73  H    0.035482
    74  H    0.012301
    75  H    0.034060
    76  H   -0.004422
    77  H    0.034443
    78  H   -0.004246
    79  H    0.042906
    80  H    0.048331
    81  H    0.056139
    82  H    0.024667
    83  H    0.028357
    84  H    0.049443
    85  H    0.000190
    86  H    0.018011
    87  H   -0.013828
    88  H    0.028685
    89  H    0.040286
    90  H    0.025315
    91  H    0.047407
    92  H    0.028585
    93  H    0.063115
    94  H    0.070900
    95  H    0.035801
    96  H    0.030107
    97  H    0.052672
    98  H    0.004755
    99  H    0.018749
   100  H    0.021680
   101  H    0.026185
   102  H    0.030850
   103  H    0.021105
   104  H   -0.026531
   105  H   -0.022053
   106  H    0.009471
   107  H    0.006204
   108  H   -0.012482
   109  H   -0.009613
   110  H   -0.078897
   111  H    0.000636
   112  H   -0.019700
   113  H    0.007058
   114  H    0.004100
   115  H   -0.011554
   116  H   -0.019006
   117  H   -0.021696
   118  H   -0.000479
   119  H   -0.011275
   120  H    0.011613
   121  H    0.001469
   122  H    0.027525
   123  H    0.030483
   124  H    0.006162
   125  H   -0.000344
   126  H   -0.001084
   127  H   -0.059586
   128  H   -0.008981
   129  H    0.019498
   130  H   -0.008000
   131  H   -0.003853
   132  H   -0.006747
   133  H    0.027326
   134  H    0.021783
   135  H    0.018024
   136  H    0.021061
   137  H    0.151154
   138  H    0.231217
 Sum of Mulliken charges =   0.00000

 Dipole moment (field-independent basis, Debye):
    X=              1.6268    Y=              4.4542    Z=              0.4300  Tot=              4.7614
 Quadrupole moment (field-independent basis, Debye-Ang):
   XX=           -345.6918   YY=           -384.2111   ZZ=           -396.5204
   XY=            -26.9484   XZ=              6.0700   YZ=              1.0127

 Normal termination of Gaussian 09 at Wed Jul 24 16:41:05 2019.
