 Gaussian 09, Revision D.01,
 Gaussian 09:  ES64L-G09RevD.01 24-Apr-2013

 --------------------------
 # td=(NStates=1) B3LYP/SVP
 --------------------------

 --
 TD
 --
 Symbolic Z-matrix:
 Charge =  0 Multiplicity = 1

                         Standard orientation:
 ---------------------------------------------------------------------
 Center     Atomic      Atomic             Coordinates (Angstroms)
 Number     Number       Type             X           Y           Z
 ---------------------------------------------------------------------
      1          6           0       -5.194553   -2.013681    0.513259
      2          6           0       -4.750750    2.737722    1.345052
      3          6           0       -9.178335    3.317106   -0.235017
      4          6           0       -9.806697   -1.469792   -0.960861
      5          7           0       -5.145232    0.415066    0.870523
      6          6           0       -4.543183   -0.845129    0.890594
      7          6           0       -3.034055   -0.655686    1.351088
      8          6           0       -2.982082    0.754923    1.779233
      9          6           0       -4.312906    1.323173    1.269604
     10          6           0       -2.824720    0.930299    3.281395
     11          6           0       -2.057481   -0.931440    0.160094
     12          6           0       -0.642274   -0.877715    0.468701
     13          6           0        0.379555   -1.053266   -0.658454
     14          8           0        0.069573   -1.360774   -1.783011
     15          8           0        1.577744   -0.710629   -0.289288
     16          7           0       -7.086791    2.719419    0.560253
     17          6           0       -5.976969    3.285666    1.045895
     18          6           0       -6.142844    4.839004    1.161459
     19          6           0       -7.389417    4.936109    0.595374
     20          6           0       -7.940923    3.712022    0.234829
     21          6           0       -5.287150    5.729103    1.784023
     22          6           0       -8.119395    6.204566    0.543921
     23          6           0       -8.929830    6.762836   -0.510513
     24          7           0       -9.075175    0.852160   -0.477879
     25          6           0       -9.719121    2.066856   -0.605906
     26          6           0      -11.118476    1.866264   -1.026889
     27          6           0      -11.357544    0.545858   -1.221858
     28          6           0      -10.068401   -0.081043   -0.889187
     29          6           0      -12.157837    3.006862   -1.241541
     30          6           0      -12.547644   -0.127895   -1.706814
     31          6           0      -12.559414   -0.426618   -3.250589
     32          7           0       -7.535704   -1.308797   -0.220234
     33          6           0       -8.582538   -2.052861   -0.673777
     34          6           0       -8.240940   -3.441809   -0.645980
     35          6           0       -6.866445   -3.492775   -0.127880
     36          6           0       -6.470989   -2.057476    0.033374
     37          6           0       -9.038980   -4.607999   -1.058583
     38          6           0       -5.720187   -4.302916    0.047421
     39          8           0       -5.623259   -5.493109    0.180310
     40          6           0       -4.467766   -3.364996    0.363870
     41          6           0       -3.822246   -3.840851    1.739256
     42          8           0       -4.104096   -3.430445    2.910536
     43          8           0       -2.985482   -4.804907    1.468741
     44          6           0       -2.403997   -5.417676    2.669549
     45          6           0        2.630074   -0.911672   -1.311991
     46          6           0        3.888258   -0.506677   -0.643134
     47          6           0        4.854246    0.358360   -1.120179
     48          6           0        4.764945    1.090794   -2.476600
     49          6           0        6.181519    0.440537   -0.296624
     50          6           0        7.483322   -0.235543   -1.058015
     51          6           0        8.720112   -0.212610   -0.077147
     52          6           0        9.977716   -0.655287   -0.730271
     53          6           0        9.952620   -2.221965   -1.039352
     54          6           0       11.196674   -0.344051    0.077782
     55          6           0       12.589794   -0.562743   -0.573581
     56          6           0       13.816702    0.009679    0.284104
     57          6           0       15.185285   -0.252404   -0.390521
     58          6           0       15.520512   -1.712929   -0.598883
     59          6           0       16.237907    0.519670    0.432225
     60          6           0       17.538412    0.595727   -0.158688
     61          6           0       18.478122    1.599221    0.621899
     62          6           0       19.960965    1.629084    0.176506
     63          6           0       20.037959    2.121809   -1.227124
     64          6           0       20.781290    2.405029    1.062052
     65          1           0       -4.083244    3.411293    1.871148
     66          1           0      -10.094987    4.054963   -0.457066
     67          1           0      -10.539274   -2.321451   -1.180112
     68          1           0       -2.725084   -1.481710    2.075878
     69          1           0       -2.119357    1.345789    1.339985
     70          1           0       -1.651046    0.704916    3.644662
     71          1           0       -3.073560    1.977923    3.341525
     72          1           0       -3.384361    0.037139    3.928212
     73          1           0       -2.176422   -2.108561   -0.364384
     74          1           0       -2.128788   -0.634987   -0.943905
     75          1           0       -0.302299    0.135556    1.095256
     76          1           0       -0.351079   -1.605185    1.242655
     77          1           0       -4.484578    6.056497    0.957639
     78          1           0       -5.755023    6.730754    2.021891
     79          1           0       -4.738824    5.244119    2.759074
     80          1           0       -8.047194    6.821947    1.475784
     81          1           0       -9.099393    6.116450   -1.418957
     82          1           0       -9.406833    7.651969   -0.267051
     83          1           0      -12.047300    3.842132   -0.531251
     84          1           0      -11.960937    3.633605   -2.355463
     85          1           0      -13.264799    2.372080   -1.057868
     86          1           0      -12.822592   -1.063161   -1.008225
     87          1           0      -13.595412    0.510523   -1.853717
     88          1           0      -12.445463    0.574003   -3.727670
     89          1           0      -11.831109   -1.111719   -3.487286
     90          1           0      -13.513439   -0.604679   -3.322487
     91          1           0       -9.760180   -4.705566   -0.319922
     92          1           0       -9.460797   -4.550700   -2.087027
     93          1           0       -8.331630   -5.682760   -1.123160
     94          1           0       -3.667283   -3.353026   -0.469088
     95          1           0       -1.595063   -6.195502    2.508512
     96          1           0       -1.987737   -4.654786    3.328606
     97          1           0       -3.172173   -6.002268    3.166018
     98          1           0        2.824769   -1.872084   -1.587149
     99          1           0        2.305214   -0.341143   -2.204348
    100          1           0        3.946650   -1.266526    0.240165
    101          1           0        5.152055    2.077123   -2.104006
    102          1           0        5.300035    0.819827   -3.377120
    103          1           0        3.746983    1.343655   -2.694363
    104          1           0        6.492583    1.482708   -0.393685
    105          1           0        6.008092    0.095334    0.847352
    106          1           0        7.226077   -1.313956   -1.143876
    107          1           0        7.714857    0.436751   -1.954847
    108          1           0        8.809198    0.826416    0.615203
    109          1           0        8.634430   -1.135638    0.725786
    110          1           0        9.983535   -0.189837   -1.616049
    111          1           0        9.082184   -2.552141   -1.723539
    112          1           0       10.757760   -2.733648   -1.743091
    113          1           0        9.947183   -3.124688   -0.291431
    114          1           0       11.120119    0.597517    0.467365
    115          1           0       11.118506   -0.868366    0.950962
    116          1           0       12.719191   -1.759808   -0.658597
    117          1           0       12.629251   -0.142875   -1.624669
    118          1           0       13.735366    1.008105    0.386037
    119          1           0       13.796309   -0.323441    1.223799
    120          1           0       15.018649    0.168613   -1.469613
    121          1           0       14.779260   -2.385956   -0.982463
    122          1           0       16.447345   -1.801105   -1.341333
    123          1           0       15.926461   -2.092512    0.551677
    124          1           0       15.615002    1.525302    0.652710
    125          1           0       16.438714   -0.071567    1.424839
    126          1           0       18.020250   -0.350255   -0.371904
    127          1           0       17.536060    1.143345   -1.177314
    128          1           0       18.166229    2.667892    0.406598
    129          1           0       18.380552    1.280158    1.546866
    130          1           0       20.265116    0.665952    0.227344
    131          1           0       19.818422    3.217334   -1.105392
    132          1           0       21.074500    2.129940   -1.689945
    133          1           0       19.644369    1.509395   -1.915380
    134          1           0       20.823816    2.095916    2.274320
    135          1           0       21.974224    2.074616    0.805470
    136          1           0       20.650739    3.506611    1.009032
    137          1           0       -7.278098    1.746926    0.497231
    138          1           0       -7.829607   -0.250167    0.008613
 ---------------------------------------------------------------------

 SCF Done:  E(RB3LYP) =  -2732.96637274     A.U. after   17 cycles

 Excitation energies and oscillator strengths:

 Excited State   1:      Singlet-A      2.1418 eV  578.88 nm  f=0.1803  <S**2>=0.000
     235 -> 237       -0.15598
     235 -> 238       -0.29157
     236 -> 237        0.61022
     236 -> 238       -0.12590
 This state for optimization and/or second-order correction.
 Total Energy, E(TD-HF/TD-KS) =  -2732.88766284
 Copying the excited state density for this state as the 1-particle RhoCI density.

 The electronic state is 1-A.
 Alpha  occ. eigenvalues --  -19.19101 -19.18085 -19.11668 -19.11588 -19.10697
 Alpha  occ. eigenvalues --  -14.37147 -14.36277 -14.31988 -14.31245 -10.31864
 Alpha  occ. eigenvalues --  -10.30908 -10.26503 -10.24863 -10.24309 -10.24266
 Alpha  occ. eigenvalues --  -10.23610 -10.23177 -10.23045 -10.22812 -10.22538
 Alpha  occ. eigenvalues --  -10.22313 -10.22235 -10.22140 -10.21965 -10.21592
 Alpha  occ. eigenvalues --  -10.21585 -10.21560 -10.21423 -10.21384 -10.21193
 Alpha  occ. eigenvalues --  -10.20877 -10.20870 -10.20748 -10.20744 -10.20739
 Alpha  occ. eigenvalues --  -10.20571 -10.20504 -10.20347 -10.20316 -10.20315
 Alpha  occ. eigenvalues --  -10.20255 -10.20205 -10.20098 -10.19844 -10.19835
 Alpha  occ. eigenvalues --  -10.19800 -10.19795 -10.19770 -10.19601 -10.19524
 Alpha  occ. eigenvalues --  -10.19365 -10.19241 -10.19112 -10.19030 -10.18771
 Alpha  occ. eigenvalues --  -10.18747 -10.18629 -10.17752 -10.17149 -10.17123
 Alpha  occ. eigenvalues --  -10.17051 -10.16877 -10.16400 -10.16349  -1.10536
 Alpha  occ. eigenvalues --   -1.09929  -1.02239  -1.00430  -1.00289  -0.98192
 Alpha  occ. eigenvalues --   -0.97473  -0.94611  -0.92443  -0.84350  -0.83453
 Alpha  occ. eigenvalues --   -0.82772  -0.82329  -0.81637  -0.81064  -0.80829
 Alpha  occ. eigenvalues --   -0.80691  -0.79835  -0.79702  -0.78324  -0.77634
 Alpha  occ. eigenvalues --   -0.76472  -0.75779  -0.75098  -0.74958  -0.74552
 Alpha  occ. eigenvalues --   -0.73640  -0.73369  -0.72708  -0.71957  -0.71044
 Alpha  occ. eigenvalues --   -0.69907  -0.69121  -0.68257  -0.67842  -0.67688
 Alpha  occ. eigenvalues --   -0.67002  -0.66494  -0.66247  -0.64954  -0.64869
 Alpha  occ. eigenvalues --   -0.63827  -0.62951  -0.62286  -0.61736  -0.61655
 Alpha  occ. eigenvalues --   -0.60658  -0.58692  -0.58272  -0.57838  -0.57313
 Alpha  occ. eigenvalues --   -0.57221  -0.57029  -0.56132  -0.55940  -0.55751
 Alpha  occ. eigenvalues --   -0.55686  -0.54307  -0.54273  -0.53503  -0.53259
 Alpha  occ. eigenvalues --   -0.52273  -0.51800  -0.50853  -0.50679  -0.49938
 Alpha  occ. eigenvalues --   -0.49823  -0.49635  -0.49287  -0.48607  -0.48409
 Alpha  occ. eigenvalues --   -0.48207  -0.47568  -0.47545  -0.47303  -0.47187
 Alpha  occ. eigenvalues --   -0.47130  -0.46601  -0.46480  -0.46070  -0.45874
 Alpha  occ. eigenvalues --   -0.45791  -0.45624  -0.45499  -0.45156  -0.44968
 Alpha  occ. eigenvalues --   -0.44497  -0.44276  -0.44168  -0.44068  -0.43563
 Alpha  occ. eigenvalues --   -0.43411  -0.43336  -0.42911  -0.42641  -0.42339
 Alpha  occ. eigenvalues --   -0.42064  -0.41950  -0.41840  -0.41532  -0.41322
 Alpha  occ. eigenvalues --   -0.41279  -0.40862  -0.40710  -0.40560  -0.40517
 Alpha  occ. eigenvalues --   -0.40064  -0.39652  -0.39350  -0.39261  -0.38957
 Alpha  occ. eigenvalues --   -0.38777  -0.38586  -0.38387  -0.38164  -0.38038
 Alpha  occ. eigenvalues --   -0.37808  -0.37650  -0.37501  -0.37304  -0.37161
 Alpha  occ. eigenvalues --   -0.37072  -0.36932  -0.36892  -0.36660  -0.36343
 Alpha  occ. eigenvalues --   -0.36256  -0.36074  -0.35935  -0.35575  -0.35419
 Alpha  occ. eigenvalues --   -0.35146  -0.35107  -0.34873  -0.34748  -0.34683
 Alpha  occ. eigenvalues --   -0.34661  -0.34347  -0.33822  -0.33616  -0.33524
 Alpha  occ. eigenvalues --   -0.33367  -0.32839  -0.32234  -0.32152  -0.31997
 Alpha  occ. eigenvalues --   -0.31848  -0.31835  -0.31559  -0.31289  -0.31246
 Alpha  occ. eigenvalues --   -0.31185  -0.30887  -0.30301  -0.30273  -0.30088
 Alpha  occ. eigenvalues --   -0.29833  -0.28220  -0.28064  -0.28030  -0.27787
 Alpha  occ. eigenvalues --   -0.27586  -0.26913  -0.26656  -0.26221  -0.25162
 Alpha  occ. eigenvalues --   -0.24463  -0.24054  -0.23783  -0.23094  -0.19795
 Alpha  occ. eigenvalues --   -0.18590
 Alpha virt. eigenvalues --   -0.09686  -0.07376  -0.04612  -0.02420  -0.00866
 Alpha virt. eigenvalues --   -0.00589   0.00438   0.01031   0.02221   0.02820
 Alpha virt. eigenvalues --    0.03568   0.03945   0.04062   0.04528   0.04641

 Mulliken charges:
               1
     1  C   -0.040685
     2  C   -0.058767
     3  C   -0.131733
     4  C   -0.099920
     5  N   -0.144854
     6  C   -0.036299
     7  C    0.029332
     8  C    0.016540
     9  C   -0.047203
    10  C   -0.011897
    11  C   -0.062698
    12  C   -0.008291
    13  C    0.155950
    14  O   -0.245257
    15  O   -0.287311
    16  N    0.021010
    17  C    0.068422
    18  C   -0.086938
    19  C    0.069333
    20  C    0.153317
    21  C   -0.002499
    22  C   -0.156328
    23  C    0.003802
    24  N   -0.326046
    25  C    0.042948
    26  C   -0.117895
    27  C    0.018843
    28  C    0.104767
    29  C   -0.034418
    30  C   -0.129773
    31  C    0.145548
    32  N   -0.041450
    33  C    0.013971
    34  C   -0.111454
    35  C   -0.020088
    36  C    0.111370
    37  C    0.046371
    38  C    0.039637
    39  O   -0.176553
    40  C   -0.065174
    41  C    0.222279
    42  O   -0.297552
    43  O   -0.255448
    44  C    0.181323
    45  C    0.290901
    46  C   -0.118921
    47  C   -0.132057
    48  C    0.081729
    49  C    0.021287
    50  C    0.011665
    51  C   -0.109949
    52  C    0.088095
    53  C   -0.095556
    54  C    0.156710
    55  C   -0.029087
    56  C    0.155465
    57  C   -0.105866
    58  C   -0.025990
    59  C    0.010318
    60  C    0.018491
    61  C    0.069829
    62  C    0.011271
    63  C    0.073019
    64  C   -0.057901
    65  H   -0.043086
    66  H   -0.001525
    67  H   -0.004088
    68  H    0.031063
    69  H    0.015422
    70  H    0.027179
    71  H    0.009770
    72  H    0.065414
    73  H    0.009222
    74  H    0.025196
    75  H    0.034726
    76  H    0.012059
    77  H    0.057074
    78  H    0.029973
    79  H    0.070836
    80  H    0.021202
    81  H    0.045551
    82  H    0.012153
    83  H    0.036336
    84  H    0.046822
    85  H    0.059915
    86  H    0.033298
    87  H    0.013034
    88  H    0.010410
    89  H    0.006633
    90  H   -0.035295
    91  H    0.025090
    92  H    0.036975
    93  H    0.067029
    94  H    0.082182
    95  H    0.037114
    96  H    0.037082
    97  H    0.038289
    98  H    0.008785
    99  H    0.020897
   100  H    0.017200
   101  H    0.005922
   102  H    0.048622
   103  H    0.006747
   104  H   -0.007463
   105  H    0.040579
   106  H    0.029813
   107  H    0.027454
   108  H    0.026590
   109  H    0.013994
   110  H   -0.058135
   111  H    0.002666
   112  H    0.011761
   113  H    0.020697
   114  H   -0.059003
   115  H   -0.051672
   116  H    0.021371
   117  H    0.002142
   118  H   -0.048537
   119  H   -0.054055
   120  H   -0.002938
   121  H    0.016162
   122  H    0.025308
   123  H    0.009666
   124  H    0.014659
   125  H    0.005119
   126  H   -0.004616
   127  H   -0.007793
   128  H   -0.006656
   129  H   -0.056825
   130  H   -0.053997
   131  H    0.005230
   132  H   -0.012318
   133  H   -0.018279
   134  H    0.020459
   135  H    0.014793
   136  H    0.016583
   137  H    0.123894
   138  H    0.210435
 Sum of Mulliken charges =   0.00000

 Dipole moment (field-independent basis, Debye):
    X=              2.8790    Y=              4.1523    Z=              0.0444  Tot=              5.0529
 Quadrupole moment (field-independent basis, Debye-Ang):
   XX=           -360.5031   YY=           -381.4687   ZZ=           -395.9943
   XY=            -28.6428   XZ=              3.8092   YZ=              3.0826

 Normal termination of Gaussian 09 at Wed Jul 24 13:01:29 2019.
