 Gaussian 09, Revision D.01,
 Gaussian 09:  ES64L-G09RevD.01 24-Apr-2013

 --------------------------
 # td=(NStates=1) B3LYP/SVP
 --------------------------

 --
 TD
 --
 Symbolic Z-matrix:
 Charge =  0 Multiplicity = 1

                         Standard orientation:
 ---------------------------------------------------------------------
 Center     Atomic      Atomic             Coordinates (Angstroms)
 Number     Number       Type             X           Y           Z
 ---------------------------------------------------------------------
      1          6           0       -5.112349   -1.955114    0.378581
      2          6           0       -4.767723    2.734791    1.385780
      3          6           0       -9.380980    3.294712   -0.147625
      4          6           0       -9.868973   -1.484027   -0.870494
      5          7           0       -5.116881    0.407942    0.855527
      6          6           0       -4.486336   -0.732145    0.823277
      7          6           0       -2.966119   -0.561032    1.262569
      8          6           0       -2.952115    0.849569    1.854439
      9          6           0       -4.386206    1.447568    1.327817
     10          6           0       -2.920488    1.006346    3.265933
     11          6           0       -2.121199   -0.858096    0.057778
     12          6           0       -0.539617   -0.737939    0.433355
     13          6           0        0.368893   -0.987374   -0.631404
     14          8           0        0.166094   -1.447385   -1.707073
     15          8           0        1.667906   -0.691037   -0.308232
     16          7           0       -6.973393    2.732988    0.544938
     17          6           0       -5.838371    3.485216    0.902628
     18          6           0       -6.186096    4.782051    0.961282
     19          6           0       -7.413222    5.012826    0.554916
     20          6           0       -8.024768    3.621969    0.270076
     21          6           0       -5.229197    5.809766    1.363346
     22          6           0       -8.100754    6.298921    0.352955
     23          6           0       -9.032969    6.645490   -0.602714
     24          7           0       -9.225858    0.909505   -0.401138
     25          6           0       -9.867389    2.059413   -0.458872
     26          6           0      -11.265272    1.901627   -0.873940
     27          6           0      -11.455693    0.513768   -1.114566
     28          6           0      -10.146887   -0.108518   -0.816663
     29          6           0      -12.392908    2.922557   -1.140699
     30          6           0      -12.741201   -0.250838   -1.586699
     31          6           0      -12.780683   -0.441924   -3.018044
     32          7           0       -7.615041   -1.231866   -0.272156
     33          6           0       -8.626824   -2.003973   -0.602252
     34          6           0       -8.234045   -3.392619   -0.633750
     35          6           0       -6.870625   -3.327986   -0.279481
     36          6           0       -6.482358   -2.052805   -0.046495
     37          6           0       -9.197265   -4.622477   -0.853468
     38          6           0       -5.725188   -4.299782    0.034124
     39          8           0       -5.746334   -5.549609    0.008223
     40          6           0       -4.560060   -3.357803    0.469929
     41          6           0       -3.947630   -3.861494    1.671562
     42          8           0       -4.017756   -3.248498    2.757170
     43          8           0       -3.082734   -4.949111    1.542003
     44          6           0       -2.611327   -5.430765    2.665986
     45          6           0        2.657798   -1.150375   -1.342232
     46          6           0        3.996753   -0.873376   -0.673637
     47          6           0        4.935717    0.056424   -1.009252
     48          6           0        4.643162    1.101055   -2.134165
     49          6           0        6.276954    0.175530   -0.324806
     50          6           0        7.536419   -0.368546   -1.100255
     51          6           0        8.746774   -0.263454   -0.239116
     52          6           0       10.017643   -0.753754   -0.894618
     53          6           0       10.173786   -2.266431   -1.254881
     54          6           0       11.291254   -0.427538   -0.034652
     55          6           0       12.786820   -0.625403   -0.639143
     56          6           0       13.892215   -0.055991    0.209543
     57          6           0       15.318677   -0.164527   -0.360127
     58          6           0       15.765298   -1.729752   -0.582444
     59          6           0       16.315356    0.528466    0.544852
     60          6           0       17.706751    0.712051   -0.195944
     61          6           0       18.619540    1.475353    0.664378
     62          6           0       20.134309    1.713126    0.287019
     63          6           0       20.130329    2.427158   -1.113337
     64          6           0       20.975473    2.472272    1.252286
     65          1           0       -3.962880    3.613234    1.929835
     66          1           0      -10.219109    3.952893   -0.338586
     67          1           0      -10.606963   -2.244016   -0.857766
     68          1           0       -2.790983   -1.355958    2.047213
     69          1           0       -2.205873    1.417278    1.411350
     70          1           0       -1.791443    0.406426    3.610962
     71          1           0       -2.883969    1.891183    3.634485
     72          1           0       -3.698685    0.398548    3.629710
     73          1           0       -2.216369   -1.930281   -0.169526
     74          1           0       -2.290957   -0.096269   -0.898679
     75          1           0       -0.329593    0.364028    0.696439
     76          1           0       -0.172583   -1.300766    1.442658
     77          1           0       -4.470920    5.996566    0.567085
     78          1           0       -5.860068    6.863942    1.160373
     79          1           0       -4.957752    5.552481    2.428339
     80          1           0       -7.863339    7.130186    1.151521
     81          1           0       -9.575058    6.068803   -1.190253
     82          1           0       -9.479446    7.772872   -0.539349
     83          1           0      -12.551167    3.606792   -0.265337
     84          1           0      -12.292412    3.720365   -1.868567
     85          1           0      -13.275506    2.390730   -1.416408
     86          1           0      -12.792025   -1.118805   -1.065442
     87          1           0      -13.560009    0.365224   -1.192770
     88          1           0      -12.803006    0.561931   -3.586187
     89          1           0      -11.905270   -1.005954   -3.450794
     90          1           0      -13.762587   -0.937471   -3.438194
     91          1           0       -9.977374   -4.574086    0.089917
     92          1           0       -9.580031   -4.689014   -1.815750
     93          1           0       -8.651398   -5.316125   -0.698043
     94          1           0       -3.865068   -3.721620   -0.275885
     95          1           0       -1.612803   -6.191960    2.470250
     96          1           0       -2.157839   -4.572010    3.295260
     97          1           0       -3.393674   -6.408742    3.350829
     98          1           0        2.426484   -2.168121   -1.413506
     99          1           0        2.253843   -0.551511   -2.208247
    100          1           0        4.001106   -1.487441    0.410255
    101          1           0        4.691438    2.241461   -1.860974
    102          1           0        5.515237    1.190788   -2.975221
    103          1           0        3.681343    0.869827   -2.658604
    104          1           0        6.349739    1.132500    0.210195
    105          1           0        6.233886   -0.598828    0.644843
    106          1           0        7.469406   -1.413911   -1.509624
    107          1           0        7.587143    0.341362   -1.876507
    108          1           0        9.014140    0.708036    0.111902
    109          1           0        8.475817   -0.783673    0.651597
    110          1           0       10.028175   -0.239609   -1.907254
    111          1           0        9.327207   -2.408249   -1.969749
    112          1           0       11.016137   -2.774744   -1.873899
    113          1           0       10.019515   -3.026217   -0.351532
    114          1           0       11.348709    0.640608    0.496392
    115          1           0       11.145456   -1.119606    0.936435
    116          1           0       12.771522   -1.638653   -0.699387
    117          1           0       12.836298   -0.378432   -1.805152
    118          1           0       13.867901    1.117676    0.295954
    119          1           0       13.828743   -0.430422    1.260019
    120          1           0       15.333676    0.361835   -1.461254
    121          1           0       14.974045   -2.157383   -1.257441
    122          1           0       16.725815   -1.890928   -0.974320
    123          1           0       15.678861   -2.267431    0.380550
    124          1           0       15.843063    1.510910    0.642768
    125          1           0       16.482518    0.037808    1.580565
    126          1           0       18.287650   -0.272894   -0.488087
    127          1           0       17.616084    1.228364   -1.196115
    128          1           0       18.258908    2.541643    1.039619
    129          1           0       18.641990    0.941912    1.692359
    130          1           0       20.600539    0.763154    0.159291
    131          1           0       19.573669    3.417275   -1.074543
    132          1           0       21.289683    2.681228   -1.581266
    133          1           0       19.775363    1.743508   -1.944426
    134          1           0       21.174245    1.811362    2.196289
    135          1           0       21.892791    2.657805    0.584305
    136          1           0       20.480487    3.401566    1.660743
    137          1           0       -7.161030    1.777386    0.412143
    138          1           0       -7.523152   -0.178252   -0.066538
 ---------------------------------------------------------------------

 SCF Done:  E(RB3LYP) =  -2732.97987349     A.U. after   17 cycles

 Excitation energies and oscillator strengths:

 Excited State   1:      Singlet-A      2.0689 eV  599.28 nm  f=0.1706  <S**2>=0.000
     235 -> 237       -0.23586
     235 -> 238       -0.29256
     236 -> 237        0.57663
     236 -> 238       -0.15383
 This state for optimization and/or second-order correction.
 Total Energy, E(TD-HF/TD-KS) =  -2732.90384282
 Copying the excited state density for this state as the 1-particle RhoCI density.

 The electronic state is 1-A.
 Alpha  occ. eigenvalues --  -19.19550 -19.15045 -19.13870 -19.13450 -19.11470
 Alpha  occ. eigenvalues --  -14.37467 -14.37345 -14.32496 -14.30149 -10.33241
 Alpha  occ. eigenvalues --  -10.30025 -10.29933 -10.27431 -10.25347 -10.24117
 Alpha  occ. eigenvalues --  -10.23906 -10.23828 -10.23774 -10.23207 -10.23183
 Alpha  occ. eigenvalues --  -10.22946 -10.22437 -10.22341 -10.22300 -10.22019
 Alpha  occ. eigenvalues --  -10.21875 -10.21660 -10.21452 -10.21316 -10.21219
 Alpha  occ. eigenvalues --  -10.21131 -10.21076 -10.21066 -10.20606 -10.20537
 Alpha  occ. eigenvalues --  -10.20505 -10.20429 -10.20418 -10.20211 -10.20120
 Alpha  occ. eigenvalues --  -10.20017 -10.19834 -10.19675 -10.19646 -10.19608
 Alpha  occ. eigenvalues --  -10.19544 -10.19528 -10.19515 -10.19406 -10.19389
 Alpha  occ. eigenvalues --  -10.19382 -10.19376 -10.19167 -10.19113 -10.18931
 Alpha  occ. eigenvalues --  -10.18931 -10.18859 -10.18744 -10.18701 -10.18635
 Alpha  occ. eigenvalues --  -10.18520 -10.18339 -10.17611 -10.17473  -1.11786
 Alpha  occ. eigenvalues --   -1.08496  -1.02140  -1.01118  -0.99303  -0.98824
 Alpha  occ. eigenvalues --   -0.98116  -0.95034  -0.92949  -0.86511  -0.83856
 Alpha  occ. eigenvalues --   -0.82217  -0.81713  -0.81220  -0.81165  -0.80347
 Alpha  occ. eigenvalues --   -0.80112  -0.79983  -0.79470  -0.79365  -0.78620
 Alpha  occ. eigenvalues --   -0.77423  -0.76566  -0.76053  -0.74936  -0.74712
 Alpha  occ. eigenvalues --   -0.74316  -0.73691  -0.72597  -0.71435  -0.71061
 Alpha  occ. eigenvalues --   -0.70460  -0.69571  -0.69394  -0.68070  -0.67170
 Alpha  occ. eigenvalues --   -0.67038  -0.66727  -0.65789  -0.65267  -0.64579
 Alpha  occ. eigenvalues --   -0.64355  -0.63191  -0.62432  -0.61914  -0.61654
 Alpha  occ. eigenvalues --   -0.60934  -0.59086  -0.58792  -0.58181  -0.57569
 Alpha  occ. eigenvalues --   -0.57277  -0.56405  -0.56311  -0.55168  -0.55126
 Alpha  occ. eigenvalues --   -0.54818  -0.54581  -0.54112  -0.53512  -0.53453
 Alpha  occ. eigenvalues --   -0.52801  -0.52154  -0.52044  -0.51131  -0.50755
 Alpha  occ. eigenvalues --   -0.50044  -0.49672  -0.49372  -0.49075  -0.48364
 Alpha  occ. eigenvalues --   -0.48246  -0.47864  -0.47513  -0.47433  -0.47027
 Alpha  occ. eigenvalues --   -0.46982  -0.46668  -0.46310  -0.46039  -0.45951
 Alpha  occ. eigenvalues --   -0.45638  -0.45557  -0.45366  -0.45204  -0.44997
 Alpha  occ. eigenvalues --   -0.44516  -0.44254  -0.44129  -0.43791  -0.43597
 Alpha  occ. eigenvalues --   -0.43466  -0.43311  -0.43018  -0.42966  -0.42739
 Alpha  occ. eigenvalues --   -0.42585  -0.42422  -0.42121  -0.41912  -0.41810
 Alpha  occ. eigenvalues --   -0.41656  -0.41491  -0.41414  -0.40578  -0.40359
 Alpha  occ. eigenvalues --   -0.40113  -0.39939  -0.39799  -0.39742  -0.39563
 Alpha  occ. eigenvalues --   -0.39222  -0.39062  -0.38985  -0.38836  -0.38342
 Alpha  occ. eigenvalues --   -0.38005  -0.37820  -0.37749  -0.37604  -0.37457
 Alpha  occ. eigenvalues --   -0.37336  -0.37065  -0.36939  -0.36733  -0.36718
 Alpha  occ. eigenvalues --   -0.36501  -0.36431  -0.36183  -0.35946  -0.35742
 Alpha  occ. eigenvalues --   -0.35514  -0.35347  -0.34918  -0.34906  -0.34642
 Alpha  occ. eigenvalues --   -0.34579  -0.33917  -0.33699  -0.33401  -0.33225
 Alpha  occ. eigenvalues --   -0.32935  -0.32834  -0.32782  -0.32679  -0.32564
 Alpha  occ. eigenvalues --   -0.32396  -0.32022  -0.31717  -0.31521  -0.31190
 Alpha  occ. eigenvalues --   -0.30705  -0.30547  -0.30224  -0.29948  -0.29406
 Alpha  occ. eigenvalues --   -0.29356  -0.29298  -0.29147  -0.28791  -0.28497
 Alpha  occ. eigenvalues --   -0.27680  -0.27347  -0.26714  -0.26428  -0.26221
 Alpha  occ. eigenvalues --   -0.25738  -0.25101  -0.24532  -0.22698  -0.20399
 Alpha  occ. eigenvalues --   -0.19559
 Alpha virt. eigenvalues --   -0.10980  -0.08351  -0.04993  -0.03230  -0.02800
 Alpha virt. eigenvalues --   -0.01158  -0.00541   0.00635   0.02174   0.02750
 Alpha virt. eigenvalues --    0.03500   0.04202   0.04234   0.04246   0.04466

 Mulliken charges:
               1
     1  C    0.029893
     2  C   -0.082725
     3  C   -0.022060
     4  C   -0.094332
     5  N   -0.133613
     6  C   -0.098127
     7  C   -0.045654
     8  C    0.044930
     9  C   -0.044736
    10  C    0.147206
    11  C    0.045820
    12  C   -0.043644
    13  C    0.164117
    14  O   -0.225646
    15  O   -0.381499
    16  N   -0.082118
    17  C    0.104433
    18  C   -0.116286
    19  C    0.066344
    20  C    0.089482
    21  C    0.042960
    22  C   -0.095489
    23  C   -0.016472
    24  N   -0.260916
    25  C    0.006409
    26  C   -0.133200
    27  C   -0.142430
    28  C    0.108646
    29  C    0.102987
    30  C    0.185982
    31  C   -0.028580
    32  N   -0.061369
    33  C    0.058005
    34  C   -0.213256
    35  C   -0.034635
    36  C    0.105863
    37  C    0.275240
    38  C    0.072521
    39  O   -0.186954
    40  C    0.024951
    41  C    0.210081
    42  O   -0.246819
    43  O   -0.231323
    44  C    0.029285
    45  C    0.285116
    46  C   -0.107978
    47  C   -0.076438
    48  C   -0.013474
    49  C   -0.011063
    50  C    0.074253
    51  C    0.082805
    52  C   -0.037747
    53  C   -0.049318
    54  C   -0.071899
    55  C    0.081792
    56  C    0.028761
    57  C   -0.147804
    58  C    0.029641
    59  C    0.054958
    60  C    0.018434
    61  C   -0.032148
    62  C   -0.044653
    63  C   -0.073439
    64  C    0.010316
    65  H    0.018338
    66  H   -0.047532
    67  H   -0.030003
    68  H    0.018965
    69  H   -0.040591
    70  H    0.003505
    71  H   -0.034223
    72  H    0.013819
    73  H    0.021873
    74  H    0.050492
    75  H    0.043485
    76  H    0.066919
    77  H    0.042777
    78  H    0.019572
    79  H    0.059763
    80  H    0.048277
    81  H   -0.018181
    82  H    0.040940
    83  H    0.014595
    84  H    0.008209
    85  H    0.001645
    86  H   -0.034075
    87  H   -0.003482
    88  H    0.012353
    89  H    0.024166
    90  H    0.018878
    91  H    0.050652
    92  H    0.019348
    93  H   -0.085217
    94  H    0.057519
    95  H    0.037905
    96  H    0.050041
    97  H    0.038589
    98  H   -0.000815
    99  H    0.037985
   100  H    0.038170
   101  H    0.036506
   102  H    0.025491
   103  H    0.023804
   104  H    0.017067
   105  H    0.000398
   106  H    0.022365
   107  H   -0.020811
   108  H   -0.016612
   109  H   -0.028918
   110  H   -0.002827
   111  H   -0.000297
   112  H    0.036418
   113  H    0.021515
   114  H    0.000489
   115  H    0.004197
   116  H   -0.024377
   117  H    0.004277
   118  H    0.004455
   119  H    0.002046
   120  H    0.012216
   121  H    0.008946
   122  H    0.001465
   123  H    0.001454
   124  H   -0.009691
   125  H    0.017488
   126  H    0.012074
   127  H    0.004121
   128  H   -0.005157
   129  H   -0.013733
   130  H   -0.018264
   131  H    0.026201
   132  H    0.010742
   133  H    0.026749
   134  H    0.018385
   135  H    0.027753
   136  H    0.014009
   137  H    0.111317
   138  H    0.190688
 Sum of Mulliken charges =   0.00000

 Dipole moment (field-independent basis, Debye):
    X=             -0.5927    Y=              4.4348    Z=             -0.1117  Tot=              4.4756
 Quadrupole moment (field-independent basis, Debye-Ang):
   XX=           -354.1723   YY=           -388.2372   ZZ=           -401.6343
   XY=            -29.1805   XZ=              8.8650   YZ=              2.3175

 Normal termination of Gaussian 09 at Fri Aug  2 11:25:13 2019.
