 Gaussian 09, Revision D.01,
 Gaussian 09:  ES64L-G09RevD.01 24-Apr-2013

 --------------------------
 # td=(NStates=1) B3LYP/SVP
 --------------------------

 --
 TD
 --
 Symbolic Z-matrix:
 Charge =  0 Multiplicity = 1

                         Standard orientation:
 ---------------------------------------------------------------------
 Center     Atomic      Atomic             Coordinates (Angstroms)
 Number     Number       Type             X           Y           Z
 ---------------------------------------------------------------------
      1          6           0       -5.134239   -1.886104    0.571968
      2          6           0       -4.849250    2.787263    1.330675
      3          6           0       -9.439412    3.209088   -0.170349
      4          6           0       -9.874817   -1.514316   -0.723055
      5          7           0       -5.265100    0.470278    0.798628
      6          6           0       -4.450583   -0.733716    0.859572
      7          6           0       -3.030787   -0.473486    1.170882
      8          6           0       -3.044487    0.968635    1.620230
      9          6           0       -4.412191    1.470573    1.196099
     10          6           0       -2.724537    1.029722    3.204840
     11          6           0       -2.025792   -0.822447    0.015416
     12          6           0       -0.611554   -0.706810    0.415254
     13          6           0        0.313366   -0.962552   -0.674996
     14          8           0        0.101285   -1.430777   -1.766397
     15          8           0        1.552645   -0.617500   -0.380417
     16          7           0       -7.085026    2.638131    0.511277
     17          6           0       -6.060939    3.423391    0.869751
     18          6           0       -6.342405    4.831888    0.891481
     19          6           0       -7.636271    4.894626    0.457767
     20          6           0       -8.143346    3.608208    0.171232
     21          6           0       -5.344395    5.882871    1.420083
     22          6           0       -8.293840    6.245531    0.279304
     23          6           0       -9.022250    6.506448   -0.731923
     24          7           0       -9.256803    0.825128   -0.467784
     25          6           0       -9.956382    1.913980   -0.504379
     26          6           0      -11.378754    1.703199   -0.849533
     27          6           0      -11.476863    0.402718   -1.027027
     28          6           0      -10.185531   -0.192175   -0.807701
     29          6           0      -12.464115    2.766765   -0.986837
     30          6           0      -12.689387   -0.400062   -1.530941
     31          6           0      -12.714870   -0.616008   -2.993777
     32          7           0       -7.523205   -1.274197   -0.056522
     33          6           0       -8.616476   -2.028821   -0.527127
     34          6           0       -8.162722   -3.344505   -0.566449
     35          6           0       -6.858625   -3.431388   -0.143012
     36          6           0       -6.457142   -2.058943    0.154585
     37          6           0       -9.043173   -4.650153   -0.721499
     38          6           0       -5.671192   -4.313539    0.032684
     39          8           0       -5.557363   -5.456385   -0.150608
     40          6           0       -4.530504   -3.211165    0.414864
     41          6           0       -3.904024   -3.748373    1.762867
     42          8           0       -4.160806   -3.345398    2.849381
     43          8           0       -2.990451   -4.704675    1.484610
     44          6           0       -2.425942   -5.452206    2.596804
     45          6           0        2.573552   -0.783843   -1.273921
     46          6           0        3.892751   -0.520160   -0.622311
     47          6           0        4.982311    0.104520   -1.104947
     48          6           0        4.872768    1.048156   -2.297288
     49          6           0        6.271026    0.338093   -0.271510
     50          6           0        7.509487   -0.110184   -1.074507
     51          6           0        8.804328   -0.133161   -0.138484
     52          6           0       10.098847   -0.652173   -0.809235
     53          6           0        9.992451   -2.165183   -1.220167
     54          6           0       11.424553   -0.161544   -0.080692
     55          6           0       12.796361   -0.558294   -0.747857
     56          6           0       13.987605   -0.038241    0.079682
     57          6           0       15.313044   -0.263999   -0.466211
     58          6           0       15.671932   -1.704379   -0.668985
     59          6           0       16.326381    0.556972    0.448340
     60          6           0       17.806689    0.590222   -0.102595
     61          6           0       18.653096    1.440575    0.695188
     62          6           0       20.161230    1.456454    0.353302
     63          6           0       20.454346    2.181990   -0.872608
     64          6           0       21.080161    2.187536    1.470167
     65          1           0       -4.089411    3.643326    1.602206
     66          1           0      -10.127622    4.033327   -0.279819
     67          1           0      -10.804980   -2.220964   -0.947415
     68          1           0       -2.791095   -1.113484    2.041607
     69          1           0       -2.337676    1.534511    1.268998
     70          1           0       -1.587894    0.647345    3.206808
     71          1           0       -2.954514    2.004456    3.551428
     72          1           0       -3.563264    0.451357    3.692714
     73          1           0       -2.281294   -1.863941   -0.275652
     74          1           0       -2.228544   -0.070300   -0.782450
     75          1           0       -0.437142    0.463567    0.670575
     76          1           0       -0.381283   -1.343506    1.221053
     77          1           0       -4.442735    6.084271    0.973528
     78          1           0       -5.887109    6.816668    1.413364
     79          1           0       -5.000956    5.667636    2.573209
     80          1           0       -8.276413    6.836305    1.216804
     81          1           0       -9.128646    5.810625   -1.710824
     82          1           0       -9.544877    7.530475   -0.654559
     83          1           0      -12.647120    3.159694    0.018097
     84          1           0      -12.242402    3.647230   -1.694651
     85          1           0      -13.453570    2.201940   -1.095603
     86          1           0      -12.660349   -1.444550   -0.885442
     87          1           0      -13.440964    0.216696   -1.182095
     88          1           0      -12.973942    0.180011   -3.770072
     89          1           0      -11.771057   -1.291590   -3.118248
     90          1           0      -13.484000   -1.389217   -3.146035
     91          1           0       -9.603708   -4.862968    0.281815
     92          1           0       -9.787911   -4.553884   -1.678735
     93          1           0       -8.348611   -5.570755   -0.983715
     94          1           0       -3.732374   -3.374560   -0.263512
     95          1           0       -1.571354   -6.214986    2.418380
     96          1           0       -2.081352   -4.646245    3.336578
     97          1           0       -3.227545   -6.163084    3.256816
     98          1           0        2.706768   -1.819021   -1.477371
     99          1           0        2.159119   -0.102975   -2.361411
    100          1           0        4.029445   -1.245114    0.252583
    101          1           0        5.162684    2.020638   -2.015909
    102          1           0        5.497989    0.596308   -3.061384
    103          1           0        3.869880    1.018913   -2.722535
    104          1           0        6.297589    1.429889   -0.021029
    105          1           0        6.140168   -0.385225    0.644954
    106          1           0        7.417505   -1.392189   -1.462706
    107          1           0        7.664261    0.575336   -2.078825
    108          1           0        8.927267    0.971215    0.063223
    109          1           0        8.611195   -0.425750    0.882826
    110          1           0       10.167455   -0.129944   -1.808117
    111          1           0        9.244644   -2.313509   -1.874969
    112          1           0       10.906657   -2.558735   -1.770848
    113          1           0       10.141540   -2.742434   -0.348985
    114          1           0       11.307119    0.814291    0.154745
    115          1           0       11.259647   -0.541686    0.988096
    116          1           0       12.866477   -1.630877   -0.863092
    117          1           0       12.930299   -0.285252   -1.797388
    118          1           0       13.750957    1.045855    0.245874
    119          1           0       14.023273   -0.661865    0.971761
    120          1           0       15.284482    0.305461   -1.559814
    121          1           0       15.044684   -2.253155   -1.320387
    122          1           0       16.834195   -1.946496   -1.124314
    123          1           0       15.520041   -2.289519    0.309779
    124          1           0       16.035899    1.573223    0.616136
    125          1           0       16.534530    0.031635    1.383491
    126          1           0       17.970809   -0.573681   -0.167437
    127          1           0       17.626150    0.855337   -1.336870
    128          1           0       18.255959    2.465108    0.520677
    129          1           0       18.466294    1.258696    1.845693
    130          1           0       20.488742    0.404381    0.374383
    131          1           0       19.775982    3.284689   -0.949168
    132          1           0       21.365368    2.333564   -1.396362
    133          1           0       19.988854    1.432295   -1.719602
    134          1           0       20.896285    1.869857    2.390355
    135          1           0       22.135552    1.981831    1.388070
    136          1           0       20.758341    3.223232    1.484419
    137          1           0       -7.140970    1.726822    0.039678
    138          1           0       -7.739889   -0.373031   -0.023783
 ---------------------------------------------------------------------

 SCF Done:  E(RB3LYP) =  -2733.06129621     A.U. after   17 cycles

 Excitation energies and oscillator strengths:

 Excited State   1:      Singlet-A      2.1374 eV  580.07 nm  f=0.1429  <S**2>=0.000
     235 -> 237       -0.26562
     235 -> 238        0.28385
     236 -> 237        0.56778
     236 -> 238        0.15823
 This state for optimization and/or second-order correction.
 Total Energy, E(TD-HF/TD-KS) =  -2732.98274817
 Copying the excited state density for this state as the 1-particle RhoCI density.

 The electronic state is 1-A.
 Alpha  occ. eigenvalues --  -19.17990 -19.17314 -19.12723 -19.12395 -19.11690
 Alpha  occ. eigenvalues --  -14.36213 -14.35890 -14.31953 -14.30048 -10.31245
 Alpha  occ. eigenvalues --  -10.30986 -10.27903 -10.26732 -10.25844 -10.23726
 Alpha  occ. eigenvalues --  -10.23604 -10.23213 -10.22503 -10.22492 -10.22221
 Alpha  occ. eigenvalues --  -10.22158 -10.21412 -10.21243 -10.21048 -10.21041
 Alpha  occ. eigenvalues --  -10.20939 -10.20814 -10.20724 -10.20677 -10.20616
 Alpha  occ. eigenvalues --  -10.20450 -10.20447 -10.20388 -10.20290 -10.20256
 Alpha  occ. eigenvalues --  -10.20090 -10.20002 -10.19988 -10.19928 -10.19836
 Alpha  occ. eigenvalues --  -10.19807 -10.19719 -10.19669 -10.19454 -10.19363
 Alpha  occ. eigenvalues --  -10.19319 -10.19235 -10.19232 -10.19200 -10.19173
 Alpha  occ. eigenvalues --  -10.19010 -10.18994 -10.18966 -10.18862 -10.18276
 Alpha  occ. eigenvalues --  -10.18198 -10.18108 -10.18097 -10.17971 -10.17885
 Alpha  occ. eigenvalues --  -10.17680 -10.17545 -10.16925 -10.16090  -1.11789
 Alpha  occ. eigenvalues --   -1.09333  -1.05665  -1.01153  -1.00742  -0.98540
 Alpha  occ. eigenvalues --   -0.97203  -0.94425  -0.92337  -0.84737  -0.82925
 Alpha  occ. eigenvalues --   -0.82644  -0.82446  -0.81571  -0.80924  -0.80762
 Alpha  occ. eigenvalues --   -0.79999  -0.79484  -0.79392  -0.78794  -0.78350
 Alpha  occ. eigenvalues --   -0.76955  -0.76171  -0.75550  -0.75128  -0.74885
 Alpha  occ. eigenvalues --   -0.73491  -0.72932  -0.72302  -0.71738  -0.70829
 Alpha  occ. eigenvalues --   -0.69702  -0.69082  -0.68083  -0.67978  -0.67646
 Alpha  occ. eigenvalues --   -0.67405  -0.67017  -0.66626  -0.65965  -0.65496
 Alpha  occ. eigenvalues --   -0.63815  -0.62799  -0.62594  -0.61877  -0.61690
 Alpha  occ. eigenvalues --   -0.61080  -0.59100  -0.57907  -0.57573  -0.56991
 Alpha  occ. eigenvalues --   -0.56814  -0.56528  -0.55653  -0.55248  -0.55188
 Alpha  occ. eigenvalues --   -0.54819  -0.54082  -0.54056  -0.53241  -0.52953
 Alpha  occ. eigenvalues --   -0.52674  -0.51959  -0.51761  -0.51014  -0.50793
 Alpha  occ. eigenvalues --   -0.50090  -0.49114  -0.48781  -0.48712  -0.48017
 Alpha  occ. eigenvalues --   -0.47742  -0.47434  -0.47371  -0.47176  -0.47010
 Alpha  occ. eigenvalues --   -0.46710  -0.46562  -0.46158  -0.46013  -0.45534
 Alpha  occ. eigenvalues --   -0.45483  -0.45303  -0.45139  -0.44757  -0.44545
 Alpha  occ. eigenvalues --   -0.44477  -0.44018  -0.43976  -0.43874  -0.43658
 Alpha  occ. eigenvalues --   -0.43259  -0.43115  -0.42741  -0.42625  -0.42406
 Alpha  occ. eigenvalues --   -0.42390  -0.42193  -0.41899  -0.41639  -0.41582
 Alpha  occ. eigenvalues --   -0.41068  -0.40900  -0.40699  -0.40657  -0.40520
 Alpha  occ. eigenvalues --   -0.40355  -0.39783  -0.39645  -0.39452  -0.39388
 Alpha  occ. eigenvalues --   -0.39155  -0.39013  -0.38964  -0.38599  -0.38359
 Alpha  occ. eigenvalues --   -0.38056  -0.37779  -0.37679  -0.37482  -0.37267
 Alpha  occ. eigenvalues --   -0.37152  -0.37034  -0.36973  -0.36859  -0.36759
 Alpha  occ. eigenvalues --   -0.36543  -0.36331  -0.36291  -0.36022  -0.35836
 Alpha  occ. eigenvalues --   -0.35426  -0.35126  -0.34796  -0.34724  -0.34486
 Alpha  occ. eigenvalues --   -0.34383  -0.34187  -0.34084  -0.33962  -0.33766
 Alpha  occ. eigenvalues --   -0.33626  -0.33378  -0.33243  -0.32908  -0.32293
 Alpha  occ. eigenvalues --   -0.32066  -0.31791  -0.31421  -0.31407  -0.30989
 Alpha  occ. eigenvalues --   -0.30251  -0.30222  -0.30151  -0.30005  -0.29814
 Alpha  occ. eigenvalues --   -0.29370  -0.28691  -0.28269  -0.28055  -0.27707
 Alpha  occ. eigenvalues --   -0.27600  -0.27423  -0.27240  -0.26262  -0.26146
 Alpha  occ. eigenvalues --   -0.25825  -0.24854  -0.24619  -0.23647  -0.19541
 Alpha  occ. eigenvalues --   -0.18868
 Alpha virt. eigenvalues --   -0.09858  -0.07041  -0.03603  -0.00686  -0.00034
 Alpha virt. eigenvalues --    0.00349   0.00643   0.01134   0.02124   0.03284
 Alpha virt. eigenvalues --    0.03611   0.03865   0.04388   0.04566   0.04905

 Mulliken charges:
               1
     1  C    0.132628
     2  C   -0.088820
     3  C   -0.079123
     4  C   -0.116652
     5  N   -0.247445
     6  C   -0.086148
     7  C    0.031123
     8  C    0.035190
     9  C    0.049811
    10  C    0.030309
    11  C    0.054305
    12  C    0.051624
    13  C    0.137800
    14  O   -0.228985
    15  O   -0.260217
    16  N   -0.084900
    17  C    0.034963
    18  C   -0.086771
    19  C   -0.020950
    20  C    0.084103
    21  C    0.102169
    22  C   -0.028962
    23  C   -0.058264
    24  N   -0.216327
    25  C    0.021845
    26  C   -0.151752
    27  C   -0.093182
    28  C    0.049782
    29  C    0.103543
    30  C    0.047265
    31  C    0.040807
    32  N    0.065257
    33  C    0.085852
    34  C   -0.163364
    35  C   -0.006277
    36  C    0.064006
    37  C   -0.018406
    38  C    0.088561
    39  O   -0.099204
    40  C   -0.156567
    41  C    0.177591
    42  O   -0.193204
    43  O   -0.301824
    44  C    0.097286
    45  C    0.203920
    46  C   -0.095358
    47  C   -0.163761
    48  C    0.126084
    49  C    0.067136
    50  C   -0.138282
    51  C    0.048345
    52  C   -0.071289
    53  C    0.099004
    54  C    0.073689
    55  C    0.077314
    56  C    0.034797
    57  C   -0.074505
    58  C   -0.012153
    59  C    0.033409
    60  C   -0.074854
    61  C    0.058401
    62  C   -0.062236
    63  C   -0.025282
    64  C    0.103192
    65  H   -0.014727
    66  H   -0.041420
    67  H    0.018019
    68  H    0.006683
    69  H   -0.075351
    70  H    0.049185
    71  H   -0.000761
    72  H    0.037320
    73  H    0.024271
    74  H    0.012619
    75  H    0.052680
    76  H    0.019459
    77  H    0.013573
    78  H    0.001026
    79  H    0.044144
    80  H    0.033338
    81  H    0.068250
    82  H    0.033301
    83  H    0.011453
    84  H    0.047678
    85  H    0.006669
    86  H    0.026527
    87  H   -0.032650
    88  H    0.042806
    89  H    0.013627
    90  H   -0.000453
    91  H    0.060790
    92  H    0.036557
    93  H    0.058476
    94  H    0.041387
    95  H    0.061622
    96  H    0.042767
    97  H    0.050842
    98  H    0.010211
    99  H    0.051561
   100  H    0.004985
   101  H    0.009609
   102  H    0.015548
   103  H   -0.011135
   104  H    0.030053
   105  H    0.016810
   106  H    0.028533
   107  H    0.038774
   108  H   -0.019774
   109  H   -0.011814
   110  H   -0.016218
   111  H   -0.011365
   112  H   -0.009173
   113  H   -0.010309
   114  H   -0.050565
   115  H   -0.017949
   116  H   -0.020596
   117  H   -0.018363
   118  H    0.005315
   119  H   -0.017896
   120  H   -0.004884
   121  H    0.003588
   122  H    0.041939
   123  H    0.008876
   124  H   -0.013295
   125  H   -0.009817
   126  H    0.003999
   127  H    0.015155
   128  H   -0.009258
   129  H    0.008660
   130  H   -0.002570
   131  H    0.023444
   132  H    0.010411
   133  H    0.002506
   134  H   -0.051489
   135  H    0.003381
   136  H   -0.005215
   137  H    0.178617
   138  H    0.043956
 Sum of Mulliken charges =   0.00000

 Dipole moment (field-independent basis, Debye):
    X=              1.1157    Y=              5.0176    Z=              1.2406  Tot=              5.2877
 Quadrupole moment (field-independent basis, Debye-Ang):
   XX=           -351.2410   YY=           -375.7203   ZZ=           -400.0502
   XY=            -38.8617   XZ=             14.3219   YZ=             -3.6596

 Normal termination of Gaussian 09 at Thu Jul 25 06:31:53 2019.
