 Gaussian 09, Revision D.01,
 Gaussian 09:  ES64L-G09RevD.01 24-Apr-2013

 --------------------------
 # td=(NStates=1) B3LYP/SVP
 --------------------------

 --
 TD
 --
 Symbolic Z-matrix:
 Charge =  0 Multiplicity = 1

                         Standard orientation:
 ---------------------------------------------------------------------
 Center     Atomic      Atomic             Coordinates (Angstroms)
 Number     Number       Type             X           Y           Z
 ---------------------------------------------------------------------
      1          6           0       -5.091078   -1.946345    0.423357
      2          6           0       -4.841106    2.797041    1.375027
      3          6           0       -9.475814    3.209608   -0.166627
      4          6           0       -9.789463   -1.615552   -0.798747
      5          7           0       -5.232384    0.459267    0.795378
      6          6           0       -4.422138   -0.718097    0.777757
      7          6           0       -3.015030   -0.444780    1.213874
      8          6           0       -3.130420    0.985220    1.837640
      9          6           0       -4.471555    1.378330    1.326625
     10          6           0       -2.935340    1.138662    3.324119
     11          6           0       -2.096946   -0.648534    0.045328
     12          6           0       -0.578070   -0.249918    0.494819
     13          6           0        0.385733   -0.507930   -0.609235
     14          8           0        0.055118   -0.789419   -1.755999
     15          8           0        1.660451   -0.590877   -0.167408
     16          7           0       -7.241222    2.694553    0.527088
     17          6           0       -6.073343    3.387944    1.125328
     18          6           0       -6.535776    4.796403    1.110245
     19          6           0       -7.798905    4.890760    0.601927
     20          6           0       -8.235217    3.496878    0.290912
     21          6           0       -5.624493    5.904555    1.583817
     22          6           0       -8.495932    6.095696    0.365572
     23          6           0       -9.117015    6.329792   -0.899941
     24          7           0       -9.355309    0.796006   -0.331648
     25          6           0      -10.080186    1.905515   -0.620907
     26          6           0      -11.372512    1.698419   -0.998223
     27          6           0      -11.498235    0.343339   -1.174669
     28          6           0      -10.157396   -0.255701   -0.923465
     29          6           0      -12.376159    2.728871   -1.270550
     30          6           0      -12.645577   -0.552648   -1.618883
     31          6           0      -12.516009   -0.835616   -3.143858
     32          7           0       -7.544284   -1.350689   -0.169699
     33          6           0       -8.635011   -2.206177   -0.475910
     34          6           0       -8.232856   -3.540532   -0.478444
     35          6           0       -6.742924   -3.425381   -0.081276
     36          6           0       -6.419443   -2.126645    0.011063
     37          6           0       -8.969228   -4.675249   -0.851674
     38          6           0       -5.606090   -4.392152    0.097357
     39          8           0       -5.567709   -5.522060    0.023218
     40          6           0       -4.439100   -3.379953    0.505368
     41          6           0       -3.853039   -3.756303    1.747974
     42          8           0       -4.232515   -3.220326    2.781753
     43          8           0       -2.955257   -4.735732    1.652431
     44          6           0       -2.303762   -5.278117    2.944845
     45          6           0        2.692783   -0.988236   -1.247666
     46          6           0        4.043125   -0.531933   -0.726160
     47          6           0        5.047274    0.173790   -1.237615
     48          6           0        4.831783    0.910320   -2.567664
     49          6           0        6.334123    0.430303   -0.501762
     50          6           0        7.563354   -0.215627   -1.134259
     51          6           0        8.870082    0.023589   -0.353395
     52          6           0       10.126901   -0.546896   -1.015797
     53          6           0       10.113044   -2.055372   -1.165716
     54          6           0       11.350629   -0.055362   -0.126446
     55          6           0       12.728666   -0.347264   -0.709074
     56          6           0       13.885736    0.113878    0.024209
     57          6           0       15.264815   -0.190841   -0.445652
     58          6           0       15.493123   -1.729175   -0.594215
     59          6           0       16.352544    0.439021    0.432309
     60          6           0       17.770994    0.437874   -0.006722
     61          6           0       18.775589    1.194781    0.982935
     62          6           0       20.261855    1.330647    0.366397
     63          6           0       20.337644    1.985685   -0.993314
     64          6           0       21.062489    2.123059    1.358397
     65          1           0       -4.031592    3.481458    1.879914
     66          1           0       -9.971965    4.111824   -0.275554
     67          1           0      -10.491694   -2.333113   -1.190317
     68          1           0       -2.864224   -1.077492    2.221721
     69          1           0       -2.315915    1.637537    1.443253
     70          1           0       -1.908050    0.799609    3.561747
     71          1           0       -2.809764    2.247785    3.828782
     72          1           0       -3.544423    0.399481    3.837432
     73          1           0       -2.023248   -1.724016   -0.376430
     74          1           0       -2.387454    0.000967   -0.848632
     75          1           0       -0.304605    0.742995    0.814528
     76          1           0       -0.178156   -0.775743    1.439839
     77          1           0       -4.816381    5.935994    0.789942
     78          1           0       -6.049552    6.732513    1.689933
     79          1           0       -5.064775    5.694525    2.428889
     80          1           0       -8.441349    6.896638    0.971732
     81          1           0       -9.335954    5.614189   -1.683736
     82          1           0       -9.433803    7.382230   -0.991391
     83          1           0      -12.455108    3.442431   -0.502522
     84          1           0      -11.974708    3.034620   -2.190112
     85          1           0      -13.248462    2.172305   -1.442393
     86          1           0      -12.933253   -1.399139   -1.124776
     87          1           0      -13.683910   -0.025370   -1.576778
     88          1           0      -12.461969   -0.028660   -3.686231
     89          1           0      -11.396369   -1.358092   -3.051234
     90          1           0      -13.235047   -1.467005   -3.459748
     91          1           0       -9.599805   -4.827000    0.053923
     92          1           0       -9.555617   -4.536876   -1.812917
     93          1           0       -8.499788   -5.723860   -1.102443
     94          1           0       -3.770771   -3.436341   -0.320897
     95          1           0       -1.646638   -6.090382    2.695489
     96          1           0       -1.841001   -4.337150    3.352556
     97          1           0       -3.217684   -5.588527    3.446553
     98          1           0        2.870607   -1.873082   -1.353968
     99          1           0        2.142893   -0.609278   -2.269550
    100          1           0        4.313008   -0.987815    0.254989
    101          1           0        5.008361    1.802911   -2.424685
    102          1           0        5.598762    0.494627   -3.167701
    103          1           0        3.797439    0.426813   -2.980368
    104          1           0        6.617718    1.486678   -0.386113
    105          1           0        6.158462   -0.035321    0.615088
    106          1           0        7.208559   -1.146462   -1.368157
    107          1           0        7.635746    0.417687   -2.055174
    108          1           0        9.026698    1.123332   -0.061328
    109          1           0        8.676127   -0.606833    0.619814
    110          1           0       10.456512   -0.217759   -1.976887
    111          1           0        9.203328   -2.353731   -1.554137
    112          1           0       11.032329   -2.258570   -1.835744
    113          1           0       10.408470   -2.567006   -0.155460
    114          1           0       11.175017    0.800453   -0.323348
    115          1           0       11.104525   -0.568333    0.814855
    116          1           0       12.729364   -1.497025   -0.764191
    117          1           0       13.134983   -0.087564   -1.780775
    118          1           0       13.688523    1.276814    0.102219
    119          1           0       13.690770   -0.165851    1.223002
    120          1           0       15.572102    0.443616   -1.287380
    121          1           0       14.922692   -2.312957   -1.582407
    122          1           0       16.671768   -1.876014   -0.879137
    123          1           0       15.374616   -2.265945    0.325838
    124          1           0       16.242428    1.593998    0.459470
    125          1           0       16.354407    0.127676    1.511218
    126          1           0       18.089720   -0.555915   -0.042207
    127          1           0       17.794655    0.723547   -1.094343
    128          1           0       18.427728    2.117800    1.387120
    129          1           0       18.817887    0.572714    1.901791
    130          1           0       20.838301    0.361992    0.136886
    131          1           0       19.796145    2.977440   -1.019177
    132          1           0       21.454816    2.264710   -1.309188
    133          1           0       19.861260    1.571856   -1.885020
    134          1           0       21.190858    1.627692    2.253519
    135          1           0       22.198349    2.189536    0.822002
    136          1           0       20.785010    3.109001    1.205332
    137          1           0       -7.188526    1.742475    0.459741
    138          1           0       -7.760381   -0.394741    0.047642
 ---------------------------------------------------------------------

 SCF Done:  E(RB3LYP) =  -2732.92514911     A.U. after   18 cycles

 Excitation energies and oscillator strengths:

 Excited State   1:      Singlet-A      2.1904 eV  566.04 nm  f=0.0470  <S**2>=0.000
     235 -> 237        0.39192
     235 -> 238       -0.25951
     236 -> 237       -0.38393
     236 -> 238       -0.35554
 This state for optimization and/or second-order correction.
 Total Energy, E(TD-HF/TD-KS) =  -2732.84465363
 Copying the excited state density for this state as the 1-particle RhoCI density.

 The electronic state is 1-A.
 Alpha  occ. eigenvalues --  -19.17598 -19.16986 -19.12692 -19.11978 -19.10479
 Alpha  occ. eigenvalues --  -14.35248 -14.34857 -14.32287 -14.28796 -10.31195
 Alpha  occ. eigenvalues --  -10.30132 -10.27406 -10.25780 -10.24833 -10.24278
 Alpha  occ. eigenvalues --  -10.22945 -10.22894 -10.22602 -10.22248 -10.21810
 Alpha  occ. eigenvalues --  -10.21463 -10.21158 -10.21088 -10.20917 -10.20620
 Alpha  occ. eigenvalues --  -10.20609 -10.20587 -10.20549 -10.20479 -10.20421
 Alpha  occ. eigenvalues --  -10.20406 -10.20341 -10.20256 -10.20169 -10.20132
 Alpha  occ. eigenvalues --  -10.20017 -10.19952 -10.19938 -10.19859 -10.19688
 Alpha  occ. eigenvalues --  -10.19636 -10.19476 -10.19384 -10.19171 -10.19142
 Alpha  occ. eigenvalues --  -10.18911 -10.18706 -10.18540 -10.18540 -10.18496
 Alpha  occ. eigenvalues --  -10.18426 -10.18405 -10.18303 -10.18075 -10.18021
 Alpha  occ. eigenvalues --  -10.17959 -10.17844 -10.17795 -10.17763 -10.17625
 Alpha  occ. eigenvalues --  -10.17066 -10.16981 -10.16885 -10.16590  -1.07819
 Alpha  occ. eigenvalues --   -1.07749  -1.07043  -0.98963  -0.98497  -0.97136
 Alpha  occ. eigenvalues --   -0.96234  -0.94371  -0.91599  -0.84190  -0.83413
 Alpha  occ. eigenvalues --   -0.82670  -0.82367  -0.81554  -0.81110  -0.80372
 Alpha  occ. eigenvalues --   -0.80057  -0.79725  -0.79144  -0.78448  -0.78203
 Alpha  occ. eigenvalues --   -0.77310  -0.76468  -0.76045  -0.75447  -0.74595
 Alpha  occ. eigenvalues --   -0.73991  -0.73376  -0.72404  -0.72090  -0.71467
 Alpha  occ. eigenvalues --   -0.70636  -0.69350  -0.68791  -0.68454  -0.68101
 Alpha  occ. eigenvalues --   -0.67585  -0.67356  -0.66233  -0.65673  -0.64846
 Alpha  occ. eigenvalues --   -0.64201  -0.63739  -0.62548  -0.62092  -0.61628
 Alpha  occ. eigenvalues --   -0.61321  -0.59032  -0.57992  -0.57420  -0.56727
 Alpha  occ. eigenvalues --   -0.56503  -0.55658  -0.55582  -0.55288  -0.55199
 Alpha  occ. eigenvalues --   -0.55056  -0.54390  -0.54059  -0.53771  -0.52845
 Alpha  occ. eigenvalues --   -0.52203  -0.51699  -0.51168  -0.50744  -0.50425
 Alpha  occ. eigenvalues --   -0.50033  -0.49429  -0.49108  -0.48875  -0.48345
 Alpha  occ. eigenvalues --   -0.48181  -0.47908  -0.47773  -0.47361  -0.47142
 Alpha  occ. eigenvalues --   -0.46845  -0.46783  -0.46596  -0.46217  -0.45994
 Alpha  occ. eigenvalues --   -0.45699  -0.45613  -0.45370  -0.45048  -0.44982
 Alpha  occ. eigenvalues --   -0.44828  -0.44485  -0.44232  -0.44155  -0.43971
 Alpha  occ. eigenvalues --   -0.43836  -0.43674  -0.43495  -0.43212  -0.42796
 Alpha  occ. eigenvalues --   -0.42532  -0.42358  -0.42239  -0.41943  -0.41909
 Alpha  occ. eigenvalues --   -0.41667  -0.41125  -0.40880  -0.40791  -0.40610
 Alpha  occ. eigenvalues --   -0.40505  -0.40379  -0.40238  -0.39992  -0.39929
 Alpha  occ. eigenvalues --   -0.39585  -0.39326  -0.39065  -0.38868  -0.38852
 Alpha  occ. eigenvalues --   -0.38548  -0.38376  -0.38170  -0.38142  -0.37689
 Alpha  occ. eigenvalues --   -0.37462  -0.37126  -0.36795  -0.36561  -0.36474
 Alpha  occ. eigenvalues --   -0.36407  -0.36017  -0.35976  -0.35841  -0.35602
 Alpha  occ. eigenvalues --   -0.35425  -0.35186  -0.34813  -0.34716  -0.34595
 Alpha  occ. eigenvalues --   -0.34363  -0.34223  -0.34095  -0.33882  -0.33736
 Alpha  occ. eigenvalues --   -0.33602  -0.33079  -0.32983  -0.32425  -0.32270
 Alpha  occ. eigenvalues --   -0.31965  -0.31469  -0.31341  -0.31100  -0.30799
 Alpha  occ. eigenvalues --   -0.30524  -0.30439  -0.30402  -0.29895  -0.29877
 Alpha  occ. eigenvalues --   -0.29645  -0.28783  -0.28340  -0.28246  -0.27896
 Alpha  occ. eigenvalues --   -0.27312  -0.26545  -0.26150  -0.25437  -0.25198
 Alpha  occ. eigenvalues --   -0.24475  -0.23725  -0.23283  -0.21358  -0.19052
 Alpha  occ. eigenvalues --   -0.18499
 Alpha virt. eigenvalues --   -0.08924  -0.07742  -0.03910  -0.02006   0.00225
 Alpha virt. eigenvalues --    0.00404   0.00764   0.01598   0.02487   0.03580
 Alpha virt. eigenvalues --    0.03610   0.04223   0.04417   0.04652   0.04990

 Mulliken charges:
               1
     1  C   -0.040212
     2  C   -0.084909
     3  C   -0.061854
     4  C   -0.063207
     5  N   -0.163815
     6  C   -0.080983
     7  C   -0.014025
     8  C   -0.062041
     9  C   -0.001562
    10  C    0.040021
    11  C    0.075558
    12  C    0.012634
    13  C    0.180203
    14  O   -0.264431
    15  O   -0.347952
    16  N   -0.013630
    17  C    0.109275
    18  C   -0.149123
    19  C    0.065985
    20  C    0.067388
    21  C    0.257975
    22  C   -0.066960
    23  C   -0.037040
    24  N   -0.303000
    25  C    0.092028
    26  C   -0.195502
    27  C   -0.069279
    28  C    0.070372
    29  C    0.244668
    30  C    0.043841
    31  C    0.077667
    32  N   -0.073072
    33  C    0.079603
    34  C   -0.040985
    35  C   -0.124480
    36  C    0.183265
    37  C   -0.000371
    38  C    0.042533
    39  O   -0.064612
    40  C   -0.027087
    41  C    0.210352
    42  O   -0.264479
    43  O   -0.343218
    44  C    0.196168
    45  C    0.323926
    46  C   -0.106261
    47  C   -0.202432
    48  C    0.216628
    49  C    0.022190
    50  C    0.039717
    51  C    0.026794
    52  C   -0.122210
    53  C    0.034084
    54  C    0.220207
    55  C   -0.016384
    56  C   -0.027722
    57  C    0.032325
    58  C   -0.040170
    59  C   -0.051292
    60  C    0.063140
    61  C    0.048740
    62  C   -0.101162
    63  C   -0.031400
    64  C    0.089451
    65  H    0.000020
    66  H   -0.084485
    67  H   -0.035884
    68  H    0.041126
    69  H   -0.002048
    70  H   -0.001926
    71  H    0.040168
    72  H    0.030237
    73  H    0.050132
    74  H    0.043265
    75  H    0.019392
    76  H    0.036821
    77  H    0.021181
    78  H   -0.066454
    79  H   -0.008002
    80  H   -0.030315
    81  H    0.046422
    82  H    0.028539
    83  H    0.016257
    84  H    0.007178
    85  H   -0.019864
    86  H   -0.017368
    87  H   -0.016674
    88  H   -0.027025
    89  H    0.013957
    90  H   -0.012831
    91  H    0.044121
    92  H    0.040109
    93  H    0.050001
    94  H    0.026981
    95  H    0.050379
    96  H    0.055736
    97  H    0.052129
    98  H   -0.046351
    99  H    0.084776
   100  H   -0.007270
   101  H   -0.053420
   102  H   -0.008847
   103  H    0.027226
   104  H   -0.000586
   105  H    0.003754
   106  H   -0.013094
   107  H   -0.004913
   108  H    0.012600
   109  H    0.004098
   110  H   -0.022191
   111  H   -0.003196
   112  H    0.022066
   113  H    0.008124
   114  H   -0.112924
   115  H    0.009533
   116  H   -0.010125
   117  H   -0.000506
   118  H   -0.009972
   119  H   -0.011550
   120  H   -0.011917
   121  H    0.043393
   122  H    0.019199
   123  H    0.018152
   124  H   -0.003010
   125  H   -0.012924
   126  H   -0.027570
   127  H   -0.011459
   128  H   -0.014372
   129  H   -0.006368
   130  H    0.007372
   131  H   -0.008527
   132  H    0.018158
   133  H    0.011956
   134  H    0.004392
   135  H   -0.006954
   136  H   -0.009993
   137  H    0.094058
   138  H    0.128033
 Sum of Mulliken charges =   0.00000

 Dipole moment (field-independent basis, Debye):
    X=              3.8320    Y=              3.0527    Z=              0.9409  Tot=              4.9889
 Quadrupole moment (field-independent basis, Debye-Ang):
   XX=           -370.3642   YY=           -369.2723   ZZ=           -392.2291
   XY=            -18.8472   XZ=              9.0456   YZ=             -1.4302

 Normal termination of Gaussian 09 at Sat Aug  3 20:57:11 2019.
