 Gaussian 09, Revision D.01,
 Gaussian 09:  ES64L-G09RevD.01 24-Apr-2013

 --------------------------
 # td=(NStates=1) B3LYP/SVP
 --------------------------

 --
 TD
 --
 Symbolic Z-matrix:
 Charge =  0 Multiplicity = 1

                         Standard orientation:
 ---------------------------------------------------------------------
 Center     Atomic      Atomic             Coordinates (Angstroms)
 Number     Number       Type             X           Y           Z
 ---------------------------------------------------------------------
      1          6           0       -5.181546   -1.929131    0.463715
      2          6           0       -4.777990    2.651977    1.436337
      3          6           0       -9.221637    3.389767   -0.254676
      4          6           0       -9.860642   -1.345420   -0.918905
      5          7           0       -5.143395    0.341981    0.664566
      6          6           0       -4.465589   -0.693979    0.743605
      7          6           0       -3.052721   -0.653512    1.213168
      8          6           0       -3.127868    0.792253    1.935444
      9          6           0       -4.443804    1.319973    1.314042
     10          6           0       -3.148589    0.653288    3.440401
     11          6           0       -1.967593   -0.804376    0.112721
     12          6           0       -0.588213   -0.779603    0.555944
     13          6           0        0.374335   -1.047546   -0.600669
     14          8           0       -0.042443   -1.353476   -1.690964
     15          8           0        1.591194   -0.864775   -0.276015
     16          7           0       -6.896372    2.857574    0.355200
     17          6           0       -5.823902    3.360254    0.958891
     18          6           0       -6.162154    4.815447    1.050802
     19          6           0       -7.407602    4.988829    0.535042
     20          6           0       -7.937398    3.715678    0.198871
     21          6           0       -5.092898    5.777559    1.506079
     22          6           0       -8.070076    6.245805    0.455788
     23          6           0       -8.786780    6.745051   -0.573740
     24          7           0       -9.260505    0.925099   -0.562425
     25          6           0       -9.823020    2.142252   -0.604532
     26          6           0      -11.191737    2.047062   -0.852957
     27          6           0      -11.468182    0.683381   -1.012525
     28          6           0      -10.164601    0.048298   -0.896078
     29          6           0      -12.231666    3.067286   -0.814099
     30          6           0      -12.683837   -0.155140   -1.455577
     31          6           0      -12.551729   -0.521407   -2.968204
     32          7           0       -7.499670   -1.226286   -0.264341
     33          6           0       -8.647832   -1.957194   -0.705663
     34          6           0       -8.185671   -3.397821   -0.682787
     35          6           0       -6.894841   -3.381251   -0.225936
     36          6           0       -6.552729   -2.022655   -0.004830
     37          6           0       -9.092337   -4.439427   -1.035415
     38          6           0       -5.737397   -4.297890    0.045485
     39          8           0       -5.650652   -5.510511   -0.180994
     40          6           0       -4.610314   -3.359611    0.362224
     41          6           0       -4.056357   -3.906175    1.704103
     42          8           0       -4.342872   -3.491915    2.800865
     43          8           0       -3.161922   -4.971055    1.423218
     44          6           0       -2.587933   -5.513513    2.618524
     45          6           0        2.643974   -1.038877   -1.265697
     46          6           0        4.025334   -0.814380   -0.653177
     47          6           0        4.961660   -0.046539   -1.165498
     48          6           0        4.899811    0.819139   -2.400185
     49          6           0        6.239325    0.167893   -0.373406
     50          6           0        7.499152   -0.303111   -1.081824
     51          6           0        8.800918   -0.154565   -0.268672
     52          6           0       10.172867   -0.715428   -0.963032
     53          6           0       10.064161   -2.299834   -1.108807
     54          6           0       11.269557   -0.331604   -0.049775
     55          6           0       12.662908   -0.727280   -0.520768
     56          6           0       13.863548   -0.085098    0.289853
     57          6           0       15.263516   -0.323018   -0.313095
     58          6           0       15.532477   -1.777815   -0.181534
     59          6           0       16.188836    0.633666    0.517245
     60          6           0       17.772592    0.552182    0.051466
     61          6           0       18.585161    1.506330    0.699790
     62          6           0       20.014655    1.804460    0.054411
     63          6           0       20.019623    2.565668   -1.210459
     64          6           0       20.955003    2.521895    1.166530
     65          1           0       -4.038177    3.289276    1.772180
     66          1           0       -9.954754    4.272755   -0.442612
     67          1           0      -10.719881   -2.072507   -1.067925
     68          1           0       -2.790438   -1.222397    2.062829
     69          1           0       -2.296475    1.300231    1.475138
     70          1           0       -2.129715    0.693661    3.763388
     71          1           0       -3.610967    1.563460    4.094432
     72          1           0       -3.624008   -0.436425    3.660710
     73          1           0       -2.112316   -1.771362   -0.388180
     74          1           0       -2.224904   -0.216126   -0.731977
     75          1           0       -0.041142    0.158735    0.783888
     76          1           0       -0.348683   -1.377596    1.472545
     77          1           0       -4.196541    6.014159    0.740903
     78          1           0       -5.404810    6.941093    1.889477
     79          1           0       -4.491110    5.498712    2.303029
     80          1           0       -7.535089    6.998858    1.059845
     81          1           0       -9.084198    6.051606   -1.383279
     82          1           0       -8.998395    7.779632   -0.573938
     83          1           0      -12.349829    3.467389    0.152448
     84          1           0      -11.799308    3.855175   -1.456761
     85          1           0      -13.149286    2.820679   -1.228249
     86          1           0      -12.897630   -1.027991   -0.924531
     87          1           0      -13.627688    0.531757   -1.416670
     88          1           0      -12.538322    0.493320   -3.691529
     89          1           0      -11.668513   -1.168282   -3.132244
     90          1           0      -13.501027   -1.026752   -3.226905
     91          1           0       -9.683868   -4.486787    0.100943
     92          1           0       -9.922856   -4.227942   -1.896364
     93          1           0       -8.609216   -5.332883   -1.389589
     94          1           0       -3.716354   -3.812227   -0.281856
     95          1           0       -1.506637   -5.995789    2.482624
     96          1           0       -2.350238   -4.560468    3.291280
     97          1           0       -3.122368   -6.227574    3.237094
     98          1           0        2.516096   -2.075738   -1.600250
     99          1           0        2.439969   -0.742313   -2.441089
    100          1           0        4.140742   -1.212239    0.309124
    101          1           0        5.289397    1.846530   -1.989057
    102          1           0        5.651204    0.641067   -3.153673
    103          1           0        3.781726    0.760948   -2.900029
    104          1           0        6.264853    1.289983   -0.110773
    105          1           0        6.194115   -0.313390    0.596282
    106          1           0        7.458592   -1.426822   -1.414572
    107          1           0        7.698242    0.298592   -2.066741
    108          1           0        8.865758    0.974672    0.038795
    109          1           0        8.891926   -0.593450    0.822924
    110          1           0       10.611805   -0.332726   -1.952454
    111          1           0        9.316883   -2.683095   -1.864443
    112          1           0       11.154617   -2.847038   -1.406356
    113          1           0        9.900285   -2.779795   -0.050854
    114          1           0       11.341303    0.739021    0.042224
    115          1           0       11.285738   -0.614065    0.953242
    116          1           0       12.755396   -1.860891   -0.716549
    117          1           0       12.888111   -0.461292   -1.476300
    118          1           0       13.496688    0.927661    0.474109
    119          1           0       13.622366   -0.513630    1.317513
    120          1           0       15.191915   -0.104401   -1.590978
    121          1           0       14.811383   -2.338228   -0.718320
    122          1           0       16.408550   -2.035375   -0.900200
    123          1           0       15.657034   -2.055840    0.911507
    124          1           0       15.710370    1.703160    0.307209
    125          1           0       16.248249    0.314149    1.575421
    126          1           0       18.079773   -0.566526    0.023433
    127          1           0       17.603560    0.568004   -1.155496
    128          1           0       18.171363    2.620315    0.474715
    129          1           0       18.712352    1.341072    1.756929
    130          1           0       20.340888    0.737294    0.088008
    131          1           0       19.539560    3.592850   -0.990638
    132          1           0       21.067014    2.744859   -1.641204
    133          1           0       19.324603    2.120291   -2.041880
    134          1           0       20.922394    1.922635    2.074104
    135          1           0       22.027524    2.643181    0.641862
    136          1           0       20.624409    3.642180    1.128403
    137          1           0       -7.122738    1.829351    0.072596
    138          1           0       -7.659490   -0.376210   -0.104319
 ---------------------------------------------------------------------

 SCF Done:  E(RB3LYP) =  -2733.05462337     A.U. after   17 cycles

 Excitation energies and oscillator strengths:

 Excited State   1:      Singlet-A      2.1299 eV  582.11 nm  f=0.0954  <S**2>=0.000
     235 -> 238        0.36684
     236 -> 237        0.59606
 This state for optimization and/or second-order correction.
 Total Energy, E(TD-HF/TD-KS) =  -2732.97635040
 Copying the excited state density for this state as the 1-particle RhoCI density.

 The electronic state is 1-A.
 Alpha  occ. eigenvalues --  -19.19389 -19.18038 -19.13689 -19.12174 -19.11396
 Alpha  occ. eigenvalues --  -14.37165 -14.36292 -14.31840 -14.28538 -10.32126
 Alpha  occ. eigenvalues --  -10.31043 -10.28073 -10.26690 -10.25157 -10.23648
 Alpha  occ. eigenvalues --  -10.23535 -10.23494 -10.22780 -10.22768 -10.22747
 Alpha  occ. eigenvalues --  -10.22223 -10.21940 -10.21850 -10.21511 -10.21121
 Alpha  occ. eigenvalues --  -10.20940 -10.20887 -10.20807 -10.20789 -10.20696
 Alpha  occ. eigenvalues --  -10.20611 -10.20598 -10.20524 -10.20523 -10.20383
 Alpha  occ. eigenvalues --  -10.20278 -10.20218 -10.20084 -10.20062 -10.19961
 Alpha  occ. eigenvalues --  -10.19938 -10.19868 -10.19691 -10.19602 -10.19600
 Alpha  occ. eigenvalues --  -10.19549 -10.19479 -10.19439 -10.19405 -10.19353
 Alpha  occ. eigenvalues --  -10.19276 -10.19258 -10.19190 -10.19066 -10.18846
 Alpha  occ. eigenvalues --  -10.18656 -10.18305 -10.18256 -10.18034 -10.17425
 Alpha  occ. eigenvalues --  -10.17202 -10.17159 -10.17068 -10.16994  -1.12306
 Alpha  occ. eigenvalues --   -1.08155  -1.01627  -1.01035  -1.01031  -1.00698
 Alpha  occ. eigenvalues --   -0.99359  -0.97455  -0.94753  -0.84791  -0.83369
 Alpha  occ. eigenvalues --   -0.82496  -0.82066  -0.81945  -0.81820  -0.80907
 Alpha  occ. eigenvalues --   -0.80811  -0.79596  -0.79546  -0.78610  -0.78231
 Alpha  occ. eigenvalues --   -0.77152  -0.76231  -0.75788  -0.74880  -0.74362
 Alpha  occ. eigenvalues --   -0.73780  -0.73077  -0.72542  -0.71688  -0.70681
 Alpha  occ. eigenvalues --   -0.70177  -0.68996  -0.68620  -0.68026  -0.67640
 Alpha  occ. eigenvalues --   -0.67224  -0.66372  -0.66132  -0.65894  -0.65439
 Alpha  occ. eigenvalues --   -0.64714  -0.63762  -0.62961  -0.62065  -0.61170
 Alpha  occ. eigenvalues --   -0.60361  -0.59303  -0.58529  -0.58440  -0.57945
 Alpha  occ. eigenvalues --   -0.57489  -0.57305  -0.56519  -0.56056  -0.55991
 Alpha  occ. eigenvalues --   -0.54878  -0.54369  -0.53903  -0.53551  -0.53466
 Alpha  occ. eigenvalues --   -0.52964  -0.52389  -0.51963  -0.51280  -0.50495
 Alpha  occ. eigenvalues --   -0.49672  -0.49469  -0.49040  -0.48635  -0.48242
 Alpha  occ. eigenvalues --   -0.48016  -0.47884  -0.47778  -0.47589  -0.47177
 Alpha  occ. eigenvalues --   -0.47007  -0.46814  -0.46491  -0.46087  -0.45742
 Alpha  occ. eigenvalues --   -0.45167  -0.45017  -0.44948  -0.44822  -0.44644
 Alpha  occ. eigenvalues --   -0.44511  -0.44320  -0.44072  -0.43872  -0.43790
 Alpha  occ. eigenvalues --   -0.43617  -0.43470  -0.43181  -0.42716  -0.42463
 Alpha  occ. eigenvalues --   -0.42407  -0.42091  -0.41718  -0.41661  -0.41277
 Alpha  occ. eigenvalues --   -0.41215  -0.41180  -0.41001  -0.40849  -0.40384
 Alpha  occ. eigenvalues --   -0.40223  -0.40125  -0.40042  -0.39403  -0.39376
 Alpha  occ. eigenvalues --   -0.39039  -0.38932  -0.38737  -0.38520  -0.38314
 Alpha  occ. eigenvalues --   -0.38180  -0.38015  -0.37952  -0.37610  -0.37524
 Alpha  occ. eigenvalues --   -0.37161  -0.37114  -0.36891  -0.36720  -0.36440
 Alpha  occ. eigenvalues --   -0.36380  -0.36242  -0.35966  -0.35903  -0.35653
 Alpha  occ. eigenvalues --   -0.35456  -0.35150  -0.35004  -0.34863  -0.34702
 Alpha  occ. eigenvalues --   -0.34586  -0.34394  -0.33976  -0.33856  -0.33776
 Alpha  occ. eigenvalues --   -0.33635  -0.33572  -0.33284  -0.33246  -0.32680
 Alpha  occ. eigenvalues --   -0.32544  -0.32290  -0.31653  -0.31393  -0.31086
 Alpha  occ. eigenvalues --   -0.30958  -0.30890  -0.30636  -0.30044  -0.29997
 Alpha  occ. eigenvalues --   -0.29826  -0.29162  -0.28535  -0.28188  -0.27806
 Alpha  occ. eigenvalues --   -0.27169  -0.26749  -0.26636  -0.25949  -0.25932
 Alpha  occ. eigenvalues --   -0.25812  -0.25049  -0.23676  -0.21569  -0.19569
 Alpha  occ. eigenvalues --   -0.18797
 Alpha virt. eigenvalues --   -0.09400  -0.08028  -0.04346  -0.02469  -0.00303
 Alpha virt. eigenvalues --   -0.00285   0.00713   0.01501   0.02496   0.03504
 Alpha virt. eigenvalues --    0.03786   0.03824   0.04183   0.04208   0.04328

 Mulliken charges:
               1
     1  C    0.034831
     2  C   -0.020486
     3  C   -0.129456
     4  C   -0.066244
     5  N   -0.077650
     6  C   -0.081730
     7  C   -0.037802
     8  C   -0.046061
     9  C   -0.006111
    10  C    0.025081
    11  C    0.143210
    12  C    0.012646
    13  C    0.129390
    14  O   -0.248748
    15  O   -0.248640
    16  N   -0.058506
    17  C    0.070357
    18  C   -0.052496
    19  C    0.044238
    20  C    0.057997
    21  C   -0.004348
    22  C   -0.051368
    23  C   -0.013486
    24  N   -0.183906
    25  C    0.045123
    26  C   -0.188675
    27  C   -0.078079
    28  C    0.004657
    29  C    0.191312
    30  C    0.073143
    31  C   -0.047149
    32  N    0.177383
    33  C    0.024296
    34  C   -0.106111
    35  C   -0.017059
    36  C    0.047580
    37  C   -0.023114
    38  C    0.091365
    39  O   -0.182326
    40  C   -0.088923
    41  C    0.211616
    42  O   -0.202448
    43  O   -0.328191
    44  C    0.123346
    45  C    0.194561
    46  C   -0.037213
    47  C   -0.097819
    48  C    0.041485
    49  C    0.058456
    50  C    0.011070
    51  C   -0.036488
    52  C   -0.035334
    53  C   -0.071303
    54  C    0.088351
    55  C    0.009515
    56  C    0.012605
    57  C   -0.133396
    58  C    0.074806
    59  C    0.016683
    60  C   -0.044370
    61  C    0.059166
    62  C   -0.110379
    63  C    0.001462
    64  C   -0.018282
    65  H   -0.063807
    66  H    0.001933
    67  H   -0.003645
    68  H   -0.023520
    69  H   -0.013266
    70  H    0.005953
    71  H    0.036798
    72  H    0.068035
    73  H    0.009148
    74  H   -0.015284
    75  H    0.016302
    76  H    0.030177
    77  H    0.037951
    78  H    0.033578
    79  H    0.005115
    80  H   -0.009324
    81  H    0.036278
    82  H    0.019595
    83  H    0.010051
    84  H    0.003137
    85  H   -0.017056
    86  H   -0.006131
    87  H    0.001061
    88  H    0.030695
    89  H    0.025064
    90  H    0.012356
    91  H    0.076948
    92  H    0.052055
    93  H    0.044037
    94  H    0.090252
    95  H    0.039080
    96  H    0.034349
    97  H    0.040832
    98  H    0.010776
    99  H    0.049563
   100  H   -0.026427
   101  H    0.023128
   102  H    0.025959
   103  H    0.044718
   104  H    0.017276
   105  H   -0.014349
   106  H    0.018030
   107  H    0.015875
   108  H   -0.000225
   109  H    0.009709
   110  H    0.009939
   111  H    0.036783
   112  H    0.028081
   113  H    0.021030
   114  H   -0.024811
   115  H   -0.036666
   116  H   -0.004899
   117  H   -0.061266
   118  H   -0.022218
   119  H   -0.011219
   120  H    0.018288
   121  H   -0.012852
   122  H    0.003179
   123  H    0.023938
   124  H    0.030202
   125  H    0.007926
   126  H    0.006392
   127  H    0.000608
   128  H   -0.002449
   129  H   -0.008086
   130  H   -0.009250
   131  H    0.013813
   132  H    0.029264
   133  H    0.026531
   134  H    0.027363
   135  H    0.019605
   136  H    0.016707
   137  H    0.184848
   138  H    0.004404
 Sum of Mulliken charges =   0.00000

 Dipole moment (field-independent basis, Debye):
    X=              4.2090    Y=              3.6165    Z=              0.9899  Tot=              5.6369
 Quadrupole moment (field-independent basis, Debye-Ang):
   XX=           -368.5978   YY=           -390.9682   ZZ=           -395.7955
   XY=            -18.1796   XZ=              5.4708   YZ=             -2.2864

 Normal termination of Gaussian 09 at Wed Jul 24 09:39:54 2019.
