 Gaussian 09, Revision D.01,
 Gaussian 09:  ES64L-G09RevD.01 24-Apr-2013

 --------------------------
 # td=(NStates=1) B3LYP/SVP
 --------------------------

 --
 TD
 --
 Symbolic Z-matrix:
 Charge =  0 Multiplicity = 1

                         Standard orientation:
 ---------------------------------------------------------------------
 Center     Atomic      Atomic             Coordinates (Angstroms)
 Number     Number       Type             X           Y           Z
 ---------------------------------------------------------------------
      1          6           0       -5.151163   -2.067702    0.432512
      2          6           0       -4.812822    2.631521    1.409330
      3          6           0       -9.224886    3.518203   -0.210537
      4          6           0       -9.801479   -1.261868   -1.008370
      5          7           0       -5.185077    0.286432    0.717876
      6          6           0       -4.505218   -0.879364    0.756405
      7          6           0       -3.042070   -0.571910    1.244275
      8          6           0       -3.115508    0.827677    1.795351
      9          6           0       -4.471555    1.376931    1.248426
     10          6           0       -3.107370    0.770764    3.326468
     11          6           0       -2.087288   -0.954058    0.121964
     12          6           0       -0.634298   -1.030886    0.601519
     13          6           0        0.369385   -1.246380   -0.566671
     14          8           0        0.052408   -1.565841   -1.752677
     15          8           0        1.628258   -0.887279   -0.258028
     16          7           0       -6.932048    2.758619    0.383697
     17          6           0       -5.870854    3.285284    0.916223
     18          6           0       -5.995869    4.820170    0.986651
     19          6           0       -7.222352    5.089538    0.584755
     20          6           0       -7.864812    3.701312    0.168563
     21          6           0       -5.011909    5.625265    1.610119
     22          6           0       -7.873870    6.340228    0.530333
     23          6           0       -8.857451    6.768352   -0.335651
     24          7           0       -9.116371    1.051118   -0.577892
     25          6           0       -9.869609    2.242607   -0.410259
     26          6           0      -11.210657    2.104760   -0.926766
     27          6           0      -11.358084    0.732925   -1.094839
     28          6           0      -10.094278    0.067507   -0.889658
     29          6           0      -12.266821    3.161366   -1.034094
     30          6           0      -12.611501   -0.074876   -1.551725
     31          6           0      -12.725720   -0.210231   -3.038724
     32          7           0       -7.415022   -1.209374   -0.350078
     33          6           0       -8.600351   -1.803844   -0.726526
     34          6           0       -8.226750   -3.238363   -0.848619
     35          6           0       -6.914358   -3.353385   -0.344350
     36          6           0       -6.447211   -2.127293   -0.056690
     37          6           0       -9.152603   -4.468153   -1.249522
     38          6           0       -5.939775   -4.317541   -0.026768
     39          8           0       -5.948442   -5.559241   -0.105264
     40          6           0       -4.550518   -3.491563    0.432020
     41          6           0       -4.076769   -4.006019    1.722756
     42          8           0       -4.305887   -3.488886    2.803214
     43          8           0       -3.310521   -4.971572    1.537925
     44          6           0       -2.726437   -5.624417    2.751623
     45          6           0        2.787682   -1.176342   -1.167033
     46          6           0        4.000754   -0.822349   -0.562719
     47          6           0        4.884978    0.053816   -1.105137
     48          6           0        4.909585    0.660899   -2.456954
     49          6           0        6.316013    0.337705   -0.475750
     50          6           0        7.492974   -0.406230   -0.973432
     51          6           0        8.815747    0.056844   -0.275144
     52          6           0       10.027212   -0.762687   -0.719427
     53          6           0        9.949336   -2.288056   -0.690094
     54          6           0       11.252095   -0.258707    0.098077
     55          6           0       12.661586   -0.671992   -0.359630
     56          6           0       13.873301   -0.028699    0.413978
     57          6           0       15.293117   -0.266284   -0.265896
     58          6           0       15.660021   -1.718672   -0.313914
     59          6           0       16.249229    0.663688    0.465851
     60          6           0       17.655487    0.682585   -0.203918
     61          6           0       18.522809    1.878246    0.474124
     62          6           0       19.978789    1.709913    0.054741
     63          6           0       20.261738    1.951938   -1.410242
     64          6           0       20.824806    2.701248    1.072678
     65          1           0       -4.043226    3.238103    1.869617
     66          1           0       -9.863449    4.309798   -0.164398
     67          1           0      -10.707813   -1.894389   -1.015765
     68          1           0       -2.884500   -1.420413    2.174316
     69          1           0       -2.275496    1.380888    1.596064
     70          1           0       -2.110366    0.729015    3.690972
     71          1           0       -3.239413    1.762663    3.960037
     72          1           0       -3.717825   -0.080686    3.621122
     73          1           0       -2.201060   -2.043641   -0.422466
     74          1           0       -2.103078   -0.455589   -0.847673
     75          1           0       -0.293048   -0.051991    1.298023
     76          1           0       -0.272866   -1.750400    1.253212
     77          1           0       -4.076660    5.683081    0.815854
     78          1           0       -5.167171    6.654095    1.603360
     79          1           0       -4.745881    5.460342    2.558107
     80          1           0       -7.576231    7.120851    1.256437
     81          1           0       -9.307618    6.158183   -1.054764
     82          1           0       -9.234247    7.847679   -0.280904
     83          1           0      -12.275205    3.596756    0.018608
     84          1           0      -12.154096    4.045495   -1.806426
     85          1           0      -13.230399    2.619032   -0.952793
     86          1           0      -12.809277   -1.019602   -1.107923
     87          1           0      -13.490647    0.389345   -1.198869
     88          1           0      -12.936280    0.792272   -3.422888
     89          1           0      -11.724772   -0.783394   -3.574706
     90          1           0      -13.535571   -0.857111   -3.228423
     91          1           0      -10.150992   -4.305441   -0.590428
     92          1           0       -9.289198   -4.378848   -2.328850
     93          1           0       -8.500787   -5.387430   -0.952377
     94          1           0       -3.737320   -3.831366   -0.278828
     95          1           0       -2.259955   -6.425433    2.405004
     96          1           0       -2.053233   -4.849534    3.266249
     97          1           0       -3.743172   -5.740748    3.486180
     98          1           0        2.854240   -2.288817   -1.281645
     99          1           0        2.416557   -0.713252   -2.108051
    100          1           0        4.543365   -1.366363    0.406295
    101          1           0        5.438564    1.803134   -2.704820
    102          1           0        5.402028   -0.109595   -3.135707
    103          1           0        3.868420    0.678784   -2.963427
    104          1           0        6.464808    1.467157   -0.481309
    105          1           0        6.133517    0.094525    0.759415
    106          1           0        7.180552   -1.563249   -0.900030
    107          1           0        7.366525   -0.019983   -2.047437
    108          1           0        9.065302    1.236384   -0.347223
    109          1           0        8.687198   -0.241226    0.758240
    110          1           0       10.262815   -0.333349   -1.633098
    111          1           0        9.220886   -2.555436   -1.319939
    112          1           0       10.954080   -2.947355   -1.075240
    113          1           0        9.775684   -2.849036    0.213214
    114          1           0       11.187151    0.790106    0.316319
    115          1           0       11.072072   -0.701748    1.053508
    116          1           0       12.791376   -1.704081   -0.427824
    117          1           0       12.950273   -0.372664   -1.539773
    118          1           0       13.690361    1.077022    0.389272
    119          1           0       13.926989   -0.405240    1.481970
    120          1           0       15.247811    0.128502   -1.260446
    121          1           0       15.115366   -2.266439   -1.017511
    122          1           0       16.713488   -1.951573   -0.634220
    123          1           0       15.362035   -2.255427    0.661984
    124          1           0       15.908382    1.648828    0.473191
    125          1           0       16.486985    0.365269    1.496749
    126          1           0       18.421653   -0.127095    0.013835
    127          1           0       17.629676    0.915328   -1.290656
    128          1           0       18.055024    2.924021    0.242322
    129          1           0       18.389719    1.771636    1.677751
    130          1           0       20.323629    0.702807    0.225505
    131          1           0       20.084381    3.039703   -1.859801
    132          1           0       21.348907    1.891894   -1.711232
    133          1           0       19.980943    1.174744   -2.297357
    134          1           0       20.662275    2.372663    2.204557
    135          1           0       21.917304    2.808070    0.565827
    136          1           0       20.575374    3.569730    0.867571
    137          1           0       -6.887887    1.788360    0.224512
    138          1           0       -7.450449   -0.213856   -0.174661
 ---------------------------------------------------------------------

 SCF Done:  E(RB3LYP) =  -2733.00845765     A.U. after   17 cycles

 Excitation energies and oscillator strengths:

 Excited State   1:      Singlet-A      2.0932 eV  592.32 nm  f=0.1448  <S**2>=0.000
     235 -> 238       -0.34681
     236 -> 237        0.61000
 This state for optimization and/or second-order correction.
 Total Energy, E(TD-HF/TD-KS) =  -2732.93153364
 Copying the excited state density for this state as the 1-particle RhoCI density.

 The electronic state is 1-A.
 Alpha  occ. eigenvalues --  -19.18046 -19.16874 -19.11685 -19.11447 -19.09842
 Alpha  occ. eigenvalues --  -14.38343 -14.36115 -14.31638 -14.29185 -10.31498
 Alpha  occ. eigenvalues --  -10.29476 -10.27381 -10.26048 -10.25532 -10.24791
 Alpha  occ. eigenvalues --  -10.23689 -10.22740 -10.22641 -10.22448 -10.22429
 Alpha  occ. eigenvalues --  -10.21967 -10.21604 -10.21535 -10.21229 -10.21116
 Alpha  occ. eigenvalues --  -10.21042 -10.20996 -10.20878 -10.20831 -10.20813
 Alpha  occ. eigenvalues --  -10.20686 -10.20531 -10.20470 -10.20418 -10.20339
 Alpha  occ. eigenvalues --  -10.20279 -10.20239 -10.20085 -10.19965 -10.19860
 Alpha  occ. eigenvalues --  -10.19702 -10.19679 -10.19654 -10.19537 -10.19511
 Alpha  occ. eigenvalues --  -10.19381 -10.19340 -10.18757 -10.18670 -10.18618
 Alpha  occ. eigenvalues --  -10.18600 -10.18569 -10.18432 -10.18362 -10.18340
 Alpha  occ. eigenvalues --  -10.18287 -10.18255 -10.18129 -10.17981 -10.17947
 Alpha  occ. eigenvalues --  -10.17696 -10.17608 -10.17442 -10.17295  -1.11721
 Alpha  occ. eigenvalues --   -1.06936  -1.01354  -1.00440  -0.98795  -0.98044
 Alpha  occ. eigenvalues --   -0.97063  -0.92722  -0.90572  -0.84873  -0.83999
 Alpha  occ. eigenvalues --   -0.83268  -0.81914  -0.81828  -0.80926  -0.80386
 Alpha  occ. eigenvalues --   -0.79545  -0.79121  -0.78909  -0.78453  -0.77981
 Alpha  occ. eigenvalues --   -0.77333  -0.76439  -0.76094  -0.74812  -0.74487
 Alpha  occ. eigenvalues --   -0.74222  -0.73161  -0.72389  -0.71825  -0.71529
 Alpha  occ. eigenvalues --   -0.69638  -0.69193  -0.68415  -0.68172  -0.67383
 Alpha  occ. eigenvalues --   -0.67139  -0.67024  -0.66192  -0.65765  -0.65253
 Alpha  occ. eigenvalues --   -0.64883  -0.63584  -0.62965  -0.62262  -0.60872
 Alpha  occ. eigenvalues --   -0.60532  -0.58648  -0.58558  -0.58291  -0.57879
 Alpha  occ. eigenvalues --   -0.57141  -0.56627  -0.56382  -0.55659  -0.55496
 Alpha  occ. eigenvalues --   -0.55016  -0.54888  -0.54278  -0.53860  -0.52515
 Alpha  occ. eigenvalues --   -0.52346  -0.51773  -0.51000  -0.50605  -0.50174
 Alpha  occ. eigenvalues --   -0.49482  -0.49114  -0.49059  -0.48741  -0.48519
 Alpha  occ. eigenvalues --   -0.48082  -0.47970  -0.47604  -0.47543  -0.47289
 Alpha  occ. eigenvalues --   -0.46726  -0.46544  -0.46211  -0.46149  -0.45695
 Alpha  occ. eigenvalues --   -0.45462  -0.45370  -0.44918  -0.44473  -0.44401
 Alpha  occ. eigenvalues --   -0.44016  -0.43687  -0.43615  -0.43484  -0.43289
 Alpha  occ. eigenvalues --   -0.43104  -0.42963  -0.42833  -0.42627  -0.42474
 Alpha  occ. eigenvalues --   -0.42287  -0.42107  -0.41909  -0.41275  -0.41141
 Alpha  occ. eigenvalues --   -0.40862  -0.40664  -0.40577  -0.40459  -0.40168
 Alpha  occ. eigenvalues --   -0.40079  -0.39954  -0.39410  -0.39219  -0.39202
 Alpha  occ. eigenvalues --   -0.39138  -0.38894  -0.38785  -0.38480  -0.37968
 Alpha  occ. eigenvalues --   -0.37767  -0.37642  -0.37101  -0.36966  -0.36945
 Alpha  occ. eigenvalues --   -0.36804  -0.36674  -0.36496  -0.36216  -0.36170
 Alpha  occ. eigenvalues --   -0.35962  -0.35867  -0.35828  -0.35710  -0.35575
 Alpha  occ. eigenvalues --   -0.35185  -0.35133  -0.34936  -0.34784  -0.34713
 Alpha  occ. eigenvalues --   -0.34496  -0.34368  -0.34083  -0.33594  -0.33450
 Alpha  occ. eigenvalues --   -0.33355  -0.32816  -0.32557  -0.32523  -0.32489
 Alpha  occ. eigenvalues --   -0.32364  -0.31951  -0.31921  -0.31693  -0.31338
 Alpha  occ. eigenvalues --   -0.31024  -0.30729  -0.30615  -0.30299  -0.29880
 Alpha  occ. eigenvalues --   -0.29509  -0.29315  -0.28095  -0.27236  -0.27007
 Alpha  occ. eigenvalues --   -0.26893  -0.26090  -0.25807  -0.25643  -0.25410
 Alpha  occ. eigenvalues --   -0.25071  -0.24724  -0.23963  -0.21618  -0.19616
 Alpha  occ. eigenvalues --   -0.18469
 Alpha virt. eigenvalues --   -0.09498  -0.07840  -0.04021  -0.02560  -0.01993
 Alpha virt. eigenvalues --   -0.00462   0.00547   0.01846   0.02670   0.03103
 Alpha virt. eigenvalues --    0.04007   0.04055   0.04359   0.04380   0.04406

 Mulliken charges:
               1
     1  C    0.040304
     2  C   -0.055588
     3  C   -0.024297
     4  C   -0.087396
     5  N   -0.233078
     6  C   -0.083752
     7  C   -0.061887
     8  C    0.066329
     9  C    0.037746
    10  C    0.024686
    11  C    0.036216
    12  C    0.012619
    13  C    0.187799
    14  O   -0.301381
    15  O   -0.334547
    16  N    0.104710
    17  C    0.031441
    18  C   -0.114583
    19  C    0.102169
    20  C    0.084186
    21  C    0.155030
    22  C   -0.117714
    23  C   -0.029033
    24  N   -0.333444
    25  C    0.063189
    26  C   -0.158985
    27  C   -0.056533
    28  C    0.047730
    29  C    0.073524
    30  C    0.097371
    31  C    0.001779
    32  N   -0.021220
    33  C    0.120333
    34  C   -0.187098
    35  C    0.080444
    36  C    0.117320
    37  C    0.043307
    38  C    0.017357
    39  O   -0.206762
    40  C   -0.092299
    41  C    0.163573
    42  O   -0.268438
    43  O   -0.245217
    44  C    0.169986
    45  C    0.286640
    46  C   -0.071448
    47  C   -0.140616
    48  C   -0.027826
    49  C   -0.059051
    50  C    0.024470
    51  C    0.005505
    52  C    0.002327
    53  C    0.045759
    54  C    0.071345
    55  C    0.030634
    56  C   -0.004779
    57  C   -0.054342
    58  C    0.058786
    59  C    0.107536
    60  C   -0.020204
    61  C   -0.063395
    62  C   -0.048085
    63  C   -0.064480
    64  C    0.079151
    65  H   -0.035791
    66  H   -0.065084
    67  H   -0.006625
    68  H    0.056764
    69  H   -0.045551
    70  H   -0.011880
    71  H    0.006000
    72  H    0.049045
    73  H    0.038433
    74  H    0.012878
    75  H    0.038804
    76  H    0.003247
    77  H    0.031715
    78  H   -0.024266
    79  H    0.011056
    80  H    0.006170
    81  H    0.012605
    82  H    0.038387
    83  H    0.020084
    84  H    0.055430
    85  H    0.003482
    86  H   -0.023335
    87  H   -0.036061
    88  H    0.016738
    89  H    0.031452
    90  H   -0.004592
    91  H    0.056971
    92  H    0.040126
    93  H    0.067825
    94  H    0.062512
    95  H    0.016044
    96  H    0.053442
    97  H    0.082431
    98  H    0.026685
    99  H    0.041618
   100  H    0.037005
   101  H    0.057823
   102  H    0.051298
   103  H    0.020762
   104  H    0.015428
   105  H   -0.003967
   106  H    0.033067
   107  H    0.000742
   108  H    0.030950
   109  H   -0.012399
   110  H   -0.035718
   111  H   -0.019774
   112  H    0.021763
   113  H    0.002801
   114  H   -0.030230
   115  H   -0.032384
   116  H   -0.026207
   117  H   -0.011612
   118  H   -0.004840
   119  H    0.003357
   120  H   -0.026972
   121  H   -0.014625
   122  H    0.011926
   123  H    0.005796
   124  H   -0.027505
   125  H   -0.013520
   126  H    0.010463
   127  H    0.007253
   128  H    0.010983
   129  H    0.005176
   130  H    0.000619
   131  H    0.015729
   132  H    0.000241
   133  H    0.028937
   134  H    0.046997
   135  H    0.000134
   136  H   -0.061538
   137  H    0.122552
   138  H    0.128907
 Sum of Mulliken charges =   0.00000

 Dipole moment (field-independent basis, Debye):
    X=              3.8404    Y=              4.8299    Z=              1.3600  Tot=              6.3187
 Quadrupole moment (field-independent basis, Debye-Ang):
   XX=           -362.0775   YY=           -372.9300   ZZ=           -396.5886
   XY=            -36.5775   XZ=             -6.4594   YZ=             -0.9442

 Normal termination of Gaussian 09 at Fri Jul 26 23:47:37 2019.
