 Gaussian 09, Revision D.01,
 Gaussian 09:  ES64L-G09RevD.01 24-Apr-2013

 --------------------------
 # td=(NStates=1) B3LYP/SVP
 --------------------------

 --
 TD
 --
 Symbolic Z-matrix:
 Charge =  0 Multiplicity = 1

                         Standard orientation:
 ---------------------------------------------------------------------
 Center     Atomic      Atomic             Coordinates (Angstroms)
 Number     Number       Type             X           Y           Z
 ---------------------------------------------------------------------
      1          6           0       -5.058283   -1.834231    0.495411
      2          6           0       -4.901811    2.849789    1.196394
      3          6           0       -9.499896    3.216692   -0.251976
      4          6           0       -9.814505   -1.569272   -0.869601
      5          7           0       -5.268514    0.526528    0.751566
      6          6           0       -4.600548   -0.604231    0.743065
      7          6           0       -3.059908   -0.440643    1.229847
      8          6           0       -3.138875    1.076971    1.705981
      9          6           0       -4.446518    1.527781    1.225801
     10          6           0       -3.039783    1.241529    3.191449
     11          6           0       -1.976726   -0.815292    0.173252
     12          6           0       -0.525432   -0.939325    0.718736
     13          6           0        0.369884   -1.150800   -0.490248
     14          8           0        0.095737   -1.671458   -1.590441
     15          8           0        1.635072   -0.860182   -0.038352
     16          7           0       -7.198979    2.760164    0.247970
     17          6           0       -6.069421    3.514179    0.745332
     18          6           0       -6.474045    4.801411    0.898184
     19          6           0       -7.759305    4.972314    0.393174
     20          6           0       -8.298697    3.629843    0.013850
     21          6           0       -5.547605    5.940667    1.337092
     22          6           0       -8.449907    6.212608    0.286226
     23          6           0       -9.409771    6.556641   -0.722645
     24          7           0       -9.266970    0.774276   -0.523623
     25          6           0       -9.983274    1.922520   -0.630474
     26          6           0      -11.339727    1.703570   -0.891017
     27          6           0      -11.496961    0.418252   -0.992860
     28          6           0      -10.153328   -0.258391   -0.803751
     29          6           0      -12.439876    2.807346   -1.052698
     30          6           0      -12.725314   -0.441571   -1.465439
     31          6           0      -12.615215   -0.807721   -2.914625
     32          7           0       -7.479257   -1.227954   -0.255593
     33          6           0       -8.551870   -2.032449   -0.683162
     34          6           0       -8.123644   -3.429745   -0.601021
     35          6           0       -6.762424   -3.394230   -0.156303
     36          6           0       -6.412511   -2.008671    0.032373
     37          6           0       -8.931893   -4.730834   -0.989155
     38          6           0       -5.642147   -4.247664    0.131362
     39          8           0       -5.454797   -5.496180   -0.077482
     40          6           0       -4.455734   -3.262312    0.469610
     41          6           0       -3.812770   -3.716966    1.717988
     42          8           0       -4.149080   -3.225822    2.882773
     43          8           0       -2.839115   -4.588333    1.599728
     44          6           0       -2.285954   -5.085477    2.825578
     45          6           0        2.715659   -1.194639   -0.952274
     46          6           0        4.018267   -0.815515   -0.415014
     47          6           0        4.950309   -0.093284   -1.086081
     48          6           0        4.900105    0.421206   -2.486780
     49          6           0        6.190027    0.159006   -0.310451
     50          6           0        7.542935   -0.313534   -1.057192
     51          6           0        8.880673   -0.188618   -0.164530
     52          6           0       10.203285   -0.646194   -0.792288
     53          6           0       10.144192   -2.125757   -1.342163
     54          6           0       11.351779   -0.272085    0.079254
     55          6           0       12.794433   -0.533328   -0.533535
     56          6           0       13.967704    0.054380    0.267389
     57          6           0       15.266136   -0.214556   -0.234709
     58          6           0       15.673093   -1.689504   -0.173600
     59          6           0       16.395667    0.671004    0.390709
     60          6           0       17.876788    0.539350   -0.042833
     61          6           0       18.703426    1.719643    0.511240
     62          6           0       20.231873    1.815897    0.227662
     63          6           0       20.516678    1.870643   -1.350686
     64          6           0       20.779861    3.034768    0.959627
     65          1           0       -4.149668    3.599052    1.403190
     66          1           0      -10.534073    3.926904   -0.234468
     67          1           0      -10.698508   -2.310121   -1.146475
     68          1           0       -3.001664   -1.191437    2.090282
     69          1           0       -2.259938    1.673412    1.003325
     70          1           0       -2.134060    0.749045    3.697266
     71          1           0       -3.171145    2.215037    3.590982
     72          1           0       -3.807914    0.655729    3.599779
     73          1           0       -2.264061   -1.530022   -0.491523
     74          1           0       -1.908740    0.184800   -0.458231
     75          1           0       -0.267238    0.041253    1.099016
     76          1           0       -0.581367   -1.787911    1.426585
     77          1           0       -4.961271    6.328442    0.546901
     78          1           0       -6.373806    6.888338    1.527844
     79          1           0       -5.031624    5.406943    2.186400
     80          1           0       -8.543118    7.147949    0.934788
     81          1           0       -9.792117    5.989033   -1.603592
     82          1           0      -10.044387    7.536080   -0.479192
     83          1           0      -12.458237    3.348396   -0.192059
     84          1           0      -12.353109    3.792413   -1.830400
     85          1           0      -13.463850    2.154467   -1.107379
     86          1           0      -12.802422   -1.435163   -0.996322
     87          1           0      -13.547836    0.243917   -1.074433
     88          1           0      -12.468366    0.013451   -3.639816
     89          1           0      -11.844217   -1.563082   -3.067085
     90          1           0      -13.580002   -1.163623   -3.092171
     91          1           0       -9.652962   -4.744931   -0.483273
     92          1           0       -8.986856   -4.945335   -2.176946
     93          1           0       -8.166818   -5.391911   -0.733886
     94          1           0       -3.645097   -3.474899   -0.282802
     95          1           0       -1.672365   -5.806857    2.494151
     96          1           0       -1.590989   -4.460784    3.425737
     97          1           0       -3.167959   -5.486502    3.405392
     98          1           0        2.754866   -2.226238   -1.356752
     99          1           0        2.579297   -0.669420   -1.877915
    100          1           0        4.236891   -1.335777    0.436562
    101          1           0        5.079717    1.575697   -2.200629
    102          1           0        5.584541    0.056740   -3.123926
    103          1           0        3.828609    0.444111   -2.780823
    104          1           0        6.237330    1.232676   -0.318691
    105          1           0        6.164185   -0.313863    0.665704
    106          1           0        7.415081   -1.428477   -1.275463
    107          1           0        7.581619    0.326185   -2.003974
    108          1           0        8.855046    0.863417    0.182994
    109          1           0        8.713696   -0.687867    0.677003
    110          1           0       10.544418    0.119762   -1.651688
    111          1           0        9.431250   -2.226739   -2.387221
    112          1           0       11.229551   -2.492129   -1.699189
    113          1           0        9.881074   -2.723727   -0.574900
    114          1           0       11.254571    0.759239    0.402655
    115          1           0       11.194342   -0.722715    1.200128
    116          1           0       12.977336   -1.780723   -0.623060
    117          1           0       12.860906   -0.025970   -1.443775
    118          1           0       13.848763    1.215998    0.360743
    119          1           0       13.705090   -0.058574    1.282452
    120          1           0       15.254811    0.051583   -1.268336
    121          1           0       15.219589   -2.690460   -0.767228
    122          1           0       16.688091   -1.977464   -0.502249
    123          1           0       15.769545   -2.080638    0.732760
    124          1           0       16.140178    1.636332    0.336628
    125          1           0       16.456946    0.252994    1.413638
    126          1           0       18.400525   -0.440633    0.156836
    127          1           0       17.865440    0.466346   -1.267412
    128          1           0       17.980145    2.613422    0.559515
    129          1           0       18.784078    1.614851    1.533661
    130          1           0       20.585086    0.825598    0.485397
    131          1           0       19.890446    2.863410   -1.806252
    132          1           0       21.683889    1.925829   -1.480409
    133          1           0       20.364431    0.995191   -2.164490
    134          1           0       20.643524    2.913038    2.093957
    135          1           0       21.904274    2.755161    0.853458
    136          1           0       20.475216    4.093174    0.470604
    137          1           0       -7.270926    1.888112    0.265657
    138          1           0       -7.688750   -0.231863    0.313537
 ---------------------------------------------------------------------

 SCF Done:  E(RB3LYP) =  -2732.91071650     A.U. after   17 cycles

 Excitation energies and oscillator strengths:

 Excited State   1:      Singlet-A      2.0622 eV  601.24 nm  f=0.1663  <S**2>=0.000
     235 -> 237       -0.25850
     235 -> 238       -0.29043
     236 -> 237        0.56822
     236 -> 238       -0.14286
 This state for optimization and/or second-order correction.
 Total Energy, E(TD-HF/TD-KS) =  -2732.83493372
 Copying the excited state density for this state as the 1-particle RhoCI density.

 The electronic state is 1-A.
 Alpha  occ. eigenvalues --  -19.19429 -19.17984 -19.13094 -19.11990 -19.10867
 Alpha  occ. eigenvalues --  -14.37274 -14.35214 -14.32133 -14.30065 -10.31994
 Alpha  occ. eigenvalues --  -10.31646 -10.28166 -10.24403 -10.24231 -10.23831
 Alpha  occ. eigenvalues --  -10.23654 -10.23450 -10.23401 -10.23250 -10.22333
 Alpha  occ. eigenvalues --  -10.22330 -10.22201 -10.22105 -10.21795 -10.21627
 Alpha  occ. eigenvalues --  -10.21620 -10.21506 -10.21272 -10.21108 -10.20979
 Alpha  occ. eigenvalues --  -10.20909 -10.20663 -10.20543 -10.20537 -10.20441
 Alpha  occ. eigenvalues --  -10.20377 -10.20323 -10.20247 -10.20222 -10.20064
 Alpha  occ. eigenvalues --  -10.19969 -10.19884 -10.19862 -10.19824 -10.19753
 Alpha  occ. eigenvalues --  -10.19526 -10.19323 -10.19311 -10.19287 -10.19226
 Alpha  occ. eigenvalues --  -10.19152 -10.18651 -10.18604 -10.18444 -10.18443
 Alpha  occ. eigenvalues --  -10.18411 -10.17993 -10.17989 -10.17761 -10.17608
 Alpha  occ. eigenvalues --  -10.17579 -10.17541 -10.17536 -10.17375  -1.10402
 Alpha  occ. eigenvalues --   -1.07850  -0.99378  -0.99138  -0.97267  -0.96845
 Alpha  occ. eigenvalues --   -0.95891  -0.94663  -0.93574  -0.84588  -0.83043
 Alpha  occ. eigenvalues --   -0.82852  -0.82668  -0.81382  -0.80784  -0.80570
 Alpha  occ. eigenvalues --   -0.80144  -0.79850  -0.79661  -0.79469  -0.78272
 Alpha  occ. eigenvalues --   -0.76824  -0.76225  -0.75630  -0.75140  -0.74950
 Alpha  occ. eigenvalues --   -0.74623  -0.73220  -0.72910  -0.71381  -0.71012
 Alpha  occ. eigenvalues --   -0.70461  -0.70147  -0.69335  -0.68559  -0.68007
 Alpha  occ. eigenvalues --   -0.67657  -0.66793  -0.66595  -0.65475  -0.65256
 Alpha  occ. eigenvalues --   -0.65070  -0.63323  -0.62459  -0.62085  -0.61644
 Alpha  occ. eigenvalues --   -0.61182  -0.58745  -0.58578  -0.57535  -0.57388
 Alpha  occ. eigenvalues --   -0.57047  -0.56882  -0.56371  -0.55843  -0.55611
 Alpha  occ. eigenvalues --   -0.54993  -0.54447  -0.54085  -0.53932  -0.53340
 Alpha  occ. eigenvalues --   -0.52904  -0.51934  -0.51180  -0.50896  -0.50129
 Alpha  occ. eigenvalues --   -0.49985  -0.49716  -0.49486  -0.48596  -0.48256
 Alpha  occ. eigenvalues --   -0.48002  -0.47967  -0.47831  -0.47528  -0.47382
 Alpha  occ. eigenvalues --   -0.46893  -0.46596  -0.46196  -0.46098  -0.45997
 Alpha  occ. eigenvalues --   -0.45965  -0.45582  -0.45372  -0.45205  -0.44858
 Alpha  occ. eigenvalues --   -0.44684  -0.44522  -0.44212  -0.44085  -0.43637
 Alpha  occ. eigenvalues --   -0.43228  -0.42917  -0.42567  -0.42507  -0.42316
 Alpha  occ. eigenvalues --   -0.41821  -0.41719  -0.41545  -0.41363  -0.41258
 Alpha  occ. eigenvalues --   -0.41216  -0.40923  -0.40890  -0.40132  -0.40112
 Alpha  occ. eigenvalues --   -0.39952  -0.39719  -0.39351  -0.39208  -0.39055
 Alpha  occ. eigenvalues --   -0.38753  -0.38536  -0.38424  -0.38245  -0.38141
 Alpha  occ. eigenvalues --   -0.37988  -0.37899  -0.37753  -0.37609  -0.37396
 Alpha  occ. eigenvalues --   -0.37332  -0.37145  -0.36957  -0.36677  -0.36422
 Alpha  occ. eigenvalues --   -0.36275  -0.36129  -0.35907  -0.35845  -0.35617
 Alpha  occ. eigenvalues --   -0.35334  -0.35075  -0.34896  -0.34743  -0.34659
 Alpha  occ. eigenvalues --   -0.34509  -0.34419  -0.34230  -0.34052  -0.34011
 Alpha  occ. eigenvalues --   -0.33831  -0.33532  -0.32818  -0.32679  -0.32362
 Alpha  occ. eigenvalues --   -0.32188  -0.31609  -0.31587  -0.31508  -0.31156
 Alpha  occ. eigenvalues --   -0.30704  -0.30446  -0.30257  -0.30124  -0.29565
 Alpha  occ. eigenvalues --   -0.29143  -0.29034  -0.28989  -0.28361  -0.28276
 Alpha  occ. eigenvalues --   -0.27023  -0.26648  -0.26289  -0.26111  -0.25814
 Alpha  occ. eigenvalues --   -0.24835  -0.24099  -0.23917  -0.23686  -0.20166
 Alpha  occ. eigenvalues --   -0.19384
 Alpha virt. eigenvalues --   -0.10734  -0.08241  -0.05088  -0.02864  -0.01564
 Alpha virt. eigenvalues --   -0.01259   0.00028   0.00113   0.02069   0.02939
 Alpha virt. eigenvalues --    0.03621   0.03665   0.04106   0.04259   0.04433

 Mulliken charges:
               1
     1  C    0.083383
     2  C   -0.048264
     3  C   -0.159146
     4  C   -0.118213
     5  N   -0.149292
     6  C   -0.103936
     7  C   -0.086242
     8  C   -0.023106
     9  C   -0.010202
    10  C    0.108992
    11  C    0.017240
    12  C    0.084180
    13  C    0.201762
    14  O   -0.258488
    15  O   -0.325714
    16  N   -0.037845
    17  C    0.120227
    18  C   -0.130442
    19  C    0.142698
    20  C    0.192728
    21  C    0.048108
    22  C   -0.139240
    23  C   -0.123507
    24  N   -0.249909
    25  C    0.012066
    26  C   -0.102052
    27  C   -0.091323
    28  C    0.034540
    29  C    0.049820
    30  C    0.033290
    31  C    0.062955
    32  N   -0.109990
    33  C    0.113897
    34  C   -0.186815
    35  C    0.014631
    36  C    0.027391
    37  C    0.246138
    38  C    0.077998
    39  O   -0.242668
    40  C    0.000414
    41  C    0.193994
    42  O   -0.334959
    43  O   -0.257711
    44  C    0.217382
    45  C    0.311286
    46  C   -0.090505
    47  C   -0.168564
    48  C    0.123315
    49  C    0.109362
    50  C   -0.071028
    51  C    0.093732
    52  C   -0.056843
    53  C    0.000386
    54  C   -0.013831
    55  C    0.032619
    56  C    0.025996
    57  C    0.079045
    58  C    0.017015
    59  C    0.051213
    60  C   -0.009207
    61  C    0.036977
    62  C   -0.048528
    63  C   -0.095779
    64  C   -0.004237
    65  H   -0.032888
    66  H    0.027733
    67  H    0.022492
    68  H    0.035168
    69  H    0.024657
    70  H    0.018285
    71  H    0.002532
    72  H    0.003065
    73  H   -0.004160
    74  H    0.002287
    75  H    0.024984
    76  H    0.048816
    77  H    0.038438
    78  H    0.040747
    79  H    0.053250
    80  H    0.040762
    81  H    0.040829
    82  H    0.036750
    83  H    0.003620
    84  H    0.047509
    85  H    0.031462
    86  H   -0.002381
    87  H    0.009904
    88  H    0.013402
    89  H    0.013241
    90  H   -0.003105
    91  H   -0.066539
    92  H    0.054392
    93  H    0.010520
    94  H    0.066995
    95  H   -0.006757
    96  H    0.036726
    97  H    0.053828
    98  H    0.023055
    99  H   -0.029210
   100  H   -0.042957
   101  H    0.017843
   102  H    0.029482
   103  H    0.015115
   104  H   -0.005640
   105  H   -0.005833
   106  H    0.015797
   107  H    0.015231
   108  H   -0.014932
   109  H   -0.050096
   110  H   -0.003409
   111  H    0.045253
   112  H    0.029449
   113  H   -0.007611
   114  H   -0.017985
   115  H   -0.020138
   116  H    0.041018
   117  H   -0.018192
   118  H   -0.027265
   119  H   -0.040135
   120  H   -0.030464
   121  H    0.010806
   122  H   -0.016134
   123  H   -0.045988
   124  H   -0.033366
   125  H   -0.003108
   126  H   -0.000133
   127  H   -0.001286
   128  H   -0.012205
   129  H   -0.043247
   130  H   -0.003797
   131  H    0.029077
   132  H    0.013507
   133  H    0.038222
   134  H    0.027509
   135  H    0.016071
   136  H    0.057267
   137  H    0.002920
   138  H    0.241758
 Sum of Mulliken charges =   0.00000

 Dipole moment (field-independent basis, Debye):
    X=              2.1995    Y=              4.3714    Z=              1.5687  Tot=              5.1388
 Quadrupole moment (field-independent basis, Debye-Ang):
   XX=           -321.8156   YY=           -385.0633   ZZ=           -398.2956
   XY=            -28.9271   XZ=             15.1880   YZ=             -0.3665

 Normal termination of Gaussian 09 at Mon Aug  5 06:20:25 2019.
