 Gaussian 09, Revision D.01,
 Gaussian 09:  ES64L-G09RevD.01 24-Apr-2013

 --------------------------
 # td=(NStates=1) B3LYP/SVP
 --------------------------

 --
 TD
 --
 Symbolic Z-matrix:
 Charge =  0 Multiplicity = 1

                         Standard orientation:
 ---------------------------------------------------------------------
 Center     Atomic      Atomic             Coordinates (Angstroms)
 Number     Number       Type             X           Y           Z
 ---------------------------------------------------------------------
      1          6           0       -5.259673   -1.912699    0.423440
      2          6           0       -4.571908    2.677987    1.516967
      3          6           0       -9.188942    3.422573   -0.080629
      4          6           0       -9.817890   -1.277841   -1.085807
      5          7           0       -5.157095    0.393465    0.821594
      6          6           0       -4.611185   -0.789208    0.818652
      7          6           0       -3.088754   -0.739645    1.219425
      8          6           0       -3.064385    0.801497    1.759892
      9          6           0       -4.235870    1.370098    1.354117
     10          6           0       -2.673096    0.855306    3.269227
     11          6           0       -2.042544   -1.070217    0.165012
     12          6           0       -0.590859   -1.024791    0.650043
     13          6           0        0.393199   -1.341910   -0.482569
     14          8           0        0.109378   -1.718181   -1.627615
     15          8           0        1.661834   -0.985346   -0.119693
     16          7           0       -6.938086    2.763973    0.751046
     17          6           0       -5.860163    3.356328    1.229209
     18          6           0       -6.036181    4.695798    1.257406
     19          6           0       -7.302938    4.933144    0.693364
     20          6           0       -7.897341    3.760634    0.343756
     21          6           0       -5.019228    5.756489    1.597228
     22          6           0       -7.924693    6.325842    0.630975
     23          6           0       -8.792717    6.664323   -0.403052
     24          7           0       -9.199457    0.931032   -0.316916
     25          6           0       -9.717289    2.140738   -0.610106
     26          6           0      -11.198446    2.147467   -1.030369
     27          6           0      -11.399830    0.833499   -1.315466
     28          6           0      -10.165424    0.065335   -0.924504
     29          6           0      -12.069166    3.312808   -1.329968
     30          6           0      -12.627153    0.156291   -2.032570
     31          6           0      -12.396590    0.030101   -3.612346
     32          7           0       -7.517100   -1.212683   -0.280937
     33          6           0       -8.625581   -1.891105   -0.619947
     34          6           0       -8.302818   -3.343354   -0.706849
     35          6           0       -6.963990   -3.324952   -0.454026
     36          6           0       -6.506741   -2.060357   -0.149469
     37          6           0       -9.209830   -4.500898   -1.173789
     38          6           0       -5.847791   -4.309744   -0.132296
     39          8           0       -5.895222   -5.444900   -0.152077
     40          6           0       -4.659949   -3.390878    0.389011
     41          6           0       -4.210495   -3.903329    1.737742
     42          8           0       -4.788748   -3.529168    2.820197
     43          8           0       -3.314455   -4.733592    1.725338
     44          6           0       -3.011422   -5.641801    2.869763
     45          6           0        2.666037   -1.223190   -1.069808
     46          6           0        4.004368   -0.697986   -0.439229
     47          6           0        4.987263    0.005033   -0.989700
     48          6           0        4.885166    0.539638   -2.348576
     49          6           0        6.397064    0.174933   -0.282694
     50          6           0        7.509405   -0.637585   -0.870272
     51          6           0        8.811303   -0.393370   -0.075718
     52          6           0       10.059099   -0.981617   -0.700121
     53          6           0       10.069679   -2.464581   -0.546246
     54          6           0       11.329414   -0.371621   -0.029838
     55          6           0       12.669872   -0.543922   -0.718453
     56          6           0       13.800523    0.047175    0.184338
     57          6           0       15.178845   -0.060652   -0.449913
     58          6           0       15.546570   -1.589659   -0.527875
     59          6           0       16.218523    0.698932    0.322778
     60          6           0       17.640690    0.674765   -0.300337
     61          6           0       18.497258    1.788163    0.455675
     62          6           0       20.063316    1.727651    0.005174
     63          6           0       20.133747    2.657951   -1.337312
     64          6           0       20.920567    2.331018    0.951628
     65          1           0       -3.814886    3.360811    1.962097
     66          1           0       -9.789177    4.432369    0.023857
     67          1           0      -10.540145   -1.937126   -1.606943
     68          1           0       -2.900065   -1.302571    2.188360
     69          1           0       -2.320899    1.479134    1.252502
     70          1           0       -1.744416    0.382257    3.535051
     71          1           0       -2.785914    1.942556    3.715167
     72          1           0       -3.222469    0.206417    4.165115
     73          1           0       -2.456290   -2.008751   -0.197750
     74          1           0       -2.241363   -0.356950   -0.772426
     75          1           0       -0.332096    0.069280    0.969121
     76          1           0       -0.576788   -1.697695    1.473962
     77          1           0       -4.088874    5.686821    0.907197
     78          1           0       -5.210318    6.840753    1.603277
     79          1           0       -4.623817    5.532446    2.726172
     80          1           0       -7.788732    6.847355    1.466421
     81          1           0       -8.724833    6.021454   -1.228963
     82          1           0       -9.283943    7.682861   -0.339285
     83          1           0      -12.463151    3.912563   -0.546070
     84          1           0      -11.631891    3.924685   -2.288904
     85          1           0      -13.096122    3.019408   -1.671884
     86          1           0      -12.558505   -0.990615   -1.755142
     87          1           0      -13.597772    0.446715   -1.749092
     88          1           0      -12.141055    0.998468   -4.088470
     89          1           0      -11.622571   -0.561528   -3.903258
     90          1           0      -13.385594   -0.313978   -3.961643
     91          1           0      -10.005819   -4.539884   -0.503138
     92          1           0       -9.570969   -4.365244   -2.344741
     93          1           0       -8.584405   -5.491714   -0.863166
     94          1           0       -3.892853   -3.799014   -0.436457
     95          1           0       -2.296758   -6.615441    2.437251
     96          1           0       -2.141166   -5.158684    3.521821
     97          1           0       -3.876757   -6.040660    3.214129
     98          1           0        2.766981   -2.304262   -1.403107
     99          1           0        2.246319   -0.396769   -1.935793
    100          1           0        3.925653   -0.965755    0.687435
    101          1           0        5.480407    1.687362   -2.208592
    102          1           0        5.416627    0.038661   -3.263481
    103          1           0        3.990651    0.444255   -2.697768
    104          1           0        6.510888    1.237817   -0.158778
    105          1           0        6.371429   -0.228711    0.587563
    106          1           0        7.220170   -1.714485   -1.027452
    107          1           0        7.768712   -0.125587   -1.815228
    108          1           0        9.045724    0.925631   -0.042507
    109          1           0        8.624255   -0.509845    0.962892
    110          1           0       10.182118   -0.745987   -1.803697
    111          1           0        9.136055   -2.946155   -0.973551
    112          1           0       10.919273   -2.929902   -1.143565
    113          1           0       10.255422   -2.868367    0.546611
    114          1           0       11.089033    0.915978    0.152557
    115          1           0       11.288594   -0.793893    1.060921
    116          1           0       12.757408   -1.663689   -1.007209
    117          1           0       12.703718   -0.306560   -1.861391
    118          1           0       13.361757    0.970947    0.374550
    119          1           0       13.933522   -0.534475    1.190144
    120          1           0       15.153433    0.245281   -1.423392
    121          1           0       14.816219   -2.315107   -0.845678
    122          1           0       16.417795   -1.721795   -1.139860
    123          1           0       15.756977   -1.853988    0.480184
    124          1           0       16.061759    2.002955    0.340125
    125          1           0       16.241985    0.321971    1.432107
    126          1           0       18.145358   -0.406750   -0.229808
    127          1           0       17.613256    0.958839   -1.501371
    128          1           0       17.635614    2.746691    0.411696
    129          1           0       18.511239    1.398616    1.601536
    130          1           0       20.252129    0.728824   -0.193424
    131          1           0       19.822477    3.591807   -1.201717
    132          1           0       21.271706    2.681090   -1.446405
    133          1           0       19.593507    2.003656   -2.114729
    134          1           0       21.090964    1.887578    2.033369
    135          1           0       21.910298    2.431615    0.514616
    136          1           0       20.708757    3.366188    1.310798
    137          1           0       -6.829351    1.722190    0.696056
    138          1           0       -7.704703   -0.210992    0.068663
 ---------------------------------------------------------------------

 SCF Done:  E(RB3LYP) =  -2732.93178915     A.U. after   18 cycles

 Excitation energies and oscillator strengths:

 Excited State   1:      Singlet-A      1.9875 eV  623.80 nm  f=0.2408  <S**2>=0.000
     235 -> 237       -0.15687
     235 -> 238        0.21886
     236 -> 237        0.64746
     236 -> 238        0.11410
 This state for optimization and/or second-order correction.
 Total Energy, E(TD-HF/TD-KS) =  -2732.85874809
 Copying the excited state density for this state as the 1-particle RhoCI density.

 The electronic state is 1-A.
 Alpha  occ. eigenvalues --  -19.19508 -19.18201 -19.13315 -19.12965 -19.09066
 Alpha  occ. eigenvalues --  -14.36085 -14.35463 -14.31568 -14.31121 -10.32304
 Alpha  occ. eigenvalues --  -10.30728 -10.28417 -10.27912 -10.26635 -10.22891
 Alpha  occ. eigenvalues --  -10.22681 -10.22551 -10.22287 -10.22281 -10.22023
 Alpha  occ. eigenvalues --  -10.21827 -10.21809 -10.21654 -10.21644 -10.21333
 Alpha  occ. eigenvalues --  -10.21138 -10.21071 -10.20988 -10.20774 -10.20646
 Alpha  occ. eigenvalues --  -10.20427 -10.20414 -10.20411 -10.20401 -10.20267
 Alpha  occ. eigenvalues --  -10.20178 -10.20115 -10.19986 -10.19980 -10.19854
 Alpha  occ. eigenvalues --  -10.19823 -10.19814 -10.19802 -10.19572 -10.19538
 Alpha  occ. eigenvalues --  -10.19494 -10.19415 -10.19401 -10.19322 -10.19290
 Alpha  occ. eigenvalues --  -10.19195 -10.19191 -10.19172 -10.19057 -10.18832
 Alpha  occ. eigenvalues --  -10.18723 -10.18283 -10.18100 -10.18027 -10.17974
 Alpha  occ. eigenvalues --  -10.17889 -10.17731 -10.17320 -10.16938  -1.12893
 Alpha  occ. eigenvalues --   -1.09616  -1.08054  -1.00124  -0.99580  -0.97966
 Alpha  occ. eigenvalues --   -0.95472  -0.93774  -0.92269  -0.84042  -0.82726
 Alpha  occ. eigenvalues --   -0.81767  -0.81338  -0.81005  -0.80733  -0.80233
 Alpha  occ. eigenvalues --   -0.79955  -0.79121  -0.78848  -0.78660  -0.77444
 Alpha  occ. eigenvalues --   -0.76997  -0.75808  -0.75335  -0.74732  -0.74149
 Alpha  occ. eigenvalues --   -0.73858  -0.72557  -0.71951  -0.71581  -0.70126
 Alpha  occ. eigenvalues --   -0.69647  -0.69084  -0.68491  -0.67747  -0.67320
 Alpha  occ. eigenvalues --   -0.67022  -0.66645  -0.65638  -0.65108  -0.64680
 Alpha  occ. eigenvalues --   -0.64107  -0.62672  -0.62091  -0.61688  -0.61261
 Alpha  occ. eigenvalues --   -0.60557  -0.58617  -0.58212  -0.57491  -0.56920
 Alpha  occ. eigenvalues --   -0.56814  -0.56175  -0.55855  -0.55549  -0.55133
 Alpha  occ. eigenvalues --   -0.54882  -0.54738  -0.54491  -0.53775  -0.53076
 Alpha  occ. eigenvalues --   -0.52591  -0.51831  -0.51632  -0.50900  -0.50344
 Alpha  occ. eigenvalues --   -0.50225  -0.49435  -0.48932  -0.48748  -0.48258
 Alpha  occ. eigenvalues --   -0.47858  -0.47494  -0.47393  -0.47085  -0.46483
 Alpha  occ. eigenvalues --   -0.46233  -0.46099  -0.45871  -0.45659  -0.45327
 Alpha  occ. eigenvalues --   -0.45173  -0.44909  -0.44666  -0.44435  -0.44324
 Alpha  occ. eigenvalues --   -0.44128  -0.43899  -0.43856  -0.43620  -0.43481
 Alpha  occ. eigenvalues --   -0.43400  -0.43194  -0.42468  -0.42191  -0.42054
 Alpha  occ. eigenvalues --   -0.41937  -0.41776  -0.41702  -0.41281  -0.40987
 Alpha  occ. eigenvalues --   -0.40887  -0.40683  -0.40504  -0.40192  -0.40038
 Alpha  occ. eigenvalues --   -0.39902  -0.39660  -0.39613  -0.39402  -0.39297
 Alpha  occ. eigenvalues --   -0.39193  -0.39068  -0.38847  -0.38840  -0.38678
 Alpha  occ. eigenvalues --   -0.38420  -0.38217  -0.37799  -0.37772  -0.37562
 Alpha  occ. eigenvalues --   -0.37527  -0.37264  -0.37018  -0.36855  -0.36690
 Alpha  occ. eigenvalues --   -0.36446  -0.36260  -0.35854  -0.35811  -0.35658
 Alpha  occ. eigenvalues --   -0.35517  -0.34990  -0.34907  -0.34810  -0.34779
 Alpha  occ. eigenvalues --   -0.34434  -0.33831  -0.33314  -0.33271  -0.33032
 Alpha  occ. eigenvalues --   -0.32892  -0.32561  -0.32446  -0.32417  -0.32107
 Alpha  occ. eigenvalues --   -0.31941  -0.31924  -0.31100  -0.30981  -0.30536
 Alpha  occ. eigenvalues --   -0.30228  -0.30148  -0.30019  -0.29485  -0.29232
 Alpha  occ. eigenvalues --   -0.28981  -0.28699  -0.28121  -0.27995  -0.27696
 Alpha  occ. eigenvalues --   -0.27463  -0.26882  -0.26414  -0.25658  -0.24994
 Alpha  occ. eigenvalues --   -0.24714  -0.24611  -0.23529  -0.23085  -0.20024
 Alpha  occ. eigenvalues --   -0.17923
 Alpha virt. eigenvalues --   -0.10142  -0.06950  -0.02740  -0.01936  -0.01179
 Alpha virt. eigenvalues --   -0.00230   0.00254   0.01292   0.02468   0.02866
 Alpha virt. eigenvalues --    0.03161   0.03520   0.03850   0.04330   0.04592

 Mulliken charges:
               1
     1  C    0.111652
     2  C   -0.099046
     3  C   -0.093570
     4  C   -0.072476
     5  N   -0.207735
     6  C   -0.108291
     7  C   -0.068854
     8  C   -0.000161
     9  C    0.078747
    10  C   -0.021055
    11  C    0.056180
    12  C    0.052724
    13  C    0.201722
    14  O   -0.248782
    15  O   -0.304619
    16  N   -0.068379
    17  C    0.023117
    18  C   -0.105517
    19  C   -0.005262
    20  C    0.085041
    21  C    0.020657
    22  C   -0.008070
    23  C   -0.005444
    24  N   -0.269036
    25  C    0.065681
    26  C   -0.129248
    27  C   -0.041486
    28  C    0.069905
    29  C    0.062623
    30  C    0.029931
    31  C    0.036160
    32  N   -0.009666
    33  C    0.017498
    34  C   -0.170729
    35  C   -0.041114
    36  C    0.062212
    37  C    0.065950
    38  C    0.053101
    39  O   -0.081454
    40  C   -0.106302
    41  C    0.164671
    42  O   -0.329877
    43  O   -0.203979
    44  C    0.154685
    45  C    0.167001
    46  C   -0.118855
    47  C   -0.135806
    48  C    0.101548
    49  C    0.177695
    50  C    0.052526
    51  C   -0.056825
    52  C   -0.000667
    53  C   -0.007753
    54  C   -0.072674
    55  C    0.000982
    56  C    0.080573
    57  C    0.020484
    58  C    0.042555
    59  C   -0.037110
    60  C   -0.074069
    61  C   -0.075727
    62  C   -0.013011
    63  C    0.041184
    64  C    0.028492
    65  H   -0.026516
    66  H    0.031745
    67  H   -0.019346
    68  H    0.020449
    69  H    0.011854
    70  H    0.006420
    71  H    0.028448
    72  H    0.028101
    73  H    0.007919
    74  H    0.020983
    75  H    0.058606
    76  H    0.024779
    77  H    0.038873
    78  H    0.019724
    79  H    0.033603
    80  H   -0.030865
    81  H    0.028931
    82  H    0.041236
    83  H    0.014431
    84  H    0.050990
    85  H   -0.005245
    86  H    0.005129
    87  H    0.003807
    88  H    0.008647
    89  H   -0.007234
    90  H    0.016688
    91  H    0.010218
    92  H    0.071585
    93  H    0.059328
    94  H    0.069165
    95  H    0.051091
    96  H    0.075005
    97  H    0.048086
    98  H    0.056583
    99  H    0.055796
   100  H    0.015155
   101  H    0.035282
   102  H    0.031008
   103  H   -0.067097
   104  H   -0.002361
   105  H   -0.083289
   106  H    0.023560
   107  H   -0.005958
   108  H   -0.002909
   109  H   -0.013404
   110  H   -0.001921
   111  H    0.013055
   112  H    0.011179
   113  H    0.019173
   114  H    0.007413
   115  H    0.010877
   116  H   -0.015570
   117  H    0.000950
   118  H   -0.020525
   119  H    0.002250
   120  H   -0.045864
   121  H    0.002788
   122  H    0.004658
   123  H   -0.016144
   124  H    0.010332
   125  H    0.016348
   126  H    0.026296
   127  H    0.019629
   128  H    0.033133
   129  H    0.009417
   130  H   -0.019152
   131  H   -0.011169
   132  H    0.006996
   133  H    0.027620
   134  H    0.006207
   135  H   -0.009291
   136  H    0.001743
   137  H    0.153264
   138  H    0.184657
 Sum of Mulliken charges =   0.00000

 Dipole moment (field-independent basis, Debye):
    X=              2.7950    Y=              1.2810    Z=              0.2268  Tot=              3.0829
 Quadrupole moment (field-independent basis, Debye-Ang):
   XX=           -353.3337   YY=           -369.9274   ZZ=           -395.7085
   XY=            -28.8341   XZ=             14.7023   YZ=             -3.1014

 Normal termination of Gaussian 09 at Sat Jul 27 10:15:00 2019.
