 Gaussian 09, Revision D.01,
 Gaussian 09:  ES64L-G09RevD.01 24-Apr-2013

 --------------------------
 # td=(NStates=1) B3LYP/SVP
 --------------------------

 --
 TD
 --
 Symbolic Z-matrix:
 Charge =  0 Multiplicity = 1

                         Standard orientation:
 ---------------------------------------------------------------------
 Center     Atomic      Atomic             Coordinates (Angstroms)
 Number     Number       Type             X           Y           Z
 ---------------------------------------------------------------------
      1          6           0       -5.153858   -1.927805    0.636019
      2          6           0       -4.799269    2.844980    1.462744
      3          6           0       -9.413437    3.270443   -0.367737
      4          6           0       -9.719087   -1.584385   -1.088625
      5          7           0       -5.086321    0.504482    0.952054
      6          6           0       -4.512135   -0.732242    0.936291
      7          6           0       -3.111351   -0.601427    1.446923
      8          6           0       -3.188824    0.894431    2.065143
      9          6           0       -4.435076    1.444329    1.424546
     10          6           0       -2.981024    1.007021    3.561618
     11          6           0       -2.062922   -0.660627    0.276015
     12          6           0       -0.570407   -0.704774    0.759234
     13          6           0        0.273168   -0.992217   -0.432810
     14          8           0       -0.046050   -1.574045   -1.481291
     15          8           0        1.592874   -0.529749   -0.208268
     16          7           0       -7.108973    2.694786    0.498534
     17          6           0       -6.087816    3.318508    1.034011
     18          6           0       -6.301335    4.787272    1.088498
     19          6           0       -7.641806    4.951070    0.462904
     20          6           0       -8.139253    3.536849    0.197934
     21          6           0       -5.452741    5.796346    1.670111
     22          6           0       -8.287433    6.131660    0.371402
     23          6           0       -9.265835    6.409603   -0.585355
     24          7           0       -9.074216    0.843990   -0.652808
     25          6           0       -9.896003    1.969090   -0.596367
     26          6           0      -11.235329    1.697025   -1.077445
     27          6           0      -11.341405    0.366207   -1.249309
     28          6           0       -9.997507   -0.199157   -1.052256
     29          6           0      -12.288211    2.805413   -1.282539
     30          6           0      -12.529960   -0.422513   -1.819402
     31          6           0      -12.393184   -0.568159   -3.396327
     32          7           0       -7.502707   -1.291002   -0.169255
     33          6           0       -8.610667   -2.075329   -0.638187
     34          6           0       -8.125589   -3.427605   -0.617634
     35          6           0       -6.827883   -3.416592   -0.092886
     36          6           0       -6.482692   -2.058660    0.089879
     37          6           0       -8.738940   -4.666903   -1.208982
     38          6           0       -5.511845   -4.256295    0.023189
     39          8           0       -5.492622   -5.482224    0.131975
     40          6           0       -4.356449   -3.307705    0.544100
     41          6           0       -3.762985   -3.727719    1.812167
     42          8           0       -4.135988   -3.311502    2.860165
     43          8           0       -2.846309   -4.676300    1.626975
     44          6           0       -2.335004   -5.395504    2.646640
     45          6           0        2.606712   -0.961255   -1.255459
     46          6           0        3.852099   -0.617987   -0.653497
     47          6           0        4.840741    0.205578   -1.093563
     48          6           0        4.877349    0.838354   -2.500618
     49          6           0        6.123062    0.448674   -0.374303
     50          6           0        7.384438   -0.208405   -1.049680
     51          6           0        8.691947   -0.047900   -0.247116
     52          6           0       10.028108   -0.424714   -0.819347
     53          6           0        9.931374   -1.954555   -1.026402
     54          6           0       11.226853   -0.142082    0.041006
     55          6           0       12.519908   -0.507779   -0.595491
     56          6           0       13.738237    0.003211    0.244912
     57          6           0       15.173972   -0.191995   -0.480149
     58          6           0       15.535293   -1.682412   -0.748063
     59          6           0       16.222829    0.569387    0.367782
     60          6           0       17.654741    0.615511   -0.298616
     61          6           0       18.660721    1.445100    0.597784
     62          6           0       20.190904    1.491372    0.095137
     63          6           0       20.362749    2.252051   -1.221105
     64          6           0       21.179305    1.887542    1.223591
     65          1           0       -4.256138    3.568334    2.169110
     66          1           0      -10.180004    4.006608   -0.463971
     67          1           0      -10.453322   -2.444418   -1.402228
     68          1           0       -2.887090   -1.562805    2.119179
     69          1           0       -2.169546    1.444045    1.459905
     70          1           0       -2.145192    0.608155    3.958634
     71          1           0       -2.892281    2.268827    3.626286
     72          1           0       -3.816077    0.217494    3.893728
     73          1           0       -2.229611   -1.660442   -0.277408
     74          1           0       -2.439869    0.177873   -0.492581
     75          1           0       -0.212965    0.278258    1.387417
     76          1           0       -0.547665   -1.740790    1.363456
     77          1           0       -4.554297    5.568162    1.042569
     78          1           0       -5.933221    6.668650    1.434044
     79          1           0       -5.225677    5.922779    2.826523
     80          1           0       -8.025662    6.996470    1.187538
     81          1           0       -9.390655    5.628560   -1.484962
     82          1           0       -9.790421    7.456582   -0.778374
     83          1           0      -12.490743    3.002370   -0.054945
     84          1           0      -11.914508    3.805200   -1.628033
     85          1           0      -13.136378    2.438041   -2.066363
     86          1           0      -12.722274   -1.402954   -1.356337
     87          1           0      -13.382801    0.156023   -1.389033
     88          1           0      -12.553667    0.415517   -3.965098
     89          1           0      -11.413782   -0.985022   -3.541625
     90          1           0      -13.150291   -0.931219   -3.969109
     91          1           0       -9.633755   -5.315911   -0.609308
     92          1           0       -9.160756   -4.490690   -2.151824
     93          1           0       -7.924720   -5.395764   -1.442872
     94          1           0       -3.745982   -3.191385   -0.255553
     95          1           0       -1.772081   -6.208816    2.306206
     96          1           0       -1.605580   -4.715875    3.168178
     97          1           0       -3.215507   -5.790917    3.300100
     98          1           0        2.376161   -1.760235   -1.301195
     99          1           0        2.358959   -0.226465   -1.986191
    100          1           0        4.109662   -1.046997    0.391576
    101          1           0        5.427930    1.689869   -2.162515
    102          1           0        5.466914    0.418081   -3.199019
    103          1           0        3.746923    1.002191   -2.830164
    104          1           0        6.370254    1.499996   -0.252363
    105          1           0        5.822799    0.140632    0.472452
    106          1           0        7.224206   -1.225622   -1.336325
    107          1           0        7.547824    0.314910   -2.095770
    108          1           0        8.586191    1.202456   -0.116950
    109          1           0        8.492316   -0.480983    0.678528
    110          1           0       10.399844    0.040559   -1.700873
    111          1           0        9.270695   -2.289606   -1.553439
    112          1           0       10.961574   -2.283958   -1.163941
    113          1           0        9.842262   -2.587395   -0.012634
    114          1           0       11.264665    0.881471    0.280207
    115          1           0       11.065519   -0.759795    1.162539
    116          1           0       12.792099   -1.413876   -1.052530
    117          1           0       12.389421    0.336517   -1.428661
    118          1           0       13.600961    1.162059    0.486766
    119          1           0       13.954924   -0.368662    1.168358
    120          1           0       15.168447    0.171638   -1.570616
    121          1           0       14.789792   -2.272343   -1.482809
    122          1           0       16.289503   -1.702330   -1.262761
    123          1           0       15.537937   -2.377870    0.099626
    124          1           0       15.776984    1.612657    0.569558
    125          1           0       16.420416    0.166409    1.371501
    126          1           0       18.010608   -0.483661   -0.255220
    127          1           0       17.695270    1.037849   -1.338693
    128          1           0       18.510083    2.531518    0.752929
    129          1           0       18.810659    0.951046    1.441222
    130          1           0       20.335903    0.250624   -0.254114
    131          1           0       20.078583    3.306719   -1.014027
    132          1           0       21.293819    2.166439   -1.676910
    133          1           0       19.539003    1.881618   -1.974399
    134          1           0       20.961257    1.329087    2.070084
    135          1           0       22.280347    1.985444    1.116683
    136          1           0       20.853174    2.966840    1.609582
    137          1           0       -7.154820    1.817142    0.328600
    138          1           0       -7.569785   -0.184124    0.010654
 ---------------------------------------------------------------------

 SCF Done:  E(RB3LYP) =  -2732.80273886     A.U. after   17 cycles

 Excitation energies and oscillator strengths:

 Excited State   1:      Singlet-A      2.0016 eV  619.41 nm  f=0.1540  <S**2>=0.000
     235 -> 237       -0.19662
     235 -> 238        0.25036
     236 -> 237        0.60132
     236 -> 238        0.17350
 This state for optimization and/or second-order correction.
 Total Energy, E(TD-HF/TD-KS) =  -2732.72917980
 Copying the excited state density for this state as the 1-particle RhoCI density.

 The electronic state is 1-A.
 Alpha  occ. eigenvalues --  -19.18123 -19.15647 -19.12964 -19.12808 -19.12496
 Alpha  occ. eigenvalues --  -14.37385 -14.36862 -14.30948 -14.30551 -10.31965
 Alpha  occ. eigenvalues --  -10.31516 -10.29206 -10.24803 -10.24741 -10.24213
 Alpha  occ. eigenvalues --  -10.23203 -10.22907 -10.22511 -10.22453 -10.22449
 Alpha  occ. eigenvalues --  -10.22058 -10.21925 -10.21685 -10.21567 -10.21558
 Alpha  occ. eigenvalues --  -10.21424 -10.21310 -10.21213 -10.21064 -10.21054
 Alpha  occ. eigenvalues --  -10.20910 -10.20834 -10.20753 -10.20738 -10.20351
 Alpha  occ. eigenvalues --  -10.20316 -10.20267 -10.20252 -10.20141 -10.20105
 Alpha  occ. eigenvalues --  -10.20057 -10.19949 -10.19846 -10.19803 -10.19802
 Alpha  occ. eigenvalues --  -10.19789 -10.19308 -10.19253 -10.19231 -10.19217
 Alpha  occ. eigenvalues --  -10.19103 -10.18977 -10.18842 -10.18753 -10.18609
 Alpha  occ. eigenvalues --  -10.18408 -10.18397 -10.18146 -10.18080 -10.17874
 Alpha  occ. eigenvalues --  -10.17842 -10.17836 -10.17291 -10.16676  -1.12003
 Alpha  occ. eigenvalues --   -1.05700  -1.03203  -1.02259  -1.00550  -0.98249
 Alpha  occ. eigenvalues --   -0.98165  -0.96472  -0.91272  -0.84165  -0.83556
 Alpha  occ. eigenvalues --   -0.82918  -0.82678  -0.81212  -0.80526  -0.80361
 Alpha  occ. eigenvalues --   -0.79929  -0.79234  -0.78941  -0.78409  -0.77969
 Alpha  occ. eigenvalues --   -0.77330  -0.76256  -0.76112  -0.75135  -0.74369
 Alpha  occ. eigenvalues --   -0.73931  -0.73250  -0.72369  -0.72109  -0.71644
 Alpha  occ. eigenvalues --   -0.70110  -0.69561  -0.69082  -0.68663  -0.68534
 Alpha  occ. eigenvalues --   -0.67958  -0.67097  -0.66886  -0.65739  -0.65396
 Alpha  occ. eigenvalues --   -0.64027  -0.63208  -0.62934  -0.62554  -0.61535
 Alpha  occ. eigenvalues --   -0.61268  -0.59596  -0.58761  -0.57493  -0.57264
 Alpha  occ. eigenvalues --   -0.57179  -0.56862  -0.56367  -0.56310  -0.55225
 Alpha  occ. eigenvalues --   -0.54853  -0.54681  -0.53876  -0.53231  -0.53217
 Alpha  occ. eigenvalues --   -0.52533  -0.52330  -0.52147  -0.51720  -0.50400
 Alpha  occ. eigenvalues --   -0.49968  -0.49747  -0.49703  -0.49275  -0.48948
 Alpha  occ. eigenvalues --   -0.48597  -0.47780  -0.47723  -0.47515  -0.47220
 Alpha  occ. eigenvalues --   -0.46669  -0.46212  -0.46109  -0.45880  -0.45878
 Alpha  occ. eigenvalues --   -0.45533  -0.45327  -0.44997  -0.44914  -0.44786
 Alpha  occ. eigenvalues --   -0.44687  -0.44614  -0.43923  -0.43787  -0.43753
 Alpha  occ. eigenvalues --   -0.43634  -0.43462  -0.43021  -0.42798  -0.42742
 Alpha  occ. eigenvalues --   -0.42455  -0.42251  -0.42178  -0.42109  -0.42088
 Alpha  occ. eigenvalues --   -0.41867  -0.41778  -0.40930  -0.40689  -0.40522
 Alpha  occ. eigenvalues --   -0.40387  -0.40090  -0.39890  -0.39690  -0.39352
 Alpha  occ. eigenvalues --   -0.39075  -0.38919  -0.38869  -0.38693  -0.38534
 Alpha  occ. eigenvalues --   -0.38339  -0.37994  -0.37941  -0.37733  -0.37535
 Alpha  occ. eigenvalues --   -0.37421  -0.36985  -0.36951  -0.36808  -0.36583
 Alpha  occ. eigenvalues --   -0.36370  -0.36192  -0.36094  -0.35838  -0.35671
 Alpha  occ. eigenvalues --   -0.35497  -0.35433  -0.35034  -0.34758  -0.34703
 Alpha  occ. eigenvalues --   -0.34608  -0.34448  -0.34128  -0.33759  -0.33304
 Alpha  occ. eigenvalues --   -0.33070  -0.32936  -0.32674  -0.32594  -0.32367
 Alpha  occ. eigenvalues --   -0.32336  -0.32143  -0.31610  -0.31540  -0.31107
 Alpha  occ. eigenvalues --   -0.30702  -0.30657  -0.30107  -0.29966  -0.29561
 Alpha  occ. eigenvalues --   -0.29451  -0.28841  -0.28786  -0.28234  -0.27881
 Alpha  occ. eigenvalues --   -0.27852  -0.27153  -0.26597  -0.26036  -0.25293
 Alpha  occ. eigenvalues --   -0.24946  -0.24489  -0.22827  -0.22372  -0.19892
 Alpha  occ. eigenvalues --   -0.18485
 Alpha virt. eigenvalues --   -0.10111  -0.07998  -0.04985  -0.02983  -0.01292
 Alpha virt. eigenvalues --   -0.00640  -0.00476   0.00548   0.02561   0.03082
 Alpha virt. eigenvalues --    0.03636   0.03812   0.03881   0.04394   0.04559

 Mulliken charges:
               1
     1  C   -0.051227
     2  C   -0.093362
     3  C   -0.071632
     4  C   -0.133569
     5  N   -0.089666
     6  C   -0.033923
     7  C   -0.105655
     8  C   -0.119341
     9  C   -0.023334
    10  C    0.083418
    11  C   -0.057991
    12  C    0.020265
    13  C    0.204188
    14  O   -0.262775
    15  O   -0.417219
    16  N    0.145798
    17  C    0.051338
    18  C   -0.160676
    19  C    0.068808
    20  C    0.109241
    21  C    0.084426
    22  C   -0.136669
    23  C   -0.118338
    24  N   -0.335737
    25  C    0.066846
    26  C   -0.111763
    27  C   -0.114827
    28  C    0.092472
    29  C   -0.012153
    30  C    0.066801
    31  C    0.049141
    32  N   -0.082220
    33  C    0.132698
    34  C   -0.126231
    35  C   -0.038870
    36  C    0.057747
    37  C    0.049221
    38  C    0.079756
    39  O   -0.191403
    40  C    0.078010
    41  C    0.196942
    42  O   -0.193432
    43  O   -0.256998
    44  C    0.175328
    45  C    0.674037
    46  C   -0.158177
    47  C   -0.225848
    48  C    0.099019
    49  C    0.189795
    50  C   -0.014368
    51  C    0.046690
    52  C    0.005986
    53  C    0.134308
    54  C    0.016921
    55  C    0.037321
    56  C    0.039055
    57  C   -0.091442
    58  C    0.090011
    59  C    0.019224
    60  C   -0.007612
    61  C    0.077580
    62  C   -0.193375
    63  C    0.059861
    64  C    0.054625
    65  H    0.016782
    66  H   -0.025464
    67  H    0.020097
    68  H    0.034654
    69  H    0.004590
    70  H   -0.012088
    71  H    0.041576
    72  H    0.049050
    73  H    0.036038
    74  H    0.039372
    75  H    0.076292
    76  H    0.057209
    77  H    0.051051
    78  H   -0.021112
    79  H    0.058121
    80  H    0.044111
    81  H    0.063608
    82  H    0.052366
    83  H    0.057595
    84  H    0.037545
    85  H    0.057523
    86  H    0.000197
    87  H    0.001629
    88  H   -0.001780
    89  H    0.022471
    90  H   -0.015460
    91  H    0.051051
    92  H    0.001272
    93  H    0.036896
    94  H    0.016192
    95  H    0.016255
    96  H    0.016677
    97  H    0.044383
    98  H   -0.182286
    99  H   -0.002008
   100  H   -0.001159
   101  H   -0.007825
   102  H    0.013202
   103  H    0.032216
   104  H    0.001081
   105  H   -0.083359
   106  H   -0.004256
   107  H    0.001658
   108  H   -0.011782
   109  H   -0.016527
   110  H   -0.031582
   111  H   -0.070683
   112  H   -0.022172
   113  H   -0.008671
   114  H   -0.019121
   115  H   -0.010188
   116  H    0.007944
   117  H    0.003426
   118  H   -0.001596
   119  H   -0.028372
   120  H   -0.003089
   121  H   -0.000092
   122  H   -0.065396
   123  H    0.006993
   124  H    0.005646
   125  H   -0.003815
   126  H    0.020234
   127  H    0.016313
   128  H    0.002421
   129  H   -0.042835
   130  H   -0.010239
   131  H   -0.002120
   132  H    0.004899
   133  H    0.008097
   134  H   -0.012568
   135  H    0.025739
   136  H   -0.002518
   137  H    0.024958
   138  H    0.213696
 Sum of Mulliken charges =   0.00000

 Dipole moment (field-independent basis, Debye):
    X=              3.0329    Y=              3.2992    Z=              0.1263  Tot=              4.4832
 Quadrupole moment (field-independent basis, Debye-Ang):
   XX=           -341.7146   YY=           -380.6743   ZZ=           -394.8199
   XY=            -23.7812   XZ=             16.2796   YZ=              2.9256

 Normal termination of Gaussian 09 at Thu Aug  1 23:49:59 2019.
