 Gaussian 09, Revision D.01,
 Gaussian 09:  ES64L-G09RevD.01 24-Apr-2013

 --------------------------
 # td=(NStates=1) B3LYP/SVP
 --------------------------

 --
 TD
 --
 Symbolic Z-matrix:
 Charge =  0 Multiplicity = 1

                         Standard orientation:
 ---------------------------------------------------------------------
 Center     Atomic      Atomic             Coordinates (Angstroms)
 Number     Number       Type             X           Y           Z
 ---------------------------------------------------------------------
      1          6           0       -5.125986   -1.897159    0.393483
      2          6           0       -4.731341    2.708739    1.384001
      3          6           0       -9.360365    3.265806   -0.247496
      4          6           0       -9.878422   -1.434373   -0.865621
      5          7           0       -5.184775    0.396152    0.937970
      6          6           0       -4.452457   -0.719279    0.834530
      7          6           0       -3.027283   -0.612508    1.361633
      8          6           0       -3.076502    0.900280    2.011493
      9          6           0       -4.456740    1.299275    1.457110
     10          6           0       -2.962893    0.964289    3.560422
     11          6           0       -2.048819   -0.841540    0.186327
     12          6           0       -0.546388   -0.767742    0.635710
     13          6           0        0.389653   -1.108706   -0.457964
     14          8           0        0.029538   -1.426022   -1.636000
     15          8           0        1.732670   -0.760207   -0.174064
     16          7           0       -7.047845    2.676562    0.525765
     17          6           0       -5.989746    3.307967    1.021516
     18          6           0       -6.247905    4.744706    0.987568
     19          6           0       -7.509656    4.852991    0.429834
     20          6           0       -7.998331    3.521234    0.191171
     21          6           0       -5.294276    5.739066    1.508708
     22          6           0       -8.236450    6.094590    0.186963
     23          6           0       -9.077297    6.480762   -0.724627
     24          7           0       -9.193033    0.884753   -0.456147
     25          6           0       -9.921541    2.062759   -0.580286
     26          6           0      -11.339763    1.852096   -0.836380
     27          6           0      -11.490870    0.544896   -1.080917
     28          6           0      -10.194639   -0.078488   -0.798215
     29          6           0      -12.324623    2.969303   -0.954074
     30          6           0      -12.739753   -0.163346   -1.485518
     31          6           0      -12.907639   -0.419934   -2.993940
     32          7           0       -7.535067   -1.245387   -0.187565
     33          6           0       -8.614524   -2.056874   -0.653118
     34          6           0       -8.136517   -3.337296   -0.662787
     35          6           0       -6.771470   -3.355567   -0.336585
     36          6           0       -6.469148   -2.023062    0.081499
     37          6           0       -8.963878   -4.584868   -0.958100
     38          6           0       -5.612875   -4.164502   -0.053885
     39          8           0       -5.583304   -5.421269   -0.203279
     40          6           0       -4.524008   -3.356692    0.301759
     41          6           0       -3.870197   -3.900318    1.618763
     42          8           0       -4.191202   -3.599613    2.708126
     43          8           0       -2.944498   -4.829885    1.381431
     44          6           0       -2.300411   -5.488406    2.463815
     45          6           0        2.697900   -0.988230   -1.198996
     46          6           0        3.999387   -0.585294   -0.653975
     47          6           0        4.922346    0.186558   -1.228685
     48          6           0        4.883791    0.636346   -2.592043
     49          6           0        6.294744    0.434054   -0.542433
     50          6           0        7.471257   -0.371064   -1.101214
     51          6           0        8.849788   -0.105512   -0.344424
     52          6           0       10.067901   -0.648419   -0.976780
     53          6           0       10.127729   -2.277377   -0.861424
     54          6           0       11.391714   -0.039851   -0.183578
     55          6           0       12.777843   -0.460446   -0.712744
     56          6           0       13.850988    0.027614    0.236867
     57          6           0       15.300133   -0.242357   -0.086026
     58          6           0       15.670818   -1.768427   -0.216115
     59          6           0       16.241356    0.524367    0.630935
     60          6           0       17.661236    0.527054    0.033396
     61          6           0       18.617117    1.512740    0.688801
     62          6           0       20.054740    1.684426    0.059965
     63          6           0       20.057782    2.262700   -1.264203
     64          6           0       20.996236    2.530392    1.008680
     65          1           0       -3.951593    3.371903    1.832381
     66          1           0       -9.982642    4.124126   -0.382237
     67          1           0      -10.625196   -2.041311   -1.149627
     68          1           0       -2.813315   -1.238093    2.312948
     69          1           0       -2.361470    1.470101    1.699644
     70          1           0       -2.071738    0.651842    4.085060
     71          1           0       -3.407079    2.057792    3.743305
     72          1           0       -3.895206    0.423934    3.755138
     73          1           0       -2.368231   -1.762267   -0.287776
     74          1           0       -1.964792    0.048246   -0.500367
     75          1           0       -0.401182    0.016760    1.076433
     76          1           0       -0.471844   -1.735489    1.380995
     77          1           0       -4.467371    6.140568    0.799375
     78          1           0       -5.839594    6.692485    1.540186
     79          1           0       -5.004386    5.745073    2.719339
     80          1           0       -7.913078    6.867150    0.788636
     81          1           0       -9.684044    5.852123   -1.514821
     82          1           0       -9.486475    7.591591   -0.903306
     83          1           0      -11.965769    3.836441   -0.109032
     84          1           0      -12.416395    3.590680   -1.952755
     85          1           0      -13.423534    2.515955   -0.843980
     86          1           0      -12.804570   -1.260830   -0.872195
     87          1           0      -13.594071    0.366290   -0.952047
     88          1           0      -12.829337    0.590430   -3.581274
     89          1           0      -12.048837   -1.095114   -3.344356
     90          1           0      -14.064511   -0.580321   -3.380833
     91          1           0       -9.874781   -4.664103   -0.428053
     92          1           0       -9.131622   -4.523974   -2.100908
     93          1           0       -8.396146   -5.486538   -0.712722
     94          1           0       -3.756262   -3.152038   -0.373503
     95          1           0       -1.320123   -5.848815    1.857956
     96          1           0       -2.100438   -4.702425    3.162446
     97          1           0       -2.795569   -6.217423    3.043192
     98          1           0        2.578192   -1.986359   -1.541621
     99          1           0        2.123471   -0.440077   -2.073730
    100          1           0        4.248152   -0.766481    0.369232
    101          1           0        5.077169    1.825945   -2.790479
    102          1           0        5.515278    0.109455   -3.311599
    103          1           0        3.852125    0.726892   -2.935206
    104          1           0        6.478733    1.568283   -0.595504
    105          1           0        6.115411    0.331317    0.637181
    106          1           0        7.335340   -1.394164   -1.108675
    107          1           0        7.574952    0.023538   -2.168243
    108          1           0        9.267461    1.059795   -0.031700
    109          1           0        8.618968   -0.346789    0.751298
    110          1           0       10.054336   -0.420276   -2.028522
    111          1           0        9.172574   -2.783335   -1.473791
    112          1           0       10.960206   -2.735099   -1.209211
    113          1           0        9.789428   -2.563501    0.198365
    114          1           0       11.469505    0.977576   -0.120347
    115          1           0       11.134265   -0.296115    0.867104
    116          1           0       12.862186   -1.647534   -0.723566
    117          1           0       12.728695   -0.132122   -1.665636
    118          1           0       13.577729    1.046685    0.430022
    119          1           0       13.637194   -0.411742    1.208554
    120          1           0       15.475154    0.285378   -1.151269
    121          1           0       14.975322   -2.281746   -0.805222
    122          1           0       16.651230   -2.003419   -0.719222
    123          1           0       15.419859   -2.170418    0.763694
    124          1           0       15.850849    1.510970    0.968023
    125          1           0       16.099745    0.352831    1.729599
    126          1           0       18.143217   -0.461272    0.100163
    127          1           0       17.484618    0.714456   -1.001691
    128          1           0       18.001547    2.499977    0.599763
    129          1           0       18.885780    1.370313    1.730632
    130          1           0       20.521613    0.750995   -0.106268
    131          1           0       19.813660    3.275818   -1.507553
    132          1           0       21.093290    1.948454   -1.705828
    133          1           0       19.505752    1.610118   -1.809460
    134          1           0       20.922446    2.138172    2.108401
    135          1           0       22.003558    2.329479    0.467909
    136          1           0       20.804109    3.675766    0.785257
    137          1           0       -7.410401    1.678816    0.324709
    138          1           0       -7.532557   -0.328156    0.050568
 ---------------------------------------------------------------------

 SCF Done:  E(RB3LYP) =  -2733.01540448     A.U. after   18 cycles

 Excitation energies and oscillator strengths:

 Excited State   1:      Singlet-A      2.0789 eV  596.39 nm  f=0.1486  <S**2>=0.000
     235 -> 237       -0.31253
     235 -> 238        0.26867
     236 -> 237        0.53891
     236 -> 238        0.18912
 This state for optimization and/or second-order correction.
 Total Energy, E(TD-HF/TD-KS) =  -2732.93900611
 Copying the excited state density for this state as the 1-particle RhoCI density.

 The electronic state is 1-A.
 Alpha  occ. eigenvalues --  -19.17511 -19.17348 -19.13259 -19.12603 -19.10348
 Alpha  occ. eigenvalues --  -14.37839 -14.36045 -14.32424 -14.30759 -10.32642
 Alpha  occ. eigenvalues --  -10.31707 -10.26282 -10.24925 -10.24652 -10.24218
 Alpha  occ. eigenvalues --  -10.23511 -10.23361 -10.23343 -10.22786 -10.22565
 Alpha  occ. eigenvalues --  -10.22277 -10.21966 -10.21731 -10.21549 -10.21417
 Alpha  occ. eigenvalues --  -10.21257 -10.21142 -10.21002 -10.20936 -10.20900
 Alpha  occ. eigenvalues --  -10.20838 -10.20783 -10.20749 -10.20714 -10.20467
 Alpha  occ. eigenvalues --  -10.20272 -10.20161 -10.20142 -10.20085 -10.19861
 Alpha  occ. eigenvalues --  -10.19781 -10.19713 -10.19701 -10.19611 -10.19568
 Alpha  occ. eigenvalues --  -10.19538 -10.19488 -10.19173 -10.19110 -10.19105
 Alpha  occ. eigenvalues --  -10.19061 -10.18867 -10.18847 -10.18496 -10.18156
 Alpha  occ. eigenvalues --  -10.18080 -10.18047 -10.18041 -10.18035 -10.17978
 Alpha  occ. eigenvalues --  -10.17709 -10.17617 -10.17252 -10.16459  -1.10873
 Alpha  occ. eigenvalues --   -1.07087  -1.01956  -1.00914  -0.99392  -0.98738
 Alpha  occ. eigenvalues --   -0.98017  -0.97031  -0.92549  -0.85774  -0.82944
 Alpha  occ. eigenvalues --   -0.82694  -0.82592  -0.81780  -0.81334  -0.80844
 Alpha  occ. eigenvalues --   -0.80463  -0.79985  -0.79768  -0.79191  -0.78293
 Alpha  occ. eigenvalues --   -0.77310  -0.76809  -0.75991  -0.75068  -0.74433
 Alpha  occ. eigenvalues --   -0.73734  -0.73332  -0.72821  -0.71873  -0.70976
 Alpha  occ. eigenvalues --   -0.70444  -0.70423  -0.69180  -0.68143  -0.67663
 Alpha  occ. eigenvalues --   -0.67277  -0.67103  -0.66696  -0.66455  -0.65523
 Alpha  occ. eigenvalues --   -0.63699  -0.63237  -0.62485  -0.61692  -0.61457
 Alpha  occ. eigenvalues --   -0.61289  -0.59844  -0.58963  -0.58627  -0.58058
 Alpha  occ. eigenvalues --   -0.57886  -0.57333  -0.56550  -0.56368  -0.56294
 Alpha  occ. eigenvalues --   -0.55812  -0.55639  -0.54634  -0.54166  -0.53985
 Alpha  occ. eigenvalues --   -0.53612  -0.52625  -0.52193  -0.51684  -0.51022
 Alpha  occ. eigenvalues --   -0.50442  -0.49695  -0.49339  -0.48968  -0.48218
 Alpha  occ. eigenvalues --   -0.48115  -0.47944  -0.47710  -0.47215  -0.46979
 Alpha  occ. eigenvalues --   -0.46898  -0.46383  -0.46313  -0.46210  -0.45774
 Alpha  occ. eigenvalues --   -0.45755  -0.45451  -0.45313  -0.45146  -0.44998
 Alpha  occ. eigenvalues --   -0.44756  -0.44509  -0.44346  -0.44286  -0.44021
 Alpha  occ. eigenvalues --   -0.43843  -0.43633  -0.43252  -0.42924  -0.42680
 Alpha  occ. eigenvalues --   -0.42458  -0.42203  -0.41925  -0.41773  -0.41645
 Alpha  occ. eigenvalues --   -0.41546  -0.41429  -0.41251  -0.41180  -0.40764
 Alpha  occ. eigenvalues --   -0.40425  -0.40310  -0.40196  -0.39884  -0.39583
 Alpha  occ. eigenvalues --   -0.39000  -0.38807  -0.38783  -0.38617  -0.38376
 Alpha  occ. eigenvalues --   -0.38325  -0.38210  -0.37980  -0.37697  -0.37505
 Alpha  occ. eigenvalues --   -0.37437  -0.37150  -0.36924  -0.36708  -0.36193
 Alpha  occ. eigenvalues --   -0.36072  -0.35976  -0.35646  -0.35422  -0.35348
 Alpha  occ. eigenvalues --   -0.35206  -0.35175  -0.34980  -0.34762  -0.34741
 Alpha  occ. eigenvalues --   -0.34695  -0.34236  -0.34218  -0.33942  -0.33895
 Alpha  occ. eigenvalues --   -0.33571  -0.33111  -0.32942  -0.32357  -0.32303
 Alpha  occ. eigenvalues --   -0.32072  -0.31782  -0.31502  -0.31332  -0.31300
 Alpha  occ. eigenvalues --   -0.31223  -0.30834  -0.30635  -0.30064  -0.29564
 Alpha  occ. eigenvalues --   -0.29176  -0.28831  -0.28613  -0.28408  -0.28169
 Alpha  occ. eigenvalues --   -0.27966  -0.27719  -0.27355  -0.26747  -0.25651
 Alpha  occ. eigenvalues --   -0.25191  -0.24884  -0.24074  -0.23613  -0.19615
 Alpha  occ. eigenvalues --   -0.19294
 Alpha virt. eigenvalues --   -0.10570  -0.07541  -0.04749  -0.02554  -0.01628
 Alpha virt. eigenvalues --   -0.00200   0.00173   0.01109   0.01761   0.03109
 Alpha virt. eigenvalues --    0.03592   0.04100   0.04364   0.04583   0.04868

 Mulliken charges:
               1
     1  C   -0.079387
     2  C   -0.057209
     3  C   -0.081152
     4  C   -0.030230
     5  N   -0.077434
     6  C   -0.072909
     7  C   -0.076383
     8  C    0.007986
     9  C   -0.081442
    10  C    0.060770
    11  C    0.056056
    12  C    0.131404
    13  C    0.224994
    14  O   -0.283891
    15  O   -0.354897
    16  N    0.028490
    17  C    0.067424
    18  C   -0.101634
    19  C    0.052707
    20  C    0.010396
    21  C    0.036778
    22  C    0.024625
    23  C   -0.126130
    24  N   -0.325522
    25  C    0.111039
    26  C   -0.083791
    27  C   -0.031761
    28  C    0.089273
    29  C   -0.041904
    30  C   -0.026197
    31  C   -0.030624
    32  N    0.000974
    33  C    0.126603
    34  C   -0.172899
    35  C    0.020984
    36  C    0.058141
    37  C    0.112736
    38  C    0.047502
    39  O   -0.238095
    40  C    0.123621
    41  C    0.153846
    42  O   -0.188842
    43  O   -0.287773
    44  C    0.178857
    45  C    0.260372
    46  C    0.006599
    47  C   -0.162916
    48  C    0.038714
    49  C    0.009791
    50  C    0.095068
    51  C   -0.067783
    52  C   -0.009085
    53  C   -0.009774
    54  C   -0.006319
    55  C    0.083836
    56  C    0.026106
    57  C   -0.055881
    58  C    0.089502
    59  C    0.039005
    60  C    0.097840
    61  C    0.030223
    62  C   -0.096212
    63  C    0.088922
    64  C   -0.022131
    65  H    0.000249
    66  H   -0.049382
    67  H   -0.089095
    68  H    0.036973
    69  H   -0.065986
    70  H    0.041938
    71  H    0.011100
    72  H    0.013466
    73  H    0.020803
    74  H    0.024170
    75  H   -0.063772
    76  H    0.048292
    77  H    0.046016
    78  H   -0.016252
    79  H    0.057795
    80  H   -0.031658
    81  H    0.040711
    82  H    0.041008
    83  H    0.053533
    84  H    0.050598
    85  H    0.033590
    86  H    0.022642
    87  H    0.017108
    88  H    0.017377
    89  H    0.046007
    90  H    0.038204
    91  H    0.013136
    92  H    0.037244
    93  H    0.032927
    94  H    0.032124
    95  H    0.058345
    96  H    0.011509
    97  H    0.036311
    98  H    0.006076
    99  H    0.036793
   100  H   -0.021689
   101  H    0.012902
   102  H    0.042638
   103  H   -0.002805
   104  H    0.009973
   105  H    0.001517
   106  H   -0.010159
   107  H    0.010979
   108  H    0.003180
   109  H    0.003249
   110  H   -0.007259
   111  H    0.009755
   112  H    0.003228
   113  H    0.017076
   114  H   -0.029979
   115  H   -0.011950
   116  H    0.009737
   117  H   -0.029408
   118  H   -0.030109
   119  H   -0.024624
   120  H   -0.018500
   121  H   -0.023372
   122  H    0.025427
   123  H   -0.006658
   124  H   -0.037480
   125  H   -0.053493
   126  H   -0.002097
   127  H   -0.014668
   128  H   -0.006501
   129  H   -0.013569
   130  H   -0.024846
   131  H    0.010348
   132  H   -0.012444
   133  H   -0.043150
   134  H    0.036065
   135  H    0.011005
   136  H    0.026584
   137  H    0.189720
   138  H    0.080501
 Sum of Mulliken charges =   0.00000

 Dipole moment (field-independent basis, Debye):
    X=              1.4896    Y=              5.0306    Z=              0.9677  Tot=              5.3350
 Quadrupole moment (field-independent basis, Debye-Ang):
   XX=           -357.7611   YY=           -390.0370   ZZ=           -394.3028
   XY=            -39.8273   XZ=              2.6562   YZ=             -3.7003

 Normal termination of Gaussian 09 at Mon Aug  5 01:53:06 2019.
