 Gaussian 09, Revision D.01,
 Gaussian 09:  ES64L-G09RevD.01 24-Apr-2013

 --------------------------
 # td=(NStates=1) B3LYP/SVP
 --------------------------

 --
 TD
 --
 Symbolic Z-matrix:
 Charge =  0 Multiplicity = 1

                         Standard orientation:
 ---------------------------------------------------------------------
 Center     Atomic      Atomic             Coordinates (Angstroms)
 Number     Number       Type             X           Y           Z
 ---------------------------------------------------------------------
      1          6           0       -5.188921   -2.085888    0.513100
      2          6           0       -4.677345    2.760077    1.392565
      3          6           0       -9.215343    3.308146   -0.291805
      4          6           0       -9.860418   -1.365383   -1.052480
      5          7           0       -5.089058    0.425125    0.740314
      6          6           0       -4.509438   -0.811056    0.917630
      7          6           0       -3.129537   -0.632431    1.323361
      8          6           0       -3.168083    0.849022    1.955263
      9          6           0       -4.364566    1.386051    1.257966
     10          6           0       -3.115434    0.849825    3.408151
     11          6           0       -2.117249   -0.872185    0.141072
     12          6           0       -0.690018   -0.905664    0.689387
     13          6           0        0.406941   -1.226220   -0.374162
     14          8           0        0.085306   -1.671642   -1.513658
     15          8           0        1.532657   -0.999948   -0.082296
     16          7           0       -6.887609    2.786668    0.397911
     17          6           0       -5.906203    3.353108    0.958449
     18          6           0       -6.216194    4.745131    1.100780
     19          6           0       -7.452439    5.046418    0.642367
     20          6           0       -7.923059    3.640279    0.147090
     21          6           0       -5.236978    5.830633    1.710333
     22          6           0       -8.091389    6.327658    0.492717
     23          6           0       -8.979096    6.670640   -0.532640
     24          7           0       -9.112541    0.900029   -0.695644
     25          6           0       -9.758448    2.120384   -0.586772
     26          6           0      -11.112571    1.924701   -0.974928
     27          6           0      -11.314679    0.603903   -1.314876
     28          6           0       -9.967081    0.004117   -1.041712
     29          6           0      -12.147952    3.146546   -1.183723
     30          6           0      -12.574572   -0.158990   -1.721467
     31          6           0      -12.634520   -0.563071   -3.269014
     32          7           0       -7.532494   -1.235855   -0.164788
     33          6           0       -8.602562   -1.948894   -0.591990
     34          6           0       -8.226628   -3.359768   -0.685431
     35          6           0       -6.880986   -3.463478   -0.345124
     36          6           0       -6.494059   -2.031754    0.002516
     37          6           0       -9.065745   -4.592950   -1.214634
     38          6           0       -5.748374   -4.348425    0.052300
     39          8           0       -5.785049   -5.520965   -0.131577
     40          6           0       -4.588508   -3.391064    0.432850
     41          6           0       -3.970540   -3.782685    1.856004
     42          8           0       -4.262016   -3.317404    2.943452
     43          8           0       -3.118432   -4.850352    1.726361
     44          6           0       -2.702073   -5.566164    2.864906
     45          6           0        2.646517   -0.909898   -1.076821
     46          6           0        3.918243   -0.603157   -0.483145
     47          6           0        4.964179    0.172171   -1.017179
     48          6           0        4.874636    0.780859   -2.320236
     49          6           0        6.229355    0.417180   -0.238622
     50          6           0        7.585004   -0.253083   -0.890414
     51          6           0        8.775105   -0.238063   -0.107905
     52          6           0       10.090511   -0.611913   -0.882201
     53          6           0       10.107935   -2.078859   -1.345103
     54          6           0       11.330475   -0.206646   -0.034511
     55          6           0       12.616546   -0.426175   -0.781022
     56          6           0       13.792046    0.014200    0.144193
     57          6           0       15.201886   -0.102287   -0.488322
     58          6           0       15.460773   -1.589454   -0.817473
     59          6           0       16.247533    0.448223    0.454231
     60          6           0       17.677501    0.702677   -0.216121
     61          6           0       18.678345    1.410505    0.727914
     62          6           0       20.089149    1.454935    0.131859
     63          6           0       20.192557    2.364693   -1.173763
     64          6           0       20.995904    2.078183    1.255976
     65          1           0       -3.901599    3.369183    1.615676
     66          1           0       -9.904733    4.097185   -0.346575
     67          1           0      -10.638108   -2.083401   -1.432862
     68          1           0       -2.823047   -1.232628    2.109820
     69          1           0       -2.295640    1.375170    1.431311
     70          1           0       -2.031321    0.503371    3.789156
     71          1           0       -2.968332    1.876533    3.911135
     72          1           0       -4.104542    0.211468    3.948374
     73          1           0       -2.394206   -1.956669   -0.238792
     74          1           0       -2.074695   -0.044655   -0.444653
     75          1           0       -0.456402   -0.094037    1.216692
     76          1           0       -0.585890   -1.662643    1.461231
     77          1           0       -4.212692    5.904191    1.153550
     78          1           0       -5.742066    6.940030    1.745256
     79          1           0       -4.879909    5.454550    2.688073
     80          1           0       -8.045827    7.101649    1.388396
     81          1           0       -8.873816    6.023611   -1.514405
     82          1           0       -9.424872    7.647979   -0.761765
     83          1           0      -11.976156    4.117761   -0.428278
     84          1           0      -11.832958    3.671502   -2.179365
     85          1           0      -13.046756    2.661955   -1.192543
     86          1           0      -12.879968   -1.034118   -1.111537
     87          1           0      -13.440588    0.542383   -1.700707
     88          1           0      -12.482351    0.322112   -3.809192
     89          1           0      -11.744818   -1.214384   -3.521889
     90          1           0      -13.548846   -1.072599   -3.467975
     91          1           0      -10.126598   -4.553918   -0.920147
     92          1           0       -9.004911   -4.397401   -2.518308
     93          1           0       -8.570683   -5.519122   -0.638336
     94          1           0       -3.905127   -3.595844   -0.357197
     95          1           0       -1.855229   -6.302272    2.529901
     96          1           0       -2.221161   -4.694444    3.431219
     97          1           0       -3.611127   -6.201775    3.164159
     98          1           0        2.584211   -1.870422   -1.751823
     99          1           0        2.472334   -0.284421   -1.874476
    100          1           0        4.082633   -1.074725    0.579476
    101          1           0        5.674635    1.750493   -2.229899
    102          1           0        5.330158    0.205878   -3.392272
    103          1           0        3.658906    0.946097   -2.490447
    104          1           0        6.489391    1.644729   -0.260111
    105          1           0        6.179372    0.121698    0.771822
    106          1           0        7.384508   -1.289969   -0.984082
    107          1           0        7.483373    0.131133   -1.987468
    108          1           0        8.946177    0.654473    0.358541
    109          1           0        8.420150   -0.835751    0.840373
    110          1           0       10.144337   -0.037300   -1.923936
    111          1           0        8.962505   -2.212363   -1.873095
    112          1           0       10.843702   -2.486922   -2.029138
    113          1           0        9.767974   -2.772009   -0.395728
    114          1           0       11.134213    0.777047    0.272490
    115          1           0       11.192840   -0.789278    0.912181
    116          1           0       12.766034   -1.379747   -1.276749
    117          1           0       12.801702    0.455479   -1.668084
    118          1           0       13.504831    1.044811    0.236910
    119          1           0       13.604338   -0.636340    1.032958
    120          1           0       15.322695    0.214908   -1.504185
    121          1           0       14.662648   -1.982034   -1.467334
    122          1           0       16.515122   -1.834891   -1.416359
    123          1           0       15.308215   -2.381760    0.129705
    124          1           0       15.891303    1.637670    0.708236
    125          1           0       16.531414   -0.027639    1.534800
    126          1           0       18.240220   -0.350237   -0.491623
    127          1           0       17.630697    1.243946   -1.246178
    128          1           0       18.355643    2.578083    0.837191
    129          1           0       18.836055    0.933837    1.743098
    130          1           0       20.527068    0.433814    0.062604
    131          1           0       19.841755    3.498865   -0.912370
    132          1           0       21.235126    2.489626   -1.286157
    133          1           0       19.616066    1.752427   -1.970475
    134          1           0       20.921134    1.664793    2.197030
    135          1           0       21.980161    2.068484    0.935597
    136          1           0       20.664624    3.210540    1.264180
    137          1           0       -6.980090    1.767528    0.424365
    138          1           0       -7.691849   -0.098497   -0.008076
 ---------------------------------------------------------------------

 SCF Done:  E(RB3LYP) =  -2732.95009532     A.U. after   17 cycles

 Excitation energies and oscillator strengths:

 Excited State   1:      Singlet-A      2.0401 eV  607.75 nm  f=0.1848  <S**2>=0.000
     235 -> 238        0.29889
     236 -> 237        0.63934
 This state for optimization and/or second-order correction.
 Total Energy, E(TD-HF/TD-KS) =  -2732.87512442
 Copying the excited state density for this state as the 1-particle RhoCI density.

 The electronic state is 1-A.
 Alpha  occ. eigenvalues --  -19.19760 -19.17139 -19.13247 -19.12567 -19.08912
 Alpha  occ. eigenvalues --  -14.37998 -14.37259 -14.31707 -14.29620 -10.32620
 Alpha  occ. eigenvalues --  -10.30440 -10.28145 -10.26849 -10.25922 -10.24154
 Alpha  occ. eigenvalues --  -10.23702 -10.23352 -10.23223 -10.23198 -10.23175
 Alpha  occ. eigenvalues --  -10.22479 -10.22228 -10.22043 -10.22023 -10.21891
 Alpha  occ. eigenvalues --  -10.21562 -10.21471 -10.21429 -10.21263 -10.21242
 Alpha  occ. eigenvalues --  -10.20983 -10.20979 -10.20919 -10.20781 -10.20577
 Alpha  occ. eigenvalues --  -10.20527 -10.20463 -10.20287 -10.20184 -10.20128
 Alpha  occ. eigenvalues --  -10.20126 -10.20060 -10.20038 -10.19804 -10.19755
 Alpha  occ. eigenvalues --  -10.19640 -10.19519 -10.19473 -10.19462 -10.19287
 Alpha  occ. eigenvalues --  -10.19160 -10.19061 -10.18873 -10.18868 -10.18842
 Alpha  occ. eigenvalues --  -10.18644 -10.18592 -10.18486 -10.18472 -10.18434
 Alpha  occ. eigenvalues --  -10.18397 -10.18192 -10.17820 -10.16924  -1.14962
 Alpha  occ. eigenvalues --   -1.08988  -1.04541  -1.01512  -1.00683  -0.98568
 Alpha  occ. eigenvalues --   -0.96258  -0.94967  -0.94547  -0.85254  -0.83934
 Alpha  occ. eigenvalues --   -0.82541  -0.81982  -0.81225  -0.80981  -0.80789
 Alpha  occ. eigenvalues --   -0.79732  -0.78912  -0.78655  -0.78531  -0.78016
 Alpha  occ. eigenvalues --   -0.77075  -0.76504  -0.75456  -0.75068  -0.73667
 Alpha  occ. eigenvalues --   -0.73373  -0.72973  -0.72166  -0.71432  -0.69434
 Alpha  occ. eigenvalues --   -0.69011  -0.68640  -0.67792  -0.67696  -0.67012
 Alpha  occ. eigenvalues --   -0.66979  -0.66712  -0.66172  -0.65651  -0.65153
 Alpha  occ. eigenvalues --   -0.64071  -0.62985  -0.62420  -0.61509  -0.61390
 Alpha  occ. eigenvalues --   -0.61231  -0.59658  -0.58777  -0.58736  -0.57689
 Alpha  occ. eigenvalues --   -0.57129  -0.56715  -0.56210  -0.55424  -0.54948
 Alpha  occ. eigenvalues --   -0.54557  -0.54368  -0.53765  -0.53702  -0.53583
 Alpha  occ. eigenvalues --   -0.52972  -0.51877  -0.51547  -0.51145  -0.50879
 Alpha  occ. eigenvalues --   -0.49946  -0.49418  -0.48986  -0.48796  -0.48664
 Alpha  occ. eigenvalues --   -0.48401  -0.47823  -0.47659  -0.47397  -0.47245
 Alpha  occ. eigenvalues --   -0.47049  -0.46617  -0.46297  -0.46188  -0.45903
 Alpha  occ. eigenvalues --   -0.45452  -0.45273  -0.45089  -0.44839  -0.44683
 Alpha  occ. eigenvalues --   -0.44585  -0.44171  -0.44100  -0.43706  -0.43660
 Alpha  occ. eigenvalues --   -0.43609  -0.43527  -0.43046  -0.42549  -0.42483
 Alpha  occ. eigenvalues --   -0.42123  -0.42027  -0.41904  -0.41749  -0.41488
 Alpha  occ. eigenvalues --   -0.41295  -0.41053  -0.40910  -0.40578  -0.40368
 Alpha  occ. eigenvalues --   -0.40094  -0.39840  -0.39778  -0.39573  -0.39548
 Alpha  occ. eigenvalues --   -0.39120  -0.38857  -0.38769  -0.38615  -0.38358
 Alpha  occ. eigenvalues --   -0.38087  -0.37691  -0.37627  -0.37444  -0.37115
 Alpha  occ. eigenvalues --   -0.37021  -0.36781  -0.36631  -0.36566  -0.36276
 Alpha  occ. eigenvalues --   -0.35988  -0.35981  -0.35942  -0.35789  -0.35659
 Alpha  occ. eigenvalues --   -0.35085  -0.34876  -0.34743  -0.34701  -0.34456
 Alpha  occ. eigenvalues --   -0.34337  -0.34318  -0.34231  -0.33519  -0.33268
 Alpha  occ. eigenvalues --   -0.33248  -0.33095  -0.32911  -0.32376  -0.32347
 Alpha  occ. eigenvalues --   -0.32003  -0.31658  -0.31565  -0.31309  -0.31135
 Alpha  occ. eigenvalues --   -0.30834  -0.30811  -0.30371  -0.30099  -0.30052
 Alpha  occ. eigenvalues --   -0.29552  -0.29160  -0.28627  -0.28433  -0.27327
 Alpha  occ. eigenvalues --   -0.26647  -0.26221  -0.25904  -0.25797  -0.25592
 Alpha  occ. eigenvalues --   -0.24640  -0.24261  -0.24083  -0.22684  -0.19530
 Alpha  occ. eigenvalues --   -0.18213
 Alpha virt. eigenvalues --   -0.09643  -0.07258  -0.04478  -0.03743  -0.02797
 Alpha virt. eigenvalues --   -0.00976   0.00589   0.01481   0.02393   0.02834
 Alpha virt. eigenvalues --    0.03463   0.03668   0.03961   0.04337   0.04384

 Mulliken charges:
               1
     1  C   -0.045373
     2  C   -0.027842
     3  C   -0.044363
     4  C   -0.119712
     5  N   -0.165553
     6  C    0.003336
     7  C   -0.034644
     8  C   -0.059727
     9  C   -0.026077
    10  C    0.014408
    11  C    0.134916
    12  C    0.074688
    13  C    0.108693
    14  O   -0.332813
    15  O   -0.168054
    16  N    0.082271
    17  C    0.035175
    18  C   -0.126872
    19  C    0.045910
    20  C    0.025153
    21  C    0.033955
    22  C   -0.091704
    23  C   -0.084440
    24  N   -0.217803
    25  C    0.095549
    26  C   -0.136780
    27  C   -0.098765
    28  C    0.081987
    29  C    0.051321
    30  C    0.034682
    31  C    0.016017
    32  N   -0.042544
    33  C    0.050100
    34  C   -0.188472
    35  C   -0.040904
    36  C    0.077547
    37  C    0.004488
    38  C    0.068986
    39  O   -0.136792
    40  C   -0.007164
    41  C    0.208889
    42  O   -0.217547
    43  O   -0.317982
    44  C    0.128895
    45  C    0.310041
    46  C   -0.116605
    47  C   -0.073447
    48  C   -0.102638
    49  C    0.033469
    50  C   -0.017491
    51  C    0.111932
    52  C   -0.111791
    53  C   -0.046207
    54  C    0.102813
    55  C   -0.050481
    56  C    0.063571
    57  C    0.024769
    58  C   -0.087219
    59  C   -0.002853
    60  C   -0.054499
    61  C    0.012937
    62  C   -0.158884
    63  C    0.013119
    64  C    0.063393
    65  H   -0.068311
    66  H   -0.068029
    67  H    0.008810
    68  H   -0.036435
    69  H   -0.004470
    70  H    0.016149
    71  H    0.014276
    72  H    0.070056
    73  H    0.048751
    74  H   -0.022667
    75  H   -0.039483
    76  H   -0.001897
    77  H    0.033306
    78  H    0.047235
    79  H    0.025496
    80  H    0.046583
    81  H    0.049784
    82  H    0.037923
    83  H    0.044762
    84  H    0.038442
    85  H    0.006741
    86  H    0.017573
    87  H   -0.006956
    88  H    0.003832
    89  H    0.010950
    90  H    0.012512
    91  H    0.026657
    92  H    0.072309
    93  H    0.077985
    94  H    0.057917
    95  H    0.045647
    96  H    0.051193
    97  H    0.061689
    98  H    0.058855
    99  H   -0.034067
   100  H    0.021342
   101  H    0.046258
   102  H    0.073686
   103  H    0.060662
   104  H    0.027559
   105  H   -0.021761
   106  H   -0.005497
   107  H    0.004045
   108  H   -0.051088
   109  H   -0.001002
   110  H    0.010650
   111  H    0.009276
   112  H    0.041507
   113  H    0.015560
   114  H   -0.024537
   115  H   -0.007142
   116  H    0.008865
   117  H   -0.001150
   118  H   -0.005626
   119  H    0.007406
   120  H   -0.012476
   121  H    0.004418
   122  H    0.036749
   123  H    0.012732
   124  H    0.006900
   125  H    0.031855
   126  H    0.007752
   127  H    0.016181
   128  H    0.006873
   129  H    0.004734
   130  H    0.003040
   131  H    0.027362
   132  H    0.000456
   133  H    0.044959
   134  H   -0.008694
   135  H   -0.016222
   136  H   -0.000856
   137  H    0.143165
   138  H    0.219976
 Sum of Mulliken charges =   0.00000

 Dipole moment (field-independent basis, Debye):
    X=              4.4291    Y=              3.7815    Z=              1.2155  Tot=              5.9493
 Quadrupole moment (field-independent basis, Debye-Ang):
   XX=           -358.1877   YY=           -387.3211   ZZ=           -398.1746
   XY=            -21.1198   XZ=              2.8330   YZ=             -4.8408

 Normal termination of Gaussian 09 at Fri Aug  2 10:40:18 2019.
