 Gaussian 09, Revision D.01,
 Gaussian 09:  ES64L-G09RevD.01 24-Apr-2013

 --------------------------
 # td=(NStates=1) B3LYP/SVP
 --------------------------

 --
 TD
 --
 Symbolic Z-matrix:
 Charge =  0 Multiplicity = 1

                         Standard orientation:
 ---------------------------------------------------------------------
 Center     Atomic      Atomic             Coordinates (Angstroms)
 Number     Number       Type             X           Y           Z
 ---------------------------------------------------------------------
      1          6           0       -5.094615   -1.992965    0.391915
      2          6           0       -4.821504    2.820779    1.221633
      3          6           0       -9.428952    3.344610   -0.047102
      4          6           0       -9.770715   -1.472018   -1.046456
      5          7           0       -5.248554    0.410797    0.650476
      6          6           0       -4.509452   -0.709030    0.710269
      7          6           0       -3.134472   -0.451173    1.112112
      8          6           0       -3.038397    0.996130    1.675402
      9          6           0       -4.463532    1.428426    1.174414
     10          6           0       -2.916626    1.007867    3.143030
     11          6           0       -1.991032   -0.740880    0.088522
     12          6           0       -0.581888   -0.622771    0.586780
     13          6           0        0.344006   -1.110527   -0.544303
     14          8           0        0.073746   -1.768540   -1.466094
     15          8           0        1.653338   -0.700709   -0.214876
     16          7           0       -7.188435    2.739933    0.448142
     17          6           0       -6.047878    3.382840    0.930549
     18          6           0       -6.352524    4.845740    1.040307
     19          6           0       -7.629900    4.908640    0.558327
     20          6           0       -8.185569    3.608356    0.277856
     21          6           0       -5.510916    5.832895    1.758128
     22          6           0       -8.453821    6.197568    0.625403
     23          6           0       -9.110260    6.690550   -0.502187
     24          7           0       -9.295060    0.844180   -0.585347
     25          6           0       -9.848677    1.950322   -0.556515
     26          6           0      -11.279164    1.765189   -1.025204
     27          6           0      -11.493559    0.439692   -1.297872
     28          6           0      -10.083092   -0.158993   -1.001644
     29          6           0      -12.202169    2.872334   -1.083919
     30          6           0      -12.607358   -0.369362   -1.820987
     31          6           0      -12.460074   -0.742037   -3.239580
     32          7           0       -7.478720   -1.194676   -0.168996
     33          6           0       -8.545236   -2.041955   -0.597014
     34          6           0       -8.096906   -3.429344   -0.660885
     35          6           0       -6.763580   -3.495337   -0.235201
     36          6           0       -6.478981   -2.122528    0.033205
     37          6           0       -8.892171   -4.638484   -1.087928
     38          6           0       -5.733458   -4.349249   -0.033569
     39          8           0       -5.608209   -5.550381    0.056643
     40          6           0       -4.435766   -3.352869    0.327501
     41          6           0       -3.784967   -3.817888    1.780354
     42          8           0       -4.039383   -3.195975    2.811471
     43          8           0       -3.139563   -4.981591    1.704103
     44          6           0       -2.580971   -5.386205    2.977126
     45          6           0        2.800459   -1.074662   -1.094437
     46          6           0        4.046624   -0.512045   -0.482086
     47          6           0        4.972797    0.236784   -1.077043
     48          6           0        4.796201    0.738063   -2.507593
     49          6           0        6.264658    0.593747   -0.294301
     50          6           0        7.431786   -0.230176   -0.854630
     51          6           0        8.755225    0.065453   -0.100325
     52          6           0       10.100289   -0.695822   -0.595235
     53          6           0        9.957002   -2.232665   -0.449359
     54          6           0       11.330005    0.008732    0.125652
     55          6           0       12.574566   -0.441998   -0.556583
     56          6           0       13.813407    0.149733    0.243608
     57          6           0       15.261362   -0.142834   -0.301837
     58          6           0       15.667927   -1.661278   -0.175213
     59          6           0       16.274163    0.773852    0.371510
     60          6           0       17.702915    0.527603   -0.190298
     61          6           0       18.706271    1.528787    0.440182
     62          6           0       20.141455    1.409509   -0.085961
     63          6           0       20.335887    1.717754   -1.561992
     64          6           0       21.106711    2.377209    0.775550
     65          1           0       -4.157381    3.355452    1.909213
     66          1           0      -10.289158    4.003530    0.003831
     67          1           0      -10.605396   -2.174712   -1.187640
     68          1           0       -2.893289   -1.212508    1.953819
     69          1           0       -2.308579    1.847544    1.116858
     70          1           0       -1.806206    0.666368    3.542445
     71          1           0       -2.892115    2.011790    3.470500
     72          1           0       -3.542223    0.385778    3.494607
     73          1           0       -2.065302   -1.820074   -0.187669
     74          1           0       -2.101942   -0.150780   -0.922638
     75          1           0       -0.292336    0.382735    0.725647
     76          1           0       -0.180907   -1.184468    1.391374
     77          1           0       -4.600060    5.816820    0.982931
     78          1           0       -5.925694    6.901101    1.727681
     79          1           0       -4.960583    5.461597    2.689351
     80          1           0       -8.489692    6.874094    1.445523
     81          1           0       -9.448786    6.236378   -1.557736
     82          1           0       -9.664123    7.465648   -0.512559
     83          1           0      -12.389690    3.572295   -0.334535
     84          1           0      -11.986415    3.759594   -1.823893
     85          1           0      -13.214367    2.539685   -1.300214
     86          1           0      -12.770761   -1.391511   -1.141774
     87          1           0      -13.653443    0.263725   -1.702062
     88          1           0      -12.398130    0.213892   -3.749564
     89          1           0      -11.514101   -1.397753   -3.451807
     90          1           0      -13.314147   -1.308705   -3.580195
     91          1           0       -9.900879   -4.678635   -0.717603
     92          1           0       -9.061360   -4.482365   -2.360208
     93          1           0       -8.368385   -5.613960   -1.032811
     94          1           0       -3.762265   -3.424210   -0.378551
     95          1           0       -2.028424   -6.224153    2.711509
     96          1           0       -2.126041   -4.558308    3.333797
     97          1           0       -3.509938   -5.834406    3.685079
     98          1           0        3.005275   -2.088913   -1.215080
     99          1           0        2.344000   -0.815019   -2.137046
    100          1           0        4.273933   -0.749353    0.629500
    101          1           0        4.496860    2.022575   -2.571146
    102          1           0        5.796848    0.413156   -3.019044
    103          1           0        3.966028    0.133047   -2.948576
    104          1           0        6.526117    1.647179   -0.680197
    105          1           0        6.142544    0.517044    0.775546
    106          1           0        7.277107   -1.375031   -0.869577
    107          1           0        7.639037    0.104062   -1.968616
    108          1           0        8.872119    1.178427    0.029029
    109          1           0        8.832276   -0.235017    0.997281
    110          1           0       10.202377   -0.552341   -1.673929
    111          1           0        9.075969   -2.573043   -0.885191
    112          1           0       10.949418   -2.800329   -0.717537
    113          1           0        9.984853   -2.581859    0.603073
    114          1           0       11.148517    1.133817   -0.076922
    115          1           0       11.330599   -0.187546    1.232136
    116          1           0       12.682343   -1.621658   -0.670630
    117          1           0       12.601034   -0.130675   -1.535383
    118          1           0       13.393048    1.130262    0.123059
    119          1           0       13.640849   -0.249862    1.306540
    120          1           0       15.314723    0.038917   -1.419458
    121          1           0       15.056047   -2.443934   -0.760813
    122          1           0       16.756950   -1.720566   -0.605488
    123          1           0       15.829187   -2.130731    0.947997
    124          1           0       16.163239    1.943728   -0.009024
    125          1           0       16.287398    0.779094    1.562121
    126          1           0       18.137206   -0.549251    0.018633
    127          1           0       17.560709    0.562401   -1.203390
    128          1           0       18.217820    2.559722    0.580562
    129          1           0       18.662004    1.152263    1.457497
    130          1           0       20.606799    0.502011    0.018606
    131          1           0       19.960396    2.696008   -1.794980
    132          1           0       21.289793    1.852039   -1.989362
    133          1           0       19.512467    1.077370   -2.151569
    134          1           0       21.124297    2.153291    1.743928
    135          1           0       22.203337    2.522681    0.542705
    136          1           0       20.811693    3.479799    0.971033
    137          1           0       -7.262619    1.743811   -0.008409
    138          1           0       -7.567740   -0.207543    0.017051
 ---------------------------------------------------------------------

 SCF Done:  E(RB3LYP) =  -2733.03248335     A.U. after   16 cycles

 Excitation energies and oscillator strengths:

 Excited State   1:      Singlet-A      2.0749 eV  597.54 nm  f=0.1974  <S**2>=0.000
     235 -> 237       -0.10659
     235 -> 238        0.26218
     236 -> 237        0.64203
 This state for optimization and/or second-order correction.
 Total Energy, E(TD-HF/TD-KS) =  -2732.95623192
 Copying the excited state density for this state as the 1-particle RhoCI density.

 The electronic state is 1-A.
 Alpha  occ. eigenvalues --  -19.18137 -19.15953 -19.13357 -19.12063 -19.11239
 Alpha  occ. eigenvalues --  -14.37390 -14.37322 -14.32554 -14.30174 -10.31530
 Alpha  occ. eigenvalues --  -10.31074 -10.26611 -10.24949 -10.24789 -10.24434
 Alpha  occ. eigenvalues --  -10.23626 -10.23536 -10.23276 -10.23030 -10.22458
 Alpha  occ. eigenvalues --  -10.22452 -10.21837 -10.21816 -10.21617 -10.21554
 Alpha  occ. eigenvalues --  -10.21459 -10.21420 -10.21118 -10.21029 -10.20796
 Alpha  occ. eigenvalues --  -10.20642 -10.20456 -10.20357 -10.20255 -10.20150
 Alpha  occ. eigenvalues --  -10.20136 -10.20003 -10.19880 -10.19873 -10.19863
 Alpha  occ. eigenvalues --  -10.19840 -10.19734 -10.19656 -10.19614 -10.19513
 Alpha  occ. eigenvalues --  -10.19482 -10.19353 -10.19256 -10.19125 -10.19068
 Alpha  occ. eigenvalues --  -10.19015 -10.18673 -10.18651 -10.18343 -10.18235
 Alpha  occ. eigenvalues --  -10.18208 -10.18202 -10.18201 -10.18157 -10.18147
 Alpha  occ. eigenvalues --  -10.18084 -10.17860 -10.17377 -10.17181  -1.09232
 Alpha  occ. eigenvalues --   -1.08706  -1.01853  -1.00151  -0.99602  -0.98857
 Alpha  occ. eigenvalues --   -0.97208  -0.95907  -0.94124  -0.84123  -0.82077
 Alpha  occ. eigenvalues --   -0.82021  -0.81426  -0.81205  -0.81146  -0.80385
 Alpha  occ. eigenvalues --   -0.80082  -0.79687  -0.78977  -0.78688  -0.77996
 Alpha  occ. eigenvalues --   -0.76679  -0.75785  -0.75428  -0.74959  -0.74428
 Alpha  occ. eigenvalues --   -0.73478  -0.72823  -0.72175  -0.71334  -0.70962
 Alpha  occ. eigenvalues --   -0.70062  -0.69189  -0.68476  -0.67713  -0.67357
 Alpha  occ. eigenvalues --   -0.67092  -0.66198  -0.66089  -0.65605  -0.64689
 Alpha  occ. eigenvalues --   -0.63726  -0.62707  -0.62422  -0.61482  -0.60963
 Alpha  occ. eigenvalues --   -0.60894  -0.58528  -0.58307  -0.57830  -0.56960
 Alpha  occ. eigenvalues --   -0.56767  -0.56505  -0.56162  -0.55676  -0.55596
 Alpha  occ. eigenvalues --   -0.55310  -0.54948  -0.54220  -0.54106  -0.52845
 Alpha  occ. eigenvalues --   -0.51889  -0.51636  -0.51075  -0.50816  -0.50399
 Alpha  occ. eigenvalues --   -0.49567  -0.49413  -0.48642  -0.48259  -0.47937
 Alpha  occ. eigenvalues --   -0.47836  -0.47634  -0.47450  -0.47224  -0.47047
 Alpha  occ. eigenvalues --   -0.46847  -0.46649  -0.46500  -0.45943  -0.45767
 Alpha  occ. eigenvalues --   -0.45567  -0.45380  -0.45049  -0.44739  -0.44635
 Alpha  occ. eigenvalues --   -0.44383  -0.44200  -0.43817  -0.43768  -0.43684
 Alpha  occ. eigenvalues --   -0.43310  -0.43106  -0.42934  -0.42763  -0.42478
 Alpha  occ. eigenvalues --   -0.42180  -0.41923  -0.41578  -0.41367  -0.41215
 Alpha  occ. eigenvalues --   -0.40996  -0.40852  -0.40438  -0.40269  -0.39884
 Alpha  occ. eigenvalues --   -0.39834  -0.39672  -0.39440  -0.39256  -0.39102
 Alpha  occ. eigenvalues --   -0.39039  -0.38946  -0.38729  -0.38542  -0.38395
 Alpha  occ. eigenvalues --   -0.38294  -0.37868  -0.37680  -0.37641  -0.37489
 Alpha  occ. eigenvalues --   -0.37371  -0.37065  -0.36925  -0.36663  -0.36409
 Alpha  occ. eigenvalues --   -0.36327  -0.36228  -0.36136  -0.36005  -0.35727
 Alpha  occ. eigenvalues --   -0.35644  -0.35252  -0.35177  -0.35121  -0.35058
 Alpha  occ. eigenvalues --   -0.34612  -0.34369  -0.34142  -0.33898  -0.33816
 Alpha  occ. eigenvalues --   -0.33664  -0.33187  -0.33088  -0.32311  -0.32086
 Alpha  occ. eigenvalues --   -0.31970  -0.31911  -0.31521  -0.31443  -0.31343
 Alpha  occ. eigenvalues --   -0.30961  -0.30772  -0.30411  -0.30061  -0.29794
 Alpha  occ. eigenvalues --   -0.29624  -0.29288  -0.28310  -0.28098  -0.27942
 Alpha  occ. eigenvalues --   -0.27329  -0.27293  -0.26297  -0.25337  -0.25150
 Alpha  occ. eigenvalues --   -0.25016  -0.24698  -0.23776  -0.22994  -0.20212
 Alpha  occ. eigenvalues --   -0.17996
 Alpha virt. eigenvalues --   -0.09497  -0.07490  -0.04379  -0.02435  -0.00494
 Alpha virt. eigenvalues --    0.00312   0.00537   0.01397   0.01887   0.03365
 Alpha virt. eigenvalues --    0.03757   0.03844   0.04063   0.04761   0.04906

 Mulliken charges:
               1
     1  C   -0.042218
     2  C   -0.067614
     3  C   -0.134290
     4  C   -0.074808
     5  N   -0.183416
     6  C    0.001167
     7  C   -0.024662
     8  C   -0.113172
     9  C   -0.034781
    10  C    0.163582
    11  C    0.009524
    12  C    0.099587
    13  C    0.136692
    14  O   -0.173609
    15  O   -0.387649
    16  N   -0.099138
    17  C    0.120832
    18  C   -0.096120
    19  C    0.011184
    20  C    0.212684
    21  C    0.043528
    22  C   -0.040241
    23  C   -0.016776
    24  N   -0.109809
    25  C   -0.051670
    26  C   -0.120690
    27  C   -0.035665
    28  C    0.024650
    29  C    0.081904
    30  C   -0.049822
    31  C    0.037239
    32  N   -0.052330
    33  C    0.078614
    34  C   -0.129541
    35  C    0.090502
    36  C    0.092727
    37  C    0.046920
    38  C   -0.011724
    39  O   -0.169734
    40  C   -0.002206
    41  C    0.203194
    42  O   -0.259715
    43  O   -0.277483
    44  C    0.207816
    45  C    0.255274
    46  C   -0.073826
    47  C   -0.178306
    48  C    0.011872
    49  C    0.108325
    50  C   -0.031601
    51  C   -0.009111
    52  C   -0.073088
    53  C    0.036300
    54  C    0.001964
    55  C    0.009664
    56  C    0.048937
    57  C   -0.013221
    58  C   -0.071254
    59  C   -0.047029
    60  C   -0.009334
    61  C    0.044039
    62  C    0.009784
    63  C    0.042763
    64  C    0.020285
    65  H   -0.024260
    66  H   -0.016859
    67  H   -0.012373
    68  H    0.025367
    69  H    0.037418
    70  H    0.014373
    71  H   -0.009192
    72  H   -0.016539
    73  H    0.018663
    74  H    0.023803
    75  H    0.004201
    76  H    0.018744
    77  H    0.041435
    78  H    0.044499
    79  H    0.057037
    80  H    0.009893
    81  H    0.041097
    82  H   -0.037536
    83  H   -0.010602
    84  H    0.002272
    85  H   -0.010353
    86  H    0.024387
    87  H    0.018417
    88  H    0.013223
    89  H    0.026260
    90  H    0.008163
    91  H    0.026111
    92  H    0.033349
    93  H    0.049365
    94  H   -0.006237
    95  H    0.020531
    96  H    0.015828
    97  H    0.055759
    98  H    0.011190
    99  H    0.043036
   100  H    0.010628
   101  H    0.059769
   102  H    0.033235
   103  H    0.013614
   104  H    0.007939
   105  H    0.004985
   106  H    0.017348
   107  H    0.021186
   108  H   -0.010680
   109  H   -0.008350
   110  H   -0.015537
   111  H    0.005299
   112  H    0.014526
   113  H   -0.010042
   114  H    0.013852
   115  H    0.008245
   116  H    0.001922
   117  H   -0.033055
   118  H   -0.014462
   119  H    0.007469
   120  H   -0.000292
   121  H    0.032242
   122  H    0.021000
   123  H    0.024188
   124  H    0.016581
   125  H    0.020112
   126  H    0.018077
   127  H   -0.021920
   128  H    0.006410
   129  H   -0.015040
   130  H   -0.019154
   131  H   -0.024335
   132  H   -0.000336
   133  H    0.010054
   134  H   -0.044436
   135  H    0.004316
   136  H   -0.009000
   137  H    0.196339
   138  H    0.130934
 Sum of Mulliken charges =   0.00000

 Dipole moment (field-independent basis, Debye):
    X=              2.0523    Y=              5.2897    Z=              1.0549  Tot=              5.7711
 Quadrupole moment (field-independent basis, Debye-Ang):
   XX=           -362.5082   YY=           -380.9002   ZZ=           -392.6942
   XY=            -36.0509   XZ=              6.6957   YZ=              1.1971

 Normal termination of Gaussian 09 at Sun Aug  4 09:11:34 2019.
