 Gaussian 09, Revision D.01,
 Gaussian 09:  ES64L-G09RevD.01 24-Apr-2013

 --------------------------
 # td=(NStates=1) B3LYP/SVP
 --------------------------

 --
 TD
 --
 Symbolic Z-matrix:
 Charge =  0 Multiplicity = 1

                         Standard orientation:
 ---------------------------------------------------------------------
 Center     Atomic      Atomic             Coordinates (Angstroms)
 Number     Number       Type             X           Y           Z
 ---------------------------------------------------------------------
      1          6           0       -5.195460   -1.934301    0.392950
      2          6           0       -4.623346    2.661607    1.565023
      3          6           0       -9.154864    3.360046   -0.201308
      4          6           0       -9.779256   -1.323565   -1.050361
      5          7           0       -5.129835    0.443753    0.822301
      6          6           0       -4.540094   -0.808185    0.838729
      7          6           0       -3.061643   -0.716521    1.254423
      8          6           0       -2.981978    0.760468    1.819242
      9          6           0       -4.222280    1.313702    1.341094
     10          6           0       -2.750538    0.917339    3.323943
     11          6           0       -1.977622   -0.980475    0.158032
     12          6           0       -0.538327   -0.934029    0.550626
     13          6           0        0.383185   -1.197922   -0.579303
     14          8           0        0.066980   -1.684707   -1.711459
     15          8           0        1.690077   -0.973483   -0.241886
     16          7           0       -6.920048    2.862528    0.526633
     17          6           0       -5.745995    3.365207    1.088968
     18          6           0       -5.993786    4.742451    1.074616
     19          6           0       -7.383723    5.055196    0.598723
     20          6           0       -7.952207    3.762280    0.220182
     21          6           0       -5.137070    5.876424    1.561156
     22          6           0       -7.947721    6.336887    0.538856
     23          6           0       -8.845152    6.894608   -0.395595
     24          7           0       -9.243176    0.860623   -0.589467
     25          6           0       -9.757876    2.119935   -0.609983
     26          6           0      -11.181348    2.047195   -1.039359
     27          6           0      -11.405803    0.692894   -1.212485
     28          6           0      -10.146375   -0.030489   -0.888766
     29          6           0      -12.165689    3.118532   -1.026571
     30          6           0      -12.718774    0.012060   -1.745890
     31          6           0      -12.643072   -0.086489   -3.269724
     32          7           0       -7.544056   -1.184394   -0.297584
     33          6           0       -8.631890   -1.933506   -0.692479
     34          6           0       -8.298322   -3.394650   -0.728079
     35          6           0       -6.986510   -3.444428   -0.277134
     36          6           0       -6.487219   -2.029319    0.008123
     37          6           0       -9.083176   -4.585470   -0.932246
     38          6           0       -5.806689   -4.331895   -0.019231
     39          8           0       -5.836270   -5.513099   -0.146352
     40          6           0       -4.620329   -3.343937    0.403149
     41          6           0       -4.025153   -4.010561    1.737707
     42          8           0       -4.270919   -3.556377    2.827340
     43          8           0       -3.241562   -5.027942    1.627066
     44          6           0       -2.733512   -5.714438    2.814227
     45          6           0        2.645386   -1.200254   -1.253388
     46          6           0        3.990612   -0.915643   -0.653267
     47          6           0        4.966317   -0.021227   -1.053159
     48          6           0        4.719462    0.784311   -2.416416
     49          6           0        6.247877    0.151128   -0.341882
     50          6           0        7.531817   -0.513609   -0.976102
     51          6           0        8.808500   -0.223867   -0.131814
     52          6           0       10.025804   -0.676511   -0.890553
     53          6           0       10.129233   -2.151177   -1.110691
     54          6           0       11.258597   -0.285858    0.079134
     55          6           0       12.606820   -0.564317   -0.478514
     56          6           0       13.764691   -0.114618    0.328679
     57          6           0       15.141611   -0.181134   -0.358984
     58          6           0       15.604764   -1.693631   -0.461031
     59          6           0       16.207028    0.631432    0.355428
     60          6           0       17.612644    0.797194   -0.311015
     61          6           0       18.537089    1.623409    0.611078
     62          6           0       19.940208    1.737357    0.074600
     63          6           0       20.157491    2.419790   -1.251924
     64          6           0       20.734158    2.486857    1.159614
     65          1           0       -3.999833    3.375237    2.142744
     66          1           0       -9.991974    4.227094   -0.366953
     67          1           0      -10.701517   -2.055617   -1.150297
     68          1           0       -2.717539   -1.286199    2.204066
     69          1           0       -2.095816    1.509848    1.476387
     70          1           0       -1.707310    0.595046    3.721316
     71          1           0       -2.801265    1.966773    3.421171
     72          1           0       -3.507022    0.441388    3.829603
     73          1           0       -2.260475   -1.964262   -0.446892
     74          1           0       -2.148165   -0.182991   -0.558340
     75          1           0       -0.269765    0.165262    0.899280
     76          1           0       -0.486230   -1.715321    1.228964
     77          1           0       -4.194737    5.964634    0.908475
     78          1           0       -5.528700    6.841075    1.855028
     79          1           0       -4.801841    5.447061    2.662007
     80          1           0       -7.746446    7.074430    1.479708
     81          1           0       -9.034726    6.396718   -1.432430
     82          1           0       -9.306041    7.813579   -0.273371
     83          1           0      -12.289459    4.003214   -0.202391
     84          1           0      -12.029901    3.863197   -1.844772
     85          1           0      -13.213523    2.803135   -1.103062
     86          1           0      -12.708502   -1.047012   -1.144791
     87          1           0      -13.637984    0.556456   -1.400602
     88          1           0      -12.524897    0.841294   -3.831535
     89          1           0      -11.706595   -0.706259   -3.389683
     90          1           0      -13.376898   -0.653050   -3.681738
     91          1           0       -9.794637   -4.737021    0.132718
     92          1           0       -9.983862   -4.335570   -1.737094
     93          1           0       -8.186556   -5.265509   -1.311885
     94          1           0       -3.911136   -3.569287   -0.475747
     95          1           0       -2.031089   -6.494162    2.356426
     96          1           0       -2.098934   -4.820467    3.357303
     97          1           0       -3.435837   -5.918765    3.635464
     98          1           0        2.431619   -2.324888   -1.621120
     99          1           0        2.475430   -0.523819   -2.037453
    100          1           0        4.173320   -1.436695    0.360919
    101          1           0        4.727302    1.813176   -2.135240
    102          1           0        5.639140    0.656041   -3.285101
    103          1           0        3.706007    0.574955   -2.902224
    104          1           0        6.421119    1.169398   -0.415459
    105          1           0        5.948896   -0.023851    0.662945
    106          1           0        7.297239   -1.576820   -0.758890
    107          1           0        7.724579   -0.144805   -2.172662
    108          1           0        8.953819    0.872386   -0.161784
    109          1           0        8.502584   -0.386237    0.837125
    110          1           0       10.081598   -0.177887   -1.653516
    111          1           0        9.215177   -2.536062   -1.577560
    112          1           0       10.906960   -2.332359   -2.047451
    113          1           0       10.334664   -3.007045   -0.242602
    114          1           0       11.267068    0.846834    0.279405
    115          1           0       11.079333   -0.866469    0.960968
    116          1           0       12.666462   -1.687082   -0.777479
    117          1           0       12.722791   -0.164419   -1.470999
    118          1           0       13.508503    0.905245    0.499825
    119          1           0       13.953429   -0.594868    1.429739
    120          1           0       14.949365    0.311040   -1.414202
    121          1           0       14.937543   -2.278399   -1.074547
    122          1           0       16.475926   -1.760507   -0.800377
    123          1           0       15.688735   -2.251271    0.580671
    124          1           0       15.799737    1.763692    0.379433
    125          1           0       16.344664    0.170154    1.382317
    126          1           0       18.069310   -0.225482   -0.222375
    127          1           0       17.464802    1.296014   -1.282060
    128          1           0       18.265333    2.772845    0.553260
    129          1           0       18.579016    1.190567    1.628956
    130          1           0       20.636405    0.736528   -0.011215
    131          1           0       19.860073    3.356268   -1.168002
    132          1           0       21.243489    2.414300   -1.427740
    133          1           0       19.581210    2.032554   -2.089422
    134          1           0       20.930508    1.687036    2.017299
    135          1           0       21.796858    2.630943    0.773740
    136          1           0       20.129789    3.440334    1.712611
    137          1           0       -7.050903    1.843115    0.594529
    138          1           0       -7.559301   -0.108809   -0.180477
 ---------------------------------------------------------------------

 SCF Done:  E(RB3LYP) =  -2733.02744344     A.U. after   17 cycles

 Excitation energies and oscillator strengths:

 Excited State   1:      Singlet-A      2.0526 eV  604.03 nm  f=0.1375  <S**2>=0.000
     235 -> 238       -0.34173
     236 -> 237        0.61521
 This state for optimization and/or second-order correction.
 Total Energy, E(TD-HF/TD-KS) =  -2732.95201175
 Copying the excited state density for this state as the 1-particle RhoCI density.

 The electronic state is 1-A.
 Alpha  occ. eigenvalues --  -19.18505 -19.18044 -19.13078 -19.12545 -19.11250
 Alpha  occ. eigenvalues --  -14.37281 -14.36062 -14.32967 -14.29322 -10.32194
 Alpha  occ. eigenvalues --  -10.31742 -10.28507 -10.27144 -10.24870 -10.23818
 Alpha  occ. eigenvalues --  -10.23795 -10.23770 -10.23690 -10.23612 -10.23147
 Alpha  occ. eigenvalues --  -10.23071 -10.22967 -10.22160 -10.21714 -10.21684
 Alpha  occ. eigenvalues --  -10.21447 -10.21215 -10.21030 -10.21011 -10.20980
 Alpha  occ. eigenvalues --  -10.20933 -10.20823 -10.20800 -10.20772 -10.20761
 Alpha  occ. eigenvalues --  -10.20535 -10.20471 -10.20428 -10.20159 -10.20145
 Alpha  occ. eigenvalues --  -10.19839 -10.19802 -10.19800 -10.19731 -10.19589
 Alpha  occ. eigenvalues --  -10.19498 -10.19438 -10.19427 -10.19316 -10.18965
 Alpha  occ. eigenvalues --  -10.18957 -10.18783 -10.18658 -10.18584 -10.18483
 Alpha  occ. eigenvalues --  -10.18446 -10.18065 -10.18052 -10.18026 -10.17793
 Alpha  occ. eigenvalues --  -10.17434 -10.17366 -10.16703 -10.16375  -1.11266
 Alpha  occ. eigenvalues --   -1.08959  -1.04860  -0.99996  -0.98444  -0.97273
 Alpha  occ. eigenvalues --   -0.96529  -0.94591  -0.94005  -0.84896  -0.83150
 Alpha  occ. eigenvalues --   -0.82052  -0.81683  -0.81275  -0.81189  -0.80645
 Alpha  occ. eigenvalues --   -0.80315  -0.80100  -0.79707  -0.78849  -0.78136
 Alpha  occ. eigenvalues --   -0.76935  -0.76146  -0.75286  -0.74907  -0.74045
 Alpha  occ. eigenvalues --   -0.73969  -0.73179  -0.72349  -0.71726  -0.70427
 Alpha  occ. eigenvalues --   -0.69758  -0.69199  -0.68379  -0.68048  -0.67955
 Alpha  occ. eigenvalues --   -0.67587  -0.67205  -0.65913  -0.65692  -0.65300
 Alpha  occ. eigenvalues --   -0.64847  -0.63187  -0.62424  -0.61294  -0.61178
 Alpha  occ. eigenvalues --   -0.60864  -0.59185  -0.58804  -0.57702  -0.57568
 Alpha  occ. eigenvalues --   -0.57123  -0.56297  -0.56167  -0.56016  -0.54516
 Alpha  occ. eigenvalues --   -0.54157  -0.53964  -0.53252  -0.53234  -0.52865
 Alpha  occ. eigenvalues --   -0.52306  -0.51993  -0.51336  -0.51170  -0.50682
 Alpha  occ. eigenvalues --   -0.50247  -0.49057  -0.49042  -0.48665  -0.48550
 Alpha  occ. eigenvalues --   -0.48354  -0.47810  -0.47701  -0.47373  -0.47215
 Alpha  occ. eigenvalues --   -0.46801  -0.46456  -0.46412  -0.46238  -0.45794
 Alpha  occ. eigenvalues --   -0.45538  -0.45472  -0.44935  -0.44776  -0.44630
 Alpha  occ. eigenvalues --   -0.44174  -0.43858  -0.43748  -0.43588  -0.43278
 Alpha  occ. eigenvalues --   -0.43233  -0.42937  -0.42904  -0.42715  -0.42641
 Alpha  occ. eigenvalues --   -0.42307  -0.42214  -0.42060  -0.41550  -0.41314
 Alpha  occ. eigenvalues --   -0.41246  -0.40899  -0.40782  -0.40586  -0.40149
 Alpha  occ. eigenvalues --   -0.40100  -0.39852  -0.39697  -0.39658  -0.39486
 Alpha  occ. eigenvalues --   -0.39198  -0.38717  -0.38625  -0.38576  -0.38305
 Alpha  occ. eigenvalues --   -0.38068  -0.37983  -0.37887  -0.37560  -0.37453
 Alpha  occ. eigenvalues --   -0.37253  -0.37050  -0.36933  -0.36764  -0.36708
 Alpha  occ. eigenvalues --   -0.36324  -0.36159  -0.35892  -0.35805  -0.35694
 Alpha  occ. eigenvalues --   -0.35571  -0.35228  -0.35009  -0.34930  -0.34850
 Alpha  occ. eigenvalues --   -0.34589  -0.34527  -0.34046  -0.33962  -0.33900
 Alpha  occ. eigenvalues --   -0.33694  -0.33155  -0.33140  -0.32931  -0.32561
 Alpha  occ. eigenvalues --   -0.32312  -0.32007  -0.31636  -0.31527  -0.31319
 Alpha  occ. eigenvalues --   -0.30788  -0.30241  -0.30087  -0.30005  -0.29766
 Alpha  occ. eigenvalues --   -0.29530  -0.29392  -0.28623  -0.28614  -0.28405
 Alpha  occ. eigenvalues --   -0.27817  -0.27250  -0.26403  -0.26085  -0.25609
 Alpha  occ. eigenvalues --   -0.25092  -0.24356  -0.22408  -0.22254  -0.19930
 Alpha  occ. eigenvalues --   -0.19036
 Alpha virt. eigenvalues --   -0.10132  -0.08287  -0.04961  -0.02323  -0.01578
 Alpha virt. eigenvalues --   -0.00679   0.00136   0.00819   0.01796   0.03043
 Alpha virt. eigenvalues --    0.03102   0.03415   0.03922   0.04084   0.04486

 Mulliken charges:
               1
     1  C    0.059125
     2  C   -0.078641
     3  C   -0.094702
     4  C   -0.091415
     5  N   -0.194454
     6  C   -0.049808
     7  C    0.009071
     8  C   -0.120705
     9  C    0.046146
    10  C    0.101131
    11  C   -0.006565
    12  C    0.108893
    13  C    0.179449
    14  O   -0.287053
    15  O   -0.313444
    16  N   -0.131093
    17  C    0.097945
    18  C   -0.120082
    19  C    0.087619
    20  C    0.133475
    21  C    0.027512
    22  C   -0.144578
    23  C   -0.043600
    24  N   -0.203158
    25  C    0.006621
    26  C   -0.060905
    27  C   -0.098697
    28  C    0.019932
    29  C    0.021353
    30  C   -0.003589
    31  C    0.078773
    32  N   -0.085409
    33  C    0.095226
    34  C   -0.111594
    35  C   -0.014919
    36  C    0.076483
    37  C   -0.056096
    38  C    0.049331
    39  O   -0.140276
    40  C   -0.068853
    41  C    0.173917
    42  O   -0.242796
    43  O   -0.257274
    44  C    0.139489
    45  C    0.299319
    46  C   -0.115875
    47  C   -0.161632
    48  C   -0.010786
    49  C    0.152868
    50  C   -0.039082
    51  C    0.075657
    52  C    0.104002
    53  C   -0.044103
    54  C    0.025212
    55  C    0.048802
    56  C    0.058762
    57  C   -0.092761
    58  C    0.120049
    59  C   -0.031952
    60  C    0.069239
    61  C    0.010567
    62  C   -0.157867
    63  C    0.123325
    64  C   -0.042940
    65  H   -0.027030
    66  H    0.017381
    67  H    0.004547
    68  H    0.020803
    69  H    0.017417
    70  H    0.027529
    71  H   -0.005648
    72  H    0.006984
    73  H    0.040583
    74  H   -0.003641
    75  H    0.055091
    76  H    0.016196
    77  H    0.046615
    78  H    0.021126
    79  H    0.029506
    80  H    0.039717
    81  H    0.046682
    82  H    0.008537
    83  H    0.032005
    84  H    0.007990
    85  H    0.006190
    86  H    0.020127
    87  H    0.008337
    88  H    0.020418
    89  H    0.004263
    90  H   -0.015654
    91  H    0.081920
    92  H    0.044951
    93  H    0.098040
    94  H    0.072735
    95  H    0.070681
    96  H    0.035417
    97  H    0.059619
    98  H    0.045677
    99  H   -0.022709
   100  H   -0.000493
   101  H    0.016499
   102  H    0.045244
   103  H    0.029923
   104  H   -0.041319
   105  H   -0.007965
   106  H    0.017053
   107  H    0.033586
   108  H   -0.023130
   109  H   -0.029752
   110  H   -0.110942
   111  H    0.001125
   112  H    0.019577
   113  H    0.042316
   114  H   -0.005558
   115  H   -0.011717
   116  H   -0.007437
   117  H   -0.035456
   118  H   -0.035440
   119  H    0.000733
   120  H   -0.009591
   121  H    0.001009
   122  H   -0.066773
   123  H    0.004108
   124  H   -0.000389
   125  H   -0.001903
   126  H    0.005524
   127  H    0.005985
   128  H    0.005274
   129  H    0.003901
   130  H   -0.000787
   131  H   -0.045494
   132  H    0.003554
   133  H    0.004409
   134  H    0.012876
   135  H    0.011003
   136  H    0.034442
   137  H    0.139797
   138  H    0.181212
 Sum of Mulliken charges =   0.00000

 Dipole moment (field-independent basis, Debye):
    X=              2.9300    Y=              3.0489    Z=              1.4821  Tot=              4.4807
 Quadrupole moment (field-independent basis, Debye-Ang):
   XX=           -371.1780   YY=           -382.6950   ZZ=           -396.3070
   XY=            -17.4939   XZ=             -1.0557   YZ=             -6.6364

 Normal termination of Gaussian 09 at Sun Aug  4 15:31:05 2019.
