 Gaussian 09, Revision D.01,
 Gaussian 09:  ES64L-G09RevD.01 24-Apr-2013

 --------------------------
 # td=(NStates=1) B3LYP/SVP
 --------------------------

 --
 TD
 --
 Symbolic Z-matrix:
 Charge =  0 Multiplicity = 1

                         Standard orientation:
 ---------------------------------------------------------------------
 Center     Atomic      Atomic             Coordinates (Angstroms)
 Number     Number       Type             X           Y           Z
 ---------------------------------------------------------------------
      1          6           0       -5.017953   -1.877184    0.445742
      2          6           0       -4.785706    2.916880    1.236184
      3          6           0       -9.550154    3.188824   -0.157950
      4          6           0       -9.878477   -1.620967   -0.964994
      5          7           0       -5.149584    0.488363    0.712785
      6          6           0       -4.486544   -0.660998    0.807212
      7          6           0       -3.033073   -0.384772    1.186522
      8          6           0       -3.000755    1.004238    1.711233
      9          6           0       -4.421310    1.548268    1.198525
     10          6           0       -2.920189    1.274350    3.172269
     11          6           0       -2.098729   -0.631948    0.084391
     12          6           0       -0.588670   -0.544072    0.473695
     13          6           0        0.380573   -0.870085   -0.645749
     14          8           0        0.039852   -1.254273   -1.766935
     15          8           0        1.670487   -0.760754   -0.300607
     16          7           0       -7.150861    2.702069    0.502186
     17          6           0       -6.056058    3.388025    0.889143
     18          6           0       -6.453630    4.831529    0.859313
     19          6           0       -7.693819    4.820528    0.404814
     20          6           0       -8.250351    3.514916    0.156602
     21          6           0       -5.608996    5.853017    1.358801
     22          6           0       -8.450958    6.086793    0.306109
     23          6           0       -9.243040    6.531076   -0.654906
     24          7           0       -9.360346    0.725373   -0.378002
     25          6           0      -10.064730    1.969630   -0.410833
     26          6           0      -11.367790    1.615446   -0.932147
     27          6           0      -11.534348    0.347277   -1.091308
     28          6           0      -10.197410   -0.217036   -0.834820
     29          6           0      -12.579891    2.647063   -1.095334
     30          6           0      -12.607331   -0.568516   -1.627770
     31          6           0      -12.501909   -0.771259   -3.180818
     32          7           0       -7.452095   -1.301185   -0.222751
     33          6           0       -8.588338   -2.071689   -0.614556
     34          6           0       -8.135432   -3.438624   -0.550060
     35          6           0       -6.817816   -3.364134   -0.195800
     36          6           0       -6.361793   -2.032209    0.043895
     37          6           0       -8.880806   -4.811471   -0.702549
     38          6           0       -5.583407   -4.235813    0.187117
     39          8           0       -5.517818   -5.418012    0.218003
     40          6           0       -4.489167   -3.316767    0.500986
     41          6           0       -3.942267   -3.585162    1.918583
     42          8           0       -4.135419   -2.985846    2.962819
     43          8           0       -2.969769   -4.560057    1.799604
     44          6           0       -2.298379   -5.115871    2.934222
     45          6           0        2.614285   -1.027551   -1.298975
     46          6           0        4.001747   -0.745211   -0.606474
     47          6           0        4.971673    0.043813   -1.164505
     48          6           0        4.831662    0.905378   -2.498808
     49          6           0        6.254490    0.152595   -0.453666
     50          6           0        7.548957   -0.642998   -1.086325
     51          6           0        8.780253   -0.426641   -0.298668
     52          6           0       10.176598   -0.895776   -0.826789
     53          6           0       10.251241   -2.370461   -1.054915
     54          6           0       11.368228   -0.207256   -0.045910
     55          6           0       12.720300   -0.569813   -0.614568
     56          6           0       13.954690    0.034866    0.194069
     57          6           0       15.363048   -0.135879   -0.504690
     58          6           0       15.638557   -1.679238   -0.726586
     59          6           0       16.345525    0.614737    0.471983
     60          6           0       17.694959    0.750268   -0.151065
     61          6           0       18.610519    1.624838    0.754221
     62          6           0       20.204837    1.679564    0.299939
     63          6           0       20.382605    2.175997   -1.081179
     64          6           0       20.960679    2.353157    1.406283
     65          1           0       -3.950312    3.538453    1.597730
     66          1           0      -10.168971    3.953442   -0.279595
     67          1           0      -10.765573   -2.401736   -0.960501
     68          1           0       -2.656569   -1.114867    1.976850
     69          1           0       -2.397837    1.814898    1.234440
     70          1           0       -1.862537    0.850472    3.543577
     71          1           0       -2.599904    2.408654    3.538651
     72          1           0       -3.772840    0.633084    3.740643
     73          1           0       -2.191840   -1.712080   -0.344787
     74          1           0       -2.196745    0.149706   -0.699203
     75          1           0       -0.153115    0.348135    0.921955
     76          1           0       -0.244311   -1.301060    1.203965
     77          1           0       -4.617531    5.766045    0.964017
     78          1           0       -5.950601    6.863306    0.673274
     79          1           0       -5.357522    5.890070    2.532767
     80          1           0       -8.090043    6.803945    1.205780
     81          1           0       -9.357365    5.753918   -1.449144
     82          1           0       -9.920406    7.629437   -0.631308
     83          1           0      -12.521118    3.565101   -0.384689
     84          1           0      -12.588144    3.311674   -2.029915
     85          1           0      -13.304207    2.126804   -0.862507
     86          1           0      -12.533940   -1.546580   -0.981009
     87          1           0      -13.510074    0.018527   -1.495528
     88          1           0      -12.735358    0.182214   -3.624651
     89          1           0      -11.478065   -1.337118   -3.461504
     90          1           0      -13.372515   -1.334913   -3.563078
     91          1           0       -9.594755   -4.925740    0.154638
     92          1           0       -9.509024   -4.767230   -1.651087
     93          1           0       -8.002413   -5.675005   -0.895607
     94          1           0       -3.535316   -3.556939   -0.169883
     95          1           0       -1.439574   -5.657364    2.410925
     96          1           0       -1.906003   -4.223926    3.604384
     97          1           0       -2.962506   -5.503154    3.472131
     98          1           0        2.586043   -2.016769   -1.656812
     99          1           0        2.456774   -0.282575   -2.137622
    100          1           0        4.329426   -1.428127    0.144070
    101          1           0        5.308643    1.949829   -2.538556
    102          1           0        5.292325    0.312696   -3.389115
    103          1           0        3.593738    0.881683   -2.410027
    104          1           0        6.419079    1.128172   -0.321342
    105          1           0        6.188924   -0.302905    0.477065
    106          1           0        7.411885   -1.736425   -0.924858
    107          1           0        7.629331   -0.276125   -2.130508
    108          1           0        8.745526    0.749222   -0.065371
    109          1           0        8.813510   -0.412831    0.826116
    110          1           0       10.083101   -0.210729   -1.864631
    111          1           0        9.335721   -2.813224   -1.545456
    112          1           0       11.085993   -2.732297   -1.932269
    113          1           0       10.325246   -2.736037   -0.011803
    114          1           0       11.230261    0.868701   -0.118110
    115          1           0       11.482032   -0.711236    0.948134
    116          1           0       12.609932   -1.827296   -0.374765
    117          1           0       12.946366   -0.474699   -1.734694
    118          1           0       13.788670    0.954767    0.101744
    119          1           0       14.093562   -0.369698    1.202221
    120          1           0       15.347053    0.536017   -1.496614
    121          1           0       14.818832   -2.154692   -1.596938
    122          1           0       16.597957   -1.847063   -1.154851
    123          1           0       15.499191   -2.213607    0.265553
    124          1           0       15.767379    1.780965    0.714737
    125          1           0       16.247702    0.121020    1.367091
    126          1           0       18.228794   -0.128120   -0.327216
    127          1           0       17.755394    1.260883   -1.052810
    128          1           0       18.503679    2.843072    0.897357
    129          1           0       18.459524    1.322250    1.840267
    130          1           0       20.223815    0.542918    0.230070
    131          1           0       19.642802    3.097495   -1.264605
    132          1           0       21.498223    2.405251   -1.217159
    133          1           0       19.993535    1.372858   -1.850899
    134          1           0       21.135341    1.729135    2.352392
    135          1           0       22.033921    2.626965    1.180212
    136          1           0       20.466012    3.373926    1.694114
    137          1           0       -7.311638    1.683009    0.499937
    138          1           0       -7.722231   -0.209411   -0.093206
 ---------------------------------------------------------------------

 SCF Done:  E(RB3LYP) =  -2732.93815961     A.U. after   17 cycles

 Excitation energies and oscillator strengths:

 Excited State   1:      Singlet-A      2.0911 eV  592.92 nm  f=0.1900  <S**2>=0.000
     235 -> 237       -0.10331
     235 -> 238        0.27894
     236 -> 237        0.63633
 This state for optimization and/or second-order correction.
 Total Energy, E(TD-HF/TD-KS) =  -2732.86131382
 Copying the excited state density for this state as the 1-particle RhoCI density.

 The electronic state is 1-A.
 Alpha  occ. eigenvalues --  -19.17927 -19.17109 -19.13538 -19.12436 -19.11686
 Alpha  occ. eigenvalues --  -14.37537 -14.36565 -14.31902 -14.30367 -10.32533
 Alpha  occ. eigenvalues --  -10.31290 -10.27843 -10.24931 -10.24483 -10.24280
 Alpha  occ. eigenvalues --  -10.23618 -10.23488 -10.23202 -10.23193 -10.23031
 Alpha  occ. eigenvalues --  -10.22672 -10.21771 -10.21646 -10.21504 -10.21399
 Alpha  occ. eigenvalues --  -10.21288 -10.21203 -10.21050 -10.20888 -10.20861
 Alpha  occ. eigenvalues --  -10.20644 -10.20617 -10.20602 -10.20601 -10.20525
 Alpha  occ. eigenvalues --  -10.20493 -10.20306 -10.20214 -10.20052 -10.20022
 Alpha  occ. eigenvalues --  -10.19987 -10.19966 -10.19852 -10.19730 -10.19615
 Alpha  occ. eigenvalues --  -10.19585 -10.19563 -10.19514 -10.19352 -10.19344
 Alpha  occ. eigenvalues --  -10.19307 -10.19220 -10.19215 -10.19131 -10.18886
 Alpha  occ. eigenvalues --  -10.18881 -10.18817 -10.18384 -10.18228 -10.18191
 Alpha  occ. eigenvalues --  -10.17709 -10.17451 -10.17197 -10.16794  -1.10202
 Alpha  occ. eigenvalues --   -1.08489  -1.04693  -1.00558  -0.99559  -0.98194
 Alpha  occ. eigenvalues --   -0.97167  -0.94318  -0.93139  -0.84979  -0.82746
 Alpha  occ. eigenvalues --   -0.82243  -0.81944  -0.81611  -0.81406  -0.80540
 Alpha  occ. eigenvalues --   -0.79426  -0.79272  -0.79126  -0.78942  -0.77830
 Alpha  occ. eigenvalues --   -0.76956  -0.76253  -0.75949  -0.74891  -0.74516
 Alpha  occ. eigenvalues --   -0.73881  -0.73403  -0.72274  -0.71310  -0.70832
 Alpha  occ. eigenvalues --   -0.69891  -0.69469  -0.68562  -0.67835  -0.67619
 Alpha  occ. eigenvalues --   -0.67114  -0.67075  -0.65935  -0.65556  -0.65135
 Alpha  occ. eigenvalues --   -0.64292  -0.62175  -0.61910  -0.61306  -0.61165
 Alpha  occ. eigenvalues --   -0.60811  -0.59521  -0.58601  -0.58247  -0.57173
 Alpha  occ. eigenvalues --   -0.56525  -0.56358  -0.56239  -0.55869  -0.54550
 Alpha  occ. eigenvalues --   -0.53801  -0.53752  -0.53324  -0.53047  -0.52719
 Alpha  occ. eigenvalues --   -0.52478  -0.52226  -0.51171  -0.50911  -0.50474
 Alpha  occ. eigenvalues --   -0.50033  -0.49495  -0.49128  -0.48897  -0.48394
 Alpha  occ. eigenvalues --   -0.48067  -0.47841  -0.47315  -0.47097  -0.46899
 Alpha  occ. eigenvalues --   -0.46698  -0.46502  -0.46102  -0.46035  -0.45572
 Alpha  occ. eigenvalues --   -0.45227  -0.45001  -0.44918  -0.44868  -0.44669
 Alpha  occ. eigenvalues --   -0.44577  -0.44440  -0.44198  -0.44070  -0.44038
 Alpha  occ. eigenvalues --   -0.43224  -0.43166  -0.43059  -0.42833  -0.42592
 Alpha  occ. eigenvalues --   -0.42178  -0.41960  -0.41616  -0.41427  -0.41386
 Alpha  occ. eigenvalues --   -0.41069  -0.40838  -0.40649  -0.40540  -0.40296
 Alpha  occ. eigenvalues --   -0.40216  -0.40028  -0.40006  -0.39975  -0.39818
 Alpha  occ. eigenvalues --   -0.39399  -0.39113  -0.39078  -0.38801  -0.38673
 Alpha  occ. eigenvalues --   -0.38532  -0.38275  -0.38165  -0.38072  -0.37616
 Alpha  occ. eigenvalues --   -0.37425  -0.37289  -0.37199  -0.36539  -0.36258
 Alpha  occ. eigenvalues --   -0.36002  -0.35859  -0.35753  -0.35606  -0.35520
 Alpha  occ. eigenvalues --   -0.35304  -0.35118  -0.35045  -0.34916  -0.34827
 Alpha  occ. eigenvalues --   -0.34473  -0.34461  -0.33995  -0.33783  -0.33335
 Alpha  occ. eigenvalues --   -0.33148  -0.32767  -0.32473  -0.32126  -0.32045
 Alpha  occ. eigenvalues --   -0.31963  -0.31844  -0.31569  -0.31364  -0.31178
 Alpha  occ. eigenvalues --   -0.30545  -0.30541  -0.30161  -0.30050  -0.29411
 Alpha  occ. eigenvalues --   -0.29184  -0.28690  -0.27959  -0.27383  -0.27105
 Alpha  occ. eigenvalues --   -0.26837  -0.26430  -0.26417  -0.25822  -0.25569
 Alpha  occ. eigenvalues --   -0.25066  -0.24598  -0.24534  -0.23553  -0.20325
 Alpha  occ. eigenvalues --   -0.18742
 Alpha virt. eigenvalues --   -0.10085  -0.07443  -0.03677  -0.01741  -0.00551
 Alpha virt. eigenvalues --   -0.00449   0.00555   0.00574   0.02070   0.03007
 Alpha virt. eigenvalues --    0.03061   0.03864   0.03996   0.04284   0.04398

 Mulliken charges:
               1
     1  C    0.030007
     2  C   -0.065104
     3  C   -0.013555
     4  C   -0.101354
     5  N   -0.160016
     6  C   -0.065749
     7  C    0.026888
     8  C   -0.038382
     9  C   -0.056434
    10  C   -0.022259
    11  C    0.063635
    12  C    0.033663
    13  C    0.141264
    14  O   -0.265378
    15  O   -0.289397
    16  N   -0.069782
    17  C    0.143158
    18  C   -0.102829
    19  C    0.009436
    20  C    0.122189
    21  C    0.035875
    22  C   -0.093133
    23  C   -0.075564
    24  N   -0.290903
    25  C    0.104523
    26  C   -0.132317
    27  C   -0.088181
    28  C    0.014936
    29  C    0.137854
    30  C    0.071160
    31  C    0.004315
    32  N   -0.125164
    33  C    0.083531
    34  C   -0.167740
    35  C   -0.052537
    36  C    0.093342
    37  C    0.026419
    38  C    0.092246
    39  O   -0.131322
    40  C   -0.050850
    41  C    0.212141
    42  O   -0.218368
    43  O   -0.344735
    44  C    0.247764
    45  C    0.268365
    46  C   -0.074369
    47  C   -0.155342
    48  C   -0.039935
    49  C    0.141376
    50  C    0.073445
    51  C   -0.050728
    52  C   -0.097838
    53  C    0.005997
    54  C    0.076879
    55  C   -0.093159
    56  C    0.166448
    57  C   -0.159801
    58  C    0.003542
    59  C   -0.002787
    60  C    0.189009
    61  C   -0.116533
    62  C   -0.105062
    63  C   -0.013413
    64  C    0.014776
    65  H   -0.023234
    66  H   -0.108965
    67  H    0.037515
    68  H    0.006203
    69  H   -0.000200
    70  H    0.009799
    71  H    0.035088
    72  H    0.061039
    73  H    0.033745
    74  H    0.014543
    75  H    0.018150
    76  H    0.017566
    77  H    0.007012
    78  H    0.044211
    79  H    0.059385
    80  H    0.032490
    81  H    0.033089
    82  H    0.069209
    83  H    0.004559
    84  H    0.026424
    85  H   -0.049711
    86  H    0.027339
    87  H   -0.015422
    88  H    0.008477
    89  H    0.048153
    90  H    0.007183
    91  H    0.048054
    92  H    0.027174
    93  H    0.082602
    94  H    0.096601
    95  H    0.063180
    96  H    0.025639
    97  H   -0.029301
    98  H    0.016152
    99  H    0.017721
   100  H   -0.011037
   101  H    0.041357
   102  H    0.056817
   103  H    0.054697
   104  H   -0.030006
   105  H   -0.031984
   106  H    0.010652
   107  H    0.008190
   108  H   -0.031566
   109  H   -0.024653
   110  H   -0.005835
   111  H    0.018775
   112  H    0.046754
   113  H    0.017169
   114  H   -0.002376
   115  H    0.003547
   116  H    0.004481
   117  H    0.014707
   118  H   -0.073876
   119  H   -0.002988
   120  H    0.004281
   121  H    0.036636
   122  H    0.008768
   123  H    0.022558
   124  H    0.016004
   125  H   -0.027983
   126  H   -0.022023
   127  H   -0.027762
   128  H    0.000690
   129  H    0.001845
   130  H   -0.000051
   131  H    0.020964
   132  H    0.032357
   133  H    0.025694
   134  H    0.021149
   135  H    0.002912
   136  H    0.019243
   137  H    0.148040
   138  H    0.198223
 Sum of Mulliken charges =   0.00000

 Dipole moment (field-independent basis, Debye):
    X=              2.6684    Y=              2.7742    Z=              1.2622  Tot=              4.0508
 Quadrupole moment (field-independent basis, Debye-Ang):
   XX=           -352.8180   YY=           -385.6454   ZZ=           -398.9284
   XY=            -22.5519   XZ=              8.6153   YZ=             -2.5264

 Normal termination of Gaussian 09 at Sun Aug  4 06:19:39 2019.
