 Gaussian 09, Revision D.01,
 Gaussian 09:  ES64L-G09RevD.01 24-Apr-2013

 --------------------------
 # td=(NStates=1) B3LYP/SVP
 --------------------------

 --
 TD
 --
 Symbolic Z-matrix:
 Charge =  0 Multiplicity = 1

                         Standard orientation:
 ---------------------------------------------------------------------
 Center     Atomic      Atomic             Coordinates (Angstroms)
 Number     Number       Type             X           Y           Z
 ---------------------------------------------------------------------
      1          6           0       -5.095705   -1.939656    0.391017
      2          6           0       -4.643758    2.755869    1.587440
      3          6           0       -9.166543    3.391100   -0.292542
      4          6           0       -9.849954   -1.325554   -1.025823
      5          7           0       -5.113732    0.393411    0.850116
      6          6           0       -4.530952   -0.806402    0.879233
      7          6           0       -3.054521   -0.645276    1.378298
      8          6           0       -3.039927    0.882243    1.910951
      9          6           0       -4.395085    1.462200    1.399695
     10          6           0       -2.959446    0.916185    3.335231
     11          6           0       -2.117962   -0.929149    0.097513
     12          6           0       -0.619421   -0.984438    0.522491
     13          6           0        0.377168   -1.322616   -0.543122
     14          8           0        0.118332   -1.836284   -1.648737
     15          8           0        1.673102   -1.167783   -0.212775
     16          7           0       -6.921197    2.841514    0.478748
     17          6           0       -5.839188    3.416206    1.141687
     18          6           0       -6.123650    4.799158    1.266694
     19          6           0       -7.363159    4.935365    0.573439
     20          6           0       -7.899053    3.758478    0.194013
     21          6           0       -5.183713    5.918661    1.764236
     22          6           0       -8.083389    6.300325    0.429110
     23          6           0       -8.813695    6.761112   -0.559887
     24          7           0       -9.058360    0.856391   -0.653575
     25          6           0       -9.665138    2.191027   -0.592545
     26          6           0      -11.129113    1.967973   -1.130808
     27          6           0      -11.341748    0.719520   -1.313695
     28          6           0      -10.040837   -0.014718   -0.997796
     29          6           0      -12.124111    3.124032   -1.286277
     30          6           0      -12.586500   -0.056739   -1.710549
     31          6           0      -12.605884   -0.414128   -3.202789
     32          7           0       -7.464681   -1.193423   -0.323637
     33          6           0       -8.587517   -1.982917   -0.607573
     34          6           0       -8.132471   -3.351176   -0.622684
     35          6           0       -6.840570   -3.371485   -0.325302
     36          6           0       -6.451340   -1.973430   -0.056731
     37          6           0       -9.136210   -4.536094   -0.975645
     38          6           0       -5.727876   -4.288570    0.017695
     39          8           0       -5.853088   -5.501510   -0.039089
     40          6           0       -4.577813   -3.428591    0.533157
     41          6           0       -4.148356   -3.884505    1.919445
     42          8           0       -4.256021   -3.335835    2.986735
     43          8           0       -3.409110   -5.007580    1.676360
     44          6           0       -2.834236   -5.629192    2.831085
     45          6           0        2.714363   -1.404889   -1.107238
     46          6           0        3.940443   -0.812930   -0.602031
     47          6           0        4.801489    0.015717   -1.178706
     48          6           0        4.796231    0.674073   -2.525722
     49          6           0        6.123758    0.214598   -0.427255
     50          6           0        7.420903   -0.283232   -1.067153
     51          6           0        8.681797   -0.090735   -0.290063
     52          6           0       10.049373   -0.623801   -0.902837
     53          6           0       10.020073   -2.145110   -0.916641
     54          6           0       11.273263   -0.127970   -0.090846
     55          6           0       12.672698   -0.409896   -0.720128
     56          6           0       13.765707    0.167206    0.099659
     57          6           0       15.150996   -0.036649   -0.452407
     58          6           0       15.606912   -1.568620   -0.572191
     59          6           0       16.121661    0.708548    0.419215
     60          6           0       17.669801    0.728616   -0.133312
     61          6           0       18.657036    1.627963    0.670077
     62          6           0       20.130314    1.511301    0.179234
     63          6           0       20.325514    1.989473   -1.195378
     64          6           0       20.950347    2.322293    1.205709
     65          1           0       -4.287076    3.455964    2.399381
     66          1           0       -9.997927    4.025735   -0.463382
     67          1           0      -10.697576   -1.858395   -1.381796
     68          1           0       -2.877772   -1.283176    2.215124
     69          1           0       -2.238043    1.420056    1.311435
     70          1           0       -2.074884    0.392802    3.786416
     71          1           0       -2.856461    1.956049    3.656241
     72          1           0       -3.802290    0.681717    3.815802
     73          1           0       -2.375527   -1.795477   -0.318286
     74          1           0       -2.281609   -0.131111   -0.778600
     75          1           0       -0.226896   -0.147074    1.020637
     76          1           0       -0.657382   -1.870197    1.164150
     77          1           0       -4.393429    6.141359    0.952021
     78          1           0       -5.797932    6.837901    2.029849
     79          1           0       -4.598932    5.294827    2.779402
     80          1           0       -8.156687    7.098609    1.358338
     81          1           0       -8.903550    6.060792   -1.402701
     82          1           0       -9.625728    7.661258   -0.521025
     83          1           0      -12.322480    4.055114   -0.557638
     84          1           0      -11.999317    3.772361   -2.155772
     85          1           0      -13.146199    2.595979   -1.724730
     86          1           0      -12.715041   -0.868682   -0.973395
     87          1           0      -13.354805    0.705308   -1.318965
     88          1           0      -12.116190    0.632264   -3.693609
     89          1           0      -11.807258   -1.262462   -3.542256
     90          1           0      -13.743730   -0.582408   -3.711305
     91          1           0       -9.663716   -4.512324    0.134554
     92          1           0       -9.910634   -4.357999   -2.083641
     93          1           0       -8.435548   -5.359866   -1.321993
     94          1           0       -3.649837   -3.518500   -0.067665
     95          1           0       -2.250371   -6.415846    2.407340
     96          1           0       -2.260187   -4.827399    3.534875
     97          1           0       -3.786578   -5.906146    3.507987
     98          1           0        3.036137   -2.542649   -1.403341
     99          1           0        2.427997   -1.027737   -2.141202
    100          1           0        4.392165   -1.063689    0.582503
    101          1           0        5.389663    1.619129   -2.503590
    102          1           0        5.434252    0.126297   -3.193143
    103          1           0        3.676443    0.574369   -2.924086
    104          1           0        6.402059    1.336925   -0.412709
    105          1           0        6.049589   -0.179020    0.662448
    106          1           0        7.468196   -1.298876   -1.289855
    107          1           0        7.518019   -0.004066   -2.134707
    108          1           0        8.867493    0.930426   -0.111372
    109          1           0        8.470751   -0.636363    0.477346
    110          1           0       10.325262   -0.080687   -1.861721
    111          1           0        9.197727   -2.648975   -1.510215
    112          1           0       10.882524   -2.721982   -1.424175
    113          1           0        9.654588   -2.502996    0.246143
    114          1           0       11.009931    1.004423    0.218206
    115          1           0       10.868215   -0.511682    1.019161
    116          1           0       13.036442   -1.416742   -0.678390
    117          1           0       12.698621   -0.162567   -1.803455
    118          1           0       13.548846    1.164659    0.120463
    119          1           0       13.478386   -0.206146    1.172609
    120          1           0       14.983910    0.613947   -1.496779
    121          1           0       14.959246   -2.288938   -1.055840
    122          1           0       16.573354   -1.625679   -0.879157
    123          1           0       15.772448   -1.917521    0.442767
    124          1           0       15.779818    1.743843    0.734633
    125          1           0       16.312501    0.259907    1.472566
    126          1           0       18.092526   -0.263685    0.030034
    127          1           0       17.662513    1.144962   -1.188271
    128          1           0       18.255203    2.602905    0.526738
    129          1           0       18.546915    1.359105    1.750808
    130          1           0       20.526055    0.395860    0.290165
    131          1           0       20.258021    2.990250   -1.202674
    132          1           0       21.264309    1.963365   -1.390521
    133          1           0       19.747812    1.305119   -1.888985
    134          1           0       20.709623    1.938614    2.284483
    135          1           0       22.140653    2.193717    0.927739
    136          1           0       20.761514    3.539233    1.226349
    137          1           0       -7.126535    1.776161    0.249252
    138          1           0       -7.567583   -0.292219   -0.482443
 ---------------------------------------------------------------------

 SCF Done:  E(RB3LYP) =  -2732.92373772     A.U. after   17 cycles

 Excitation energies and oscillator strengths:

 Excited State   1:      Singlet-A      2.0689 eV  599.26 nm  f=0.2691  <S**2>=0.000
     235 -> 238       -0.24553
     236 -> 237        0.66361
 This state for optimization and/or second-order correction.
 Total Energy, E(TD-HF/TD-KS) =  -2732.84770526
 Copying the excited state density for this state as the 1-particle RhoCI density.

 The electronic state is 1-A.
 Alpha  occ. eigenvalues --  -19.18388 -19.18083 -19.14329 -19.12961 -19.11625
 Alpha  occ. eigenvalues --  -14.37123 -14.36678 -14.31888 -14.31137 -10.32885
 Alpha  occ. eigenvalues --  -10.31791 -10.28753 -10.26299 -10.26121 -10.24514
 Alpha  occ. eigenvalues --  -10.24252 -10.23574 -10.23330 -10.23044 -10.22963
 Alpha  occ. eigenvalues --  -10.22898 -10.22880 -10.22839 -10.22595 -10.22441
 Alpha  occ. eigenvalues --  -10.21687 -10.21548 -10.21518 -10.21104 -10.20933
 Alpha  occ. eigenvalues --  -10.20737 -10.20712 -10.20616 -10.20447 -10.20446
 Alpha  occ. eigenvalues --  -10.20208 -10.20139 -10.20099 -10.20063 -10.20016
 Alpha  occ. eigenvalues --  -10.19942 -10.19908 -10.19890 -10.19821 -10.19779
 Alpha  occ. eigenvalues --  -10.19769 -10.19667 -10.19576 -10.19493 -10.19470
 Alpha  occ. eigenvalues --  -10.19430 -10.19410 -10.19153 -10.19112 -10.18803
 Alpha  occ. eigenvalues --  -10.18413 -10.18115 -10.17585 -10.17446 -10.17321
 Alpha  occ. eigenvalues --  -10.17062 -10.16990 -10.16584 -10.15514  -1.10161
 Alpha  occ. eigenvalues --   -1.09895  -1.03158  -1.02121  -1.00449  -0.98828
 Alpha  occ. eigenvalues --   -0.97654  -0.92943  -0.92051  -0.85140  -0.82769
 Alpha  occ. eigenvalues --   -0.82066  -0.81993  -0.81114  -0.81070  -0.80760
 Alpha  occ. eigenvalues --   -0.80459  -0.80214  -0.79984  -0.79759  -0.78340
 Alpha  occ. eigenvalues --   -0.77153  -0.76615  -0.75633  -0.75027  -0.74538
 Alpha  occ. eigenvalues --   -0.73902  -0.73613  -0.72541  -0.72027  -0.70183
 Alpha  occ. eigenvalues --   -0.70069  -0.69732  -0.68387  -0.68159  -0.68026
 Alpha  occ. eigenvalues --   -0.67612  -0.67266  -0.66702  -0.65818  -0.65360
 Alpha  occ. eigenvalues --   -0.64383  -0.63473  -0.62758  -0.61308  -0.61035
 Alpha  occ. eigenvalues --   -0.60160  -0.59222  -0.58838  -0.57481  -0.56958
 Alpha  occ. eigenvalues --   -0.56782  -0.56369  -0.56233  -0.55580  -0.55346
 Alpha  occ. eigenvalues --   -0.54913  -0.54844  -0.53729  -0.53282  -0.52818
 Alpha  occ. eigenvalues --   -0.52639  -0.52154  -0.51645  -0.51148  -0.50186
 Alpha  occ. eigenvalues --   -0.50152  -0.49897  -0.49612  -0.48827  -0.48637
 Alpha  occ. eigenvalues --   -0.48280  -0.48098  -0.47613  -0.47515  -0.47154
 Alpha  occ. eigenvalues --   -0.46764  -0.46598  -0.46246  -0.46062  -0.45792
 Alpha  occ. eigenvalues --   -0.45495  -0.45325  -0.44969  -0.44817  -0.44615
 Alpha  occ. eigenvalues --   -0.44337  -0.44103  -0.43830  -0.43697  -0.43602
 Alpha  occ. eigenvalues --   -0.43412  -0.43183  -0.43084  -0.42689  -0.42604
 Alpha  occ. eigenvalues --   -0.42349  -0.42151  -0.42078  -0.41673  -0.41233
 Alpha  occ. eigenvalues --   -0.40926  -0.40874  -0.40784  -0.40728  -0.40550
 Alpha  occ. eigenvalues --   -0.40092  -0.39912  -0.39661  -0.39489  -0.39400
 Alpha  occ. eigenvalues --   -0.39182  -0.39067  -0.38720  -0.38526  -0.38404
 Alpha  occ. eigenvalues --   -0.38145  -0.37888  -0.37847  -0.37641  -0.37363
 Alpha  occ. eigenvalues --   -0.37241  -0.36971  -0.36784  -0.36711  -0.36561
 Alpha  occ. eigenvalues --   -0.36501  -0.36306  -0.36086  -0.35807  -0.35662
 Alpha  occ. eigenvalues --   -0.35510  -0.35410  -0.35109  -0.34966  -0.34634
 Alpha  occ. eigenvalues --   -0.34319  -0.34021  -0.33915  -0.33292  -0.33009
 Alpha  occ. eigenvalues --   -0.32743  -0.32494  -0.32361  -0.32291  -0.32243
 Alpha  occ. eigenvalues --   -0.31880  -0.31784  -0.31393  -0.31164  -0.30982
 Alpha  occ. eigenvalues --   -0.30827  -0.30641  -0.30475  -0.30218  -0.29836
 Alpha  occ. eigenvalues --   -0.29720  -0.29593  -0.29065  -0.28247  -0.27866
 Alpha  occ. eigenvalues --   -0.27770  -0.27647  -0.27089  -0.26924  -0.25771
 Alpha  occ. eigenvalues --   -0.24714  -0.24615  -0.24479  -0.23943  -0.20138
 Alpha  occ. eigenvalues --   -0.19678
 Alpha virt. eigenvalues --   -0.11415  -0.06367  -0.04678  -0.01437  -0.00926
 Alpha virt. eigenvalues --   -0.00729   0.00326   0.00787   0.01808   0.02385
 Alpha virt. eigenvalues --    0.02791   0.03670   0.04283   0.04358   0.04510

 Mulliken charges:
               1
     1  C   -0.018359
     2  C   -0.053475
     3  C   -0.024239
     4  C   -0.053250
     5  N   -0.186632
     6  C   -0.098177
     7  C   -0.014657
     8  C   -0.051567
     9  C    0.054272
    10  C    0.153155
    11  C    0.070543
    12  C    0.099998
    13  C    0.160818
    14  O   -0.271901
    15  O   -0.276435
    16  N   -0.141496
    17  C    0.027205
    18  C   -0.124722
    19  C    0.013902
    20  C    0.160197
    21  C    0.003448
    22  C   -0.076841
    23  C   -0.087640
    24  N   -0.310851
    25  C    0.028303
    26  C   -0.070953
    27  C   -0.102965
    28  C    0.070776
    29  C   -0.010708
    30  C    0.072767
    31  C   -0.096111
    32  N    0.109461
    33  C    0.050391
    34  C   -0.172110
    35  C   -0.012687
    36  C    0.101525
    37  C   -0.034897
    38  C    0.094688
    39  O   -0.162649
    40  C   -0.018719
    41  C    0.213968
    42  O   -0.201433
    43  O   -0.312912
    44  C    0.131031
    45  C    0.231174
    46  C   -0.129360
    47  C   -0.137438
    48  C    0.090870
    49  C    0.032026
    50  C    0.065356
    51  C    0.123981
    52  C   -0.077264
    53  C   -0.029249
    54  C   -0.061473
    55  C    0.103241
    56  C    0.026333
    57  C   -0.051754
    58  C    0.098051
    59  C   -0.025189
    60  C   -0.007509
    61  C    0.035184
    62  C   -0.143101
    63  C    0.227784
    64  C   -0.075629
    65  H    0.009423
    66  H   -0.062453
    67  H   -0.041298
    68  H   -0.010285
    69  H    0.006737
    70  H    0.013581
    71  H   -0.013042
    72  H   -0.020307
    73  H   -0.041088
    74  H    0.033762
    75  H    0.016510
    76  H    0.033157
    77  H    0.066546
    78  H    0.049419
    79  H    0.044694
    80  H    0.030481
    81  H    0.016403
    82  H    0.050533
    83  H    0.058276
    84  H    0.011478
    85  H    0.022821
    86  H    0.013446
    87  H    0.017385
    88  H    0.040484
    89  H    0.053242
    90  H    0.055213
    91  H    0.085733
    92  H    0.058709
    93  H    0.068224
    94  H    0.069765
    95  H    0.047390
    96  H    0.051905
    97  H    0.051173
    98  H    0.045288
    99  H    0.019131
   100  H    0.022849
   101  H    0.015103
   102  H    0.017660
   103  H    0.039118
   104  H    0.001078
   105  H    0.006550
   106  H   -0.058766
   107  H   -0.035200
   108  H   -0.025965
   109  H   -0.062581
   110  H   -0.005614
   111  H    0.012895
   112  H    0.026980
   113  H    0.022725
   114  H    0.001647
   115  H   -0.007105
   116  H   -0.017467
   117  H   -0.009021
   118  H   -0.044455
   119  H    0.002053
   120  H    0.008356
   121  H    0.021276
   122  H   -0.022870
   123  H   -0.011509
   124  H   -0.002532
   125  H   -0.002902
   126  H    0.003685
   127  H    0.015399
   128  H   -0.021875
   129  H   -0.009728
   130  H    0.005798
   131  H   -0.047625
   132  H   -0.074632
   133  H    0.027975
   134  H    0.028523
   135  H    0.022268
   136  H    0.026364
   137  H    0.194058
   138  H    0.058956
 Sum of Mulliken charges =   0.00000

 Dipole moment (field-independent basis, Debye):
    X=              1.1807    Y=              2.3956    Z=              0.4244  Tot=              2.7042
 Quadrupole moment (field-independent basis, Debye-Ang):
   XX=           -336.2283   YY=           -390.6012   ZZ=           -395.1571
   XY=            -20.6700   XZ=              2.1400   YZ=             -3.5702

 Normal termination of Gaussian 09 at Fri Aug  2 02:45:56 2019.
