 Gaussian 09, Revision D.01,
 Gaussian 09:  ES64L-G09RevD.01 24-Apr-2013

 --------------------------
 # td=(NStates=1) B3LYP/SVP
 --------------------------

 --
 TD
 --
 Symbolic Z-matrix:
 Charge =  0 Multiplicity = 1

                         Standard orientation:
 ---------------------------------------------------------------------
 Center     Atomic      Atomic             Coordinates (Angstroms)
 Number     Number       Type             X           Y           Z
 ---------------------------------------------------------------------
      1          6           0       -5.038309   -1.849124    0.457065
      2          6           0       -4.783540    2.872362    1.316609
      3          6           0       -9.446864    3.221135   -0.167337
      4          6           0       -9.789445   -1.632397   -0.910993
      5          7           0       -5.161639    0.496025    0.859113
      6          6           0       -4.462938   -0.678300    0.891382
      7          6           0       -3.008509   -0.447361    1.227670
      8          6           0       -3.152479    0.978549    1.802214
      9          6           0       -4.471560    1.522412    1.339978
     10          6           0       -3.106057    1.057319    3.390925
     11          6           0       -2.071096   -0.658752    0.094170
     12          6           0       -0.510947   -0.793877    0.457551
     13          6           0        0.460270   -0.946710   -0.668720
     14          8           0        0.165831   -1.263955   -1.868167
     15          8           0        1.666403   -0.744163   -0.219789
     16          7           0       -7.095951    2.722545    0.457134
     17          6           0       -6.006179    3.385527    0.910995
     18          6           0       -6.444880    4.804624    0.973198
     19          6           0       -7.627272    4.888911    0.477833
     20          6           0       -8.221546    3.617873    0.172184
     21          6           0       -5.472132    5.901623    1.357811
     22          6           0       -8.339254    6.177176    0.347984
     23          6           0       -9.318397    6.440811   -0.514874
     24          7           0       -9.287631    0.754992   -0.506651
     25          6           0       -9.965852    1.904775   -0.542753
     26          6           0      -11.316615    1.685511   -0.985341
     27          6           0      -11.425256    0.260040   -1.111021
     28          6           0      -10.146682   -0.223534   -0.881379
     29          6           0      -12.476197    2.682782   -1.210396
     30          6           0      -12.715926   -0.351017   -1.642854
     31          6           0      -12.710440   -0.606321   -3.123585
     32          7           0       -7.544450   -1.305969   -0.313497
     33          6           0       -8.614835   -2.175037   -0.728566
     34          6           0       -8.111197   -3.570784   -0.645957
     35          6           0       -6.742596   -3.386174   -0.247489
     36          6           0       -6.391575   -2.045469    0.053449
     37          6           0       -8.893287   -4.702594   -0.916410
     38          6           0       -5.626766   -4.324265    0.071515
     39          8           0       -5.404570   -5.494388    0.074339
     40          6           0       -4.520328   -3.244731    0.411325
     41          6           0       -3.817888   -3.741081    1.701031
     42          8           0       -4.055663   -3.106101    2.777367
     43          8           0       -3.002884   -4.737674    1.488628
     44          6           0       -2.372840   -5.254406    2.742541
     45          6           0        2.714181   -0.757259   -1.189491
     46          6           0        4.016539   -0.613235   -0.477740
     47          6           0        5.092109    0.215421   -0.987488
     48          6           0        4.951512    1.163807   -2.238559
     49          6           0        6.240783    0.375195   -0.152837
     50          6           0        7.574466   -0.170552   -0.883412
     51          6           0        8.740306   -0.170848    0.018444
     52          6           0       10.081766   -0.679604   -0.653798
     53          6           0        9.899466   -2.258467   -0.917374
     54          6           0       11.313620   -0.453777    0.155056
     55          6           0       12.696244   -0.592093   -0.608130
     56          6           0       13.844655   -0.204655    0.178107
     57          6           0       15.151184   -0.278931   -0.277071
     58          6           0       15.695197   -1.798336   -0.523826
     59          6           0       16.368180    0.401117    0.572471
     60          6           0       17.747128    0.646939   -0.226118
     61          6           0       18.658838    1.531336    0.544528
     62          6           0       20.120681    1.619098    0.047827
     63          6           0       20.270986    2.127272   -1.494227
     64          6           0       21.083259    2.525612    0.874785
     65          1           0       -3.880195    3.430861    1.792962
     66          1           0      -10.079889    4.186475   -0.064876
     67          1           0      -10.836833   -2.228663   -1.051967
     68          1           0       -2.857751   -1.232149    1.967640
     69          1           0       -2.256024    1.755640    1.612454
     70          1           0       -2.130710    0.545199    3.800194
     71          1           0       -3.377713    2.107063    3.755054
     72          1           0       -3.910938    0.451800    3.710182
     73          1           0       -2.329205   -1.578086   -0.412549
     74          1           0       -2.121431    0.353717   -0.669910
     75          1           0       -0.138643    0.275403    0.881853
     76          1           0       -0.501579   -1.655541    1.094634
     77          1           0       -4.427430    5.959792    1.069443
     78          1           0       -5.944192    6.871009    1.192593
     79          1           0       -5.239914    5.844565    2.483665
     80          1           0       -7.779920    6.880251    1.004957
     81          1           0       -9.818837    5.727933   -1.262104
     82          1           0       -9.734514    7.670115   -0.817794
     83          1           0      -12.468903    3.200907   -0.318898
     84          1           0      -12.151480    3.150973   -2.089983
     85          1           0      -13.455127    2.228488   -1.160203
     86          1           0      -12.889062   -1.314691   -1.162865
     87          1           0      -13.677129    0.178681   -1.459847
     88          1           0      -12.825242    0.181342   -3.865212
     89          1           0      -11.949846   -1.435285   -3.250517
     90          1           0      -13.832145   -1.217895   -3.357125
     91          1           0       -9.639517   -4.911655   -0.043440
     92          1           0       -9.436621   -4.680880   -1.886741
     93          1           0       -8.250893   -5.729049   -0.890403
     94          1           0       -3.661538   -3.352388   -0.405056
     95          1           0       -1.765502   -6.083007    2.138819
     96          1           0       -1.731570   -4.410009    2.941755
     97          1           0       -2.922783   -5.568655    3.479403
     98          1           0        2.480153   -1.672793   -1.797450
     99          1           0        2.544504    0.131163   -1.899047
    100          1           0        4.322296   -1.224961    0.454743
    101          1           0        5.668386    1.966739   -2.132109
    102          1           0        5.583147    0.590375   -2.993864
    103          1           0        3.949999    1.264683   -2.557746
    104          1           0        6.413928    1.245601    0.327377
    105          1           0        6.181254   -0.187149    0.886899
    106          1           0        7.441934   -1.201083   -1.196280
    107          1           0        7.758098    0.384579   -1.875568
    108          1           0        8.921073    0.815537    0.285591
    109          1           0        8.552339   -1.081454    0.791797
    110          1           0        9.905515   -0.263204   -1.530075
    111          1           0        8.981378   -2.561831   -1.324685
    112          1           0       10.766721   -2.754761   -1.420460
    113          1           0        9.745348   -2.440403    0.259361
    114          1           0       11.377946    0.581464    0.558411
    115          1           0       11.434125   -0.925768    1.057910
    116          1           0       12.853707   -1.718476   -0.704255
    117          1           0       12.492348    0.138081   -1.454776
    118          1           0       13.871133    0.905500    0.453188
    119          1           0       13.966033   -0.682176    1.391323
    120          1           0       15.083525    0.181132   -1.382349
    121          1           0       15.113860   -2.561133   -1.370881
    122          1           0       16.617276   -1.540625   -1.322963
    123          1           0       15.940765   -2.143715    0.417791
    124          1           0       15.819079    1.423708    0.822905
    125          1           0       16.466629    0.027748    1.523111
    126          1           0       18.257265   -0.251205   -0.259513
    127          1           0       17.467910    1.080163   -1.349938
    128          1           0       18.281528    2.529346    0.728167
    129          1           0       18.835516    1.089673    1.627814
    130          1           0       20.555340    0.656048    0.144088
    131          1           0       19.660941    3.088039   -1.491103
    132          1           0       21.456462    2.331075   -1.489873
    133          1           0       19.760082    1.300055   -2.268105
    134          1           0       20.732699    2.370291    2.078347
    135          1           0       22.136578    2.331523    0.623335
    136          1           0       20.729739    3.551747    0.801136
    137          1           0       -7.300993    1.642843    0.377539
    138          1           0       -7.737862   -0.306732   -0.003014
 ---------------------------------------------------------------------

 SCF Done:  E(RB3LYP) =  -2732.93681052     A.U. after   17 cycles

 Excitation energies and oscillator strengths:

 Excited State   1:      Singlet-A      2.1539 eV  575.64 nm  f=0.0792  <S**2>=0.000
     235 -> 237       -0.20836
     235 -> 238       -0.33600
     236 -> 237        0.54979
     236 -> 238       -0.18921
 This state for optimization and/or second-order correction.
 Total Energy, E(TD-HF/TD-KS) =  -2732.85765756
 Copying the excited state density for this state as the 1-particle RhoCI density.

 The electronic state is 1-A.
 Alpha  occ. eigenvalues --  -19.19513 -19.18633 -19.12942 -19.11701 -19.11526
 Alpha  occ. eigenvalues --  -14.36864 -14.36171 -14.31155 -14.29040 -10.31613
 Alpha  occ. eigenvalues --  -10.31471 -10.28119 -10.25575 -10.25471 -10.24767
 Alpha  occ. eigenvalues --  -10.24192 -10.22998 -10.22993 -10.22955 -10.22465
 Alpha  occ. eigenvalues --  -10.22446 -10.22181 -10.21595 -10.21212 -10.21149
 Alpha  occ. eigenvalues --  -10.21086 -10.21067 -10.21027 -10.20998 -10.20836
 Alpha  occ. eigenvalues --  -10.20655 -10.20627 -10.20509 -10.20479 -10.20337
 Alpha  occ. eigenvalues --  -10.20260 -10.20218 -10.20214 -10.20086 -10.19998
 Alpha  occ. eigenvalues --  -10.19811 -10.19772 -10.19730 -10.19719 -10.19672
 Alpha  occ. eigenvalues --  -10.19660 -10.19655 -10.19447 -10.19421 -10.19413
 Alpha  occ. eigenvalues --  -10.19396 -10.19307 -10.19282 -10.19192 -10.18974
 Alpha  occ. eigenvalues --  -10.18820 -10.18756 -10.18753 -10.18726 -10.18532
 Alpha  occ. eigenvalues --  -10.17934 -10.17506 -10.17329 -10.16980  -1.10921
 Alpha  occ. eigenvalues --   -1.09983  -1.04324  -0.98214  -0.97647  -0.96884
 Alpha  occ. eigenvalues --   -0.95558  -0.94579  -0.93389  -0.84820  -0.83293
 Alpha  occ. eigenvalues --   -0.82971  -0.82443  -0.81139  -0.80901  -0.80514
 Alpha  occ. eigenvalues --   -0.80255  -0.80054  -0.78906  -0.78397  -0.77850
 Alpha  occ. eigenvalues --   -0.77031  -0.76190  -0.75460  -0.74820  -0.74446
 Alpha  occ. eigenvalues --   -0.74289  -0.73642  -0.72923  -0.71805  -0.70937
 Alpha  occ. eigenvalues --   -0.70316  -0.69608  -0.69075  -0.68570  -0.67231
 Alpha  occ. eigenvalues --   -0.67176  -0.65600  -0.65316  -0.65241  -0.64952
 Alpha  occ. eigenvalues --   -0.64337  -0.62960  -0.61975  -0.61317  -0.60749
 Alpha  occ. eigenvalues --   -0.60077  -0.59804  -0.58652  -0.58177  -0.58105
 Alpha  occ. eigenvalues --   -0.57152  -0.56946  -0.56224  -0.55979  -0.55585
 Alpha  occ. eigenvalues --   -0.55048  -0.53863  -0.53475  -0.52942  -0.52714
 Alpha  occ. eigenvalues --   -0.52542  -0.51675  -0.51366  -0.51114  -0.50390
 Alpha  occ. eigenvalues --   -0.50172  -0.49345  -0.49287  -0.48827  -0.48493
 Alpha  occ. eigenvalues --   -0.48259  -0.47422  -0.47243  -0.47210  -0.47042
 Alpha  occ. eigenvalues --   -0.46715  -0.46414  -0.46027  -0.46011  -0.45898
 Alpha  occ. eigenvalues --   -0.45601  -0.45489  -0.45416  -0.44835  -0.44638
 Alpha  occ. eigenvalues --   -0.44493  -0.44389  -0.44142  -0.44047  -0.43944
 Alpha  occ. eigenvalues --   -0.43824  -0.43570  -0.43159  -0.43047  -0.42438
 Alpha  occ. eigenvalues --   -0.42288  -0.42205  -0.42113  -0.41972  -0.41783
 Alpha  occ. eigenvalues --   -0.41334  -0.40855  -0.40638  -0.40520  -0.40356
 Alpha  occ. eigenvalues --   -0.40163  -0.39997  -0.39794  -0.39747  -0.39343
 Alpha  occ. eigenvalues --   -0.39318  -0.39074  -0.38945  -0.38659  -0.38592
 Alpha  occ. eigenvalues --   -0.38342  -0.38202  -0.37945  -0.37739  -0.37651
 Alpha  occ. eigenvalues --   -0.37551  -0.37337  -0.37235  -0.37033  -0.36798
 Alpha  occ. eigenvalues --   -0.36314  -0.36119  -0.36112  -0.35858  -0.35614
 Alpha  occ. eigenvalues --   -0.35339  -0.35236  -0.34814  -0.34573  -0.34380
 Alpha  occ. eigenvalues --   -0.33979  -0.33862  -0.33336  -0.33292  -0.33004
 Alpha  occ. eigenvalues --   -0.32870  -0.32836  -0.32636  -0.32489  -0.32254
 Alpha  occ. eigenvalues --   -0.32082  -0.31860  -0.31741  -0.31112  -0.30770
 Alpha  occ. eigenvalues --   -0.30563  -0.30493  -0.30458  -0.30138  -0.29860
 Alpha  occ. eigenvalues --   -0.29276  -0.29071  -0.28474  -0.27857  -0.26936
 Alpha  occ. eigenvalues --   -0.26842  -0.26443  -0.26189  -0.25462  -0.25324
 Alpha  occ. eigenvalues --   -0.24813  -0.24771  -0.23364  -0.21157  -0.20045
 Alpha  occ. eigenvalues --   -0.19178
 Alpha virt. eigenvalues --   -0.09731  -0.08366  -0.04325  -0.01894  -0.01428
 Alpha virt. eigenvalues --   -0.00415  -0.00140   0.00712   0.02450   0.03242
 Alpha virt. eigenvalues --    0.03245   0.03716   0.03936   0.03965   0.04138

 Mulliken charges:
               1
     1  C    0.089842
     2  C   -0.114939
     3  C   -0.107803
     4  C   -0.127850
     5  N   -0.163943
     6  C   -0.116003
     7  C    0.091668
     8  C   -0.126768
     9  C   -0.007002
    10  C    0.041844
    11  C    0.026275
    12  C    0.008364
    13  C    0.182238
    14  O   -0.301851
    15  O   -0.268166
    16  N   -0.170299
    17  C    0.188066
    18  C   -0.116923
    19  C    0.040617
    20  C    0.061187
    21  C    0.094418
    22  C    0.011627
    23  C   -0.126233
    24  N   -0.222198
    25  C    0.066439
    26  C   -0.219633
    27  C   -0.069512
    28  C   -0.011336
    29  C    0.209637
    30  C    0.080347
    31  C   -0.038228
    32  N   -0.164389
    33  C    0.167340
    34  C   -0.030137
    35  C   -0.101289
    36  C    0.123903
    37  C   -0.009450
    38  C    0.123244
    39  O   -0.131888
    40  C   -0.133251
    41  C    0.186187
    42  O   -0.305239
    43  O   -0.271784
    44  C    0.229119
    45  C    0.245184
    46  C   -0.101817
    47  C   -0.154591
    48  C    0.136145
    49  C    0.088920
    50  C   -0.036410
    51  C    0.028705
    52  C    0.023319
    53  C   -0.028960
    54  C    0.088035
    55  C    0.083577
    56  C   -0.015751
    57  C   -0.108943
    58  C   -0.049050
    59  C    0.015164
    60  C    0.075050
    61  C    0.002821
    62  C   -0.101313
    63  C   -0.067067
    64  C   -0.007968
    65  H    0.002689
    66  H    0.011937
    67  H    0.022932
    68  H   -0.006781
    69  H    0.009853
    70  H    0.035716
    71  H    0.019993
    72  H    0.004026
    73  H    0.008077
    74  H    0.032395
    75  H    0.054704
    76  H    0.026890
    77  H    0.024551
    78  H    0.009439
    79  H    0.016191
    80  H    0.008417
    81  H    0.062873
    82  H    0.052897
    83  H   -0.003001
    84  H    0.021826
    85  H   -0.007139
    86  H   -0.013565
    87  H   -0.003400
    88  H    0.029557
    89  H    0.019537
    90  H   -0.008787
    91  H    0.053696
    92  H    0.047702
    93  H    0.056116
    94  H    0.079460
    95  H    0.059590
    96  H    0.030901
    97  H    0.021688
    98  H    0.040798
    99  H    0.022572
   100  H    0.020543
   101  H    0.007055
   102  H    0.023819
   103  H    0.017902
   104  H   -0.025574
   105  H   -0.009872
   106  H   -0.008497
   107  H    0.003681
   108  H   -0.022502
   109  H    0.011650
   110  H   -0.066901
   111  H    0.001407
   112  H    0.035105
   113  H    0.009824
   114  H   -0.029181
   115  H   -0.044059
   116  H    0.020623
   117  H    0.014439
   118  H   -0.017477
   119  H   -0.016469
   120  H   -0.012321
   121  H    0.034204
   122  H    0.027587
   123  H    0.005831
   124  H   -0.004022
   125  H   -0.019918
   126  H   -0.011335
   127  H    0.031046
   128  H   -0.013220
   129  H    0.002338
   130  H   -0.012244
   131  H    0.025388
   132  H    0.036444
   133  H    0.047714
   134  H    0.006768
   135  H    0.037664
   136  H    0.004563
   137  H    0.189730
   138  H    0.172618
 Sum of Mulliken charges =   0.00000

 Dipole moment (field-independent basis, Debye):
    X=              3.7083    Y=              3.4131    Z=              1.8405  Tot=              5.3655
 Quadrupole moment (field-independent basis, Debye-Ang):
   XX=           -361.6204   YY=           -375.4352   ZZ=           -401.0948
   XY=             -6.2673   XZ=              3.8877   YZ=             -4.4808

 Normal termination of Gaussian 09 at Tue Jul 30 05:07:58 2019.
