 Gaussian 09, Revision D.01,
 Gaussian 09:  ES64L-G09RevD.01 24-Apr-2013

 --------------------------
 # td=(NStates=1) B3LYP/SVP
 --------------------------

 --
 TD
 --
 Symbolic Z-matrix:
 Charge =  0 Multiplicity = 1

                         Standard orientation:
 ---------------------------------------------------------------------
 Center     Atomic      Atomic             Coordinates (Angstroms)
 Number     Number       Type             X           Y           Z
 ---------------------------------------------------------------------
      1          6           0       -5.134899   -1.918066    0.588963
      2          6           0       -4.708314    2.805405    1.405807
      3          6           0       -9.421860    3.181201   -0.109542
      4          6           0       -9.814396   -1.543340   -1.016940
      5          7           0       -5.185378    0.456036    0.943891
      6          6           0       -4.487297   -0.768659    0.981296
      7          6           0       -3.095013   -0.467017    1.407628
      8          6           0       -3.139130    1.009880    1.952857
      9          6           0       -4.410307    1.463618    1.371412
     10          6           0       -3.199573    0.816740    3.471088
     11          6           0       -2.125924   -0.626161    0.174265
     12          6           0       -0.616625   -0.628094    0.540042
     13          6           0        0.352333   -0.851754   -0.694351
     14          8           0        0.101692   -1.284797   -1.764644
     15          8           0        1.599681   -0.503355   -0.370945
     16          7           0       -7.082371    2.740649    0.622689
     17          6           0       -5.994157    3.489344    0.989613
     18          6           0       -6.336397    4.859745    1.064613
     19          6           0       -7.599063    4.971790    0.528533
     20          6           0       -8.158057    3.622390    0.284293
     21          6           0       -5.435763    5.972348    1.432500
     22          6           0       -8.326180    6.216697    0.255821
     23          6           0       -9.090959    6.561699   -0.870860
     24          7           0       -9.200868    0.774990   -0.468160
     25          6           0       -9.886546    1.908573   -0.346995
     26          6           0      -11.330566    1.658586   -0.842733
     27          6           0      -11.415559    0.336461   -1.236809
     28          6           0      -10.062808   -0.147040   -0.826515
     29          6           0      -12.356583    2.722664   -1.052507
     30          6           0      -12.572402   -0.380581   -1.695292
     31          6           0      -12.385284   -0.762186   -3.167001
     32          7           0       -7.454291   -1.348493   -0.211452
     33          6           0       -8.503783   -2.113170   -0.705308
     34          6           0       -8.064025   -3.426818   -0.732312
     35          6           0       -6.781541   -3.490327   -0.135196
     36          6           0       -6.487224   -2.137010    0.101369
     37          6           0       -8.783942   -4.634250   -1.080916
     38          6           0       -5.607192   -4.348345    0.066352
     39          8           0       -5.543752   -5.521418    0.046342
     40          6           0       -4.516432   -3.297082    0.591180
     41          6           0       -3.750353   -3.773773    1.804869
     42          8           0       -4.043615   -3.399630    2.896835
     43          8           0       -2.913374   -4.722961    1.574594
     44          6           0       -2.282684   -5.412146    2.736444
     45          6           0        2.630646   -0.893407   -1.255409
     46          6           0        3.940302   -0.488786   -0.681101
     47          6           0        4.963393    0.299701   -1.329894
     48          6           0        4.890790    0.767689   -2.739164
     49          6           0        6.295584    0.578884   -0.586652
     50          6           0        7.491235   -0.156367   -1.241229
     51          6           0        8.709833   -0.043623   -0.235731
     52          6           0       10.156192   -0.627356   -0.916484
     53          6           0        9.824841   -2.129474   -1.059887
     54          6           0       11.204297   -0.205670    0.054273
     55          6           0       12.525859   -0.530913   -0.589166
     56          6           0       13.752752   -0.081662    0.183693
     57          6           0       15.215119   -0.243184   -0.372709
     58          6           0       15.583507   -1.737431   -0.556984
     59          6           0       16.259142    0.462746    0.510771
     60          6           0       17.655038    0.645525   -0.109668
     61          6           0       18.569258    1.520806    0.884858
     62          6           0       20.061614    1.503328    0.307636
     63          6           0       20.277256    1.912759   -1.119229
     64          6           0       20.976816    2.344119    1.263299
     65          1           0       -4.027122    3.460924    1.774613
     66          1           0      -10.103832    4.143498   -0.250533
     67          1           0      -10.650601   -2.178422   -1.342256
     68          1           0       -2.864892   -1.255602    2.187530
     69          1           0       -2.125208    1.404409    1.785485
     70          1           0       -2.398478    0.460721    4.126595
     71          1           0       -3.433631    1.721249    3.901547
     72          1           0       -4.044843    0.280402    3.943987
     73          1           0       -2.270419   -1.667249   -0.207110
     74          1           0       -2.199305    0.106925   -0.906524
     75          1           0       -0.346075    0.321006    1.086494
     76          1           0       -0.547713   -1.402090    1.325679
     77          1           0       -4.771507    6.092303    0.797045
     78          1           0       -6.069868    6.764808    1.538136
     79          1           0       -4.921212    5.757298    2.254070
     80          1           0       -8.146502    7.033585    0.931544
     81          1           0       -9.388665    5.847439   -1.564825
     82          1           0       -9.257971    7.568144   -1.158753
     83          1           0      -12.356237    3.469952   -0.209583
     84          1           0      -11.869490    3.404861   -1.759954
     85          1           0      -13.390753    2.662688   -1.264262
     86          1           0      -12.899519   -1.275466   -1.220218
     87          1           0      -13.495150    0.118321   -1.664926
     88          1           0      -12.500276    0.032648   -3.824651
     89          1           0      -11.406973   -1.327933   -3.393477
     90          1           0      -12.935253   -1.589731   -3.503266
     91          1           0       -9.575270   -4.925813   -0.147449
     92          1           0       -9.113702   -4.565839   -2.182348
     93          1           0       -7.984171   -5.553642   -1.147651
     94          1           0       -3.710255   -3.225288    0.036927
     95          1           0       -1.436621   -5.831700    2.187431
     96          1           0       -1.914356   -4.624194    3.399948
     97          1           0       -3.117775   -6.264976    3.218824
     98          1           0        2.772484   -1.993505   -1.288406
     99          1           0        2.398780   -0.565275   -2.291109
    100          1           0        4.092087   -0.784674    0.274507
    101          1           0        5.192005    1.963589   -2.966071
    102          1           0        5.549328    0.166854   -3.559092
    103          1           0        3.834653    0.753732   -3.123992
    104          1           0        6.531604    1.578305   -0.579855
    105          1           0        6.229131    0.275194    0.511277
    106          1           0        7.212393   -1.164021   -1.112242
    107          1           0        7.769699    0.166132   -2.137878
    108          1           0        8.999815    0.968624   -0.238325
    109          1           0        8.562384   -0.658871    0.726290
    110          1           0       10.367787   -0.161348   -1.891655
    111          1           0        9.087974   -2.349349   -1.729462
    112          1           0       10.839763   -2.707417   -1.316398
    113          1           0        9.462134   -2.617229   -0.104745
    114          1           0       11.302927    0.889179    0.229819
    115          1           0       11.069609   -0.678367    1.006761
    116          1           0       12.708400   -1.532385   -0.765015
    117          1           0       12.542769   -0.086316   -1.661295
    118          1           0       13.473967    0.936820    0.386922
    119          1           0       13.908817   -0.269627    1.194957
    120          1           0       15.447938    0.316889   -1.309560
    121          1           0       15.023678   -2.288466   -1.258975
    122          1           0       16.625226   -1.764195   -0.786925
    123          1           0       15.422065   -2.326713    0.496336
    124          1           0       15.793321    1.487340    0.820814
    125          1           0       16.587972   -0.227082    1.516088
    126          1           0       18.286063   -0.253524   -0.087028
    127          1           0       17.559529    1.182360   -1.168627
    128          1           0       18.193551    2.557907    0.866076
    129          1           0       18.362110    1.200357    1.734742
    130          1           0       20.374317    0.498790    0.326794
    131          1           0       19.677959    2.890205   -1.345893
    132          1           0       21.285989    2.115749   -1.507392
    133          1           0       19.980466    1.062195   -1.826659
    134          1           0       21.196635    1.727546    2.191149
    135          1           0       21.812289    2.443155    0.575609
    136          1           0       20.659345    3.353659    1.267311
    137          1           0       -7.092353    1.792612    0.529977
    138          1           0       -7.705512   -0.381076   -0.494496
 ---------------------------------------------------------------------

 SCF Done:  E(RB3LYP) =  -2733.03329497     A.U. after   17 cycles

 Excitation energies and oscillator strengths:

 Excited State   1:      Singlet-A      2.0533 eV  603.83 nm  f=0.1671  <S**2>=0.000
     235 -> 237        0.62958
     236 -> 238       -0.31367
 This state for optimization and/or second-order correction.
 Total Energy, E(TD-HF/TD-KS) =  -2732.95783751
 Copying the excited state density for this state as the 1-particle RhoCI density.

 The electronic state is 1-A.
 Alpha  occ. eigenvalues --  -19.17902 -19.17412 -19.12651 -19.12421 -19.10482
 Alpha  occ. eigenvalues --  -14.36245 -14.36178 -14.31235 -14.30825 -10.31686
 Alpha  occ. eigenvalues --  -10.30089 -10.27892 -10.26902 -10.24621 -10.24120
 Alpha  occ. eigenvalues --  -10.24014 -10.23007 -10.22368 -10.22303 -10.22268
 Alpha  occ. eigenvalues --  -10.22085 -10.21623 -10.21485 -10.21377 -10.21263
 Alpha  occ. eigenvalues --  -10.21254 -10.21073 -10.21007 -10.20960 -10.20900
 Alpha  occ. eigenvalues --  -10.20688 -10.20331 -10.20169 -10.20033 -10.19961
 Alpha  occ. eigenvalues --  -10.19912 -10.19874 -10.19829 -10.19312 -10.19212
 Alpha  occ. eigenvalues --  -10.19023 -10.19011 -10.18975 -10.18904 -10.18856
 Alpha  occ. eigenvalues --  -10.18666 -10.18625 -10.18588 -10.18559 -10.18539
 Alpha  occ. eigenvalues --  -10.18359 -10.18263 -10.18050 -10.17847 -10.17831
 Alpha  occ. eigenvalues --  -10.17777 -10.17525 -10.17264 -10.17234 -10.17209
 Alpha  occ. eigenvalues --  -10.17151 -10.16825 -10.16731 -10.16644  -1.10947
 Alpha  occ. eigenvalues --   -1.10717  -1.04874  -1.01728  -1.00262  -0.99972
 Alpha  occ. eigenvalues --   -0.97194  -0.95382  -0.93366  -0.84381  -0.82830
 Alpha  occ. eigenvalues --   -0.82086  -0.81136  -0.81063  -0.80527  -0.80447
 Alpha  occ. eigenvalues --   -0.80078  -0.79804  -0.79085  -0.78606  -0.77674
 Alpha  occ. eigenvalues --   -0.77128  -0.76165  -0.75626  -0.75098  -0.74566
 Alpha  occ. eigenvalues --   -0.73609  -0.73099  -0.72992  -0.72202  -0.71678
 Alpha  occ. eigenvalues --   -0.69898  -0.69364  -0.68689  -0.67902  -0.67623
 Alpha  occ. eigenvalues --   -0.67073  -0.66505  -0.66303  -0.66003  -0.64716
 Alpha  occ. eigenvalues --   -0.64304  -0.63970  -0.62999  -0.62762  -0.61955
 Alpha  occ. eigenvalues --   -0.60452  -0.58901  -0.58227  -0.58027  -0.57413
 Alpha  occ. eigenvalues --   -0.56955  -0.56723  -0.56460  -0.55942  -0.55798
 Alpha  occ. eigenvalues --   -0.55070  -0.54453  -0.53843  -0.53649  -0.53556
 Alpha  occ. eigenvalues --   -0.53308  -0.52291  -0.51843  -0.51181  -0.50963
 Alpha  occ. eigenvalues --   -0.50053  -0.49895  -0.49491  -0.49267  -0.49051
 Alpha  occ. eigenvalues --   -0.48700  -0.48337  -0.47912  -0.47359  -0.47115
 Alpha  occ. eigenvalues --   -0.46645  -0.46539  -0.46306  -0.46048  -0.45949
 Alpha  occ. eigenvalues --   -0.45768  -0.45613  -0.45331  -0.45248  -0.44739
 Alpha  occ. eigenvalues --   -0.44568  -0.44201  -0.44012  -0.43726  -0.43444
 Alpha  occ. eigenvalues --   -0.43325  -0.43209  -0.43072  -0.42889  -0.42554
 Alpha  occ. eigenvalues --   -0.42487  -0.42323  -0.41961  -0.41729  -0.41477
 Alpha  occ. eigenvalues --   -0.41198  -0.41042  -0.40795  -0.40619  -0.40453
 Alpha  occ. eigenvalues --   -0.40222  -0.40142  -0.39938  -0.39718  -0.39634
 Alpha  occ. eigenvalues --   -0.39399  -0.39253  -0.39019  -0.38954  -0.38545
 Alpha  occ. eigenvalues --   -0.38450  -0.38230  -0.37930  -0.37865  -0.37649
 Alpha  occ. eigenvalues --   -0.37478  -0.36996  -0.36944  -0.36789  -0.36622
 Alpha  occ. eigenvalues --   -0.36392  -0.36388  -0.36350  -0.36081  -0.35951
 Alpha  occ. eigenvalues --   -0.35690  -0.35359  -0.35142  -0.35044  -0.34847
 Alpha  occ. eigenvalues --   -0.34704  -0.34507  -0.34318  -0.34225  -0.33927
 Alpha  occ. eigenvalues --   -0.33678  -0.33444  -0.33422  -0.33030  -0.32678
 Alpha  occ. eigenvalues --   -0.32244  -0.31968  -0.31528  -0.31115  -0.30855
 Alpha  occ. eigenvalues --   -0.30796  -0.30673  -0.30481  -0.30333  -0.30060
 Alpha  occ. eigenvalues --   -0.29504  -0.28346  -0.28081  -0.27849  -0.27308
 Alpha  occ. eigenvalues --   -0.26655  -0.26621  -0.26023  -0.25876  -0.25427
 Alpha  occ. eigenvalues --   -0.24934  -0.24051  -0.23309  -0.22807  -0.19218
 Alpha  occ. eigenvalues --   -0.19028
 Alpha virt. eigenvalues --   -0.10599  -0.06991  -0.03637  -0.02424  -0.01556
 Alpha virt. eigenvalues --    0.00529   0.00822   0.01736   0.02498   0.03799
 Alpha virt. eigenvalues --    0.04398   0.04577   0.04589   0.05107   0.05157

 Mulliken charges:
               1
     1  C    0.083707
     2  C   -0.002137
     3  C   -0.132782
     4  C   -0.068476
     5  N   -0.193993
     6  C   -0.104830
     7  C   -0.023111
     8  C    0.004275
     9  C    0.065223
    10  C    0.081563
    11  C   -0.042033
    12  C    0.008789
    13  C    0.177179
    14  O   -0.197371
    15  O   -0.289617
    16  N   -0.045811
    17  C    0.051682
    18  C   -0.200556
    19  C    0.060181
    20  C    0.048171
    21  C    0.374040
    22  C   -0.091901
    23  C   -0.003979
    24  N   -0.169863
    25  C    0.126002
    26  C   -0.154917
    27  C   -0.070970
    28  C    0.039068
    29  C    0.130291
    30  C    0.130551
    31  C   -0.000252
    32  N    0.054705
    33  C    0.025764
    34  C   -0.129793
    35  C   -0.046626
    36  C    0.024776
    37  C   -0.019868
    38  C    0.108530
    39  O   -0.122027
    40  C    0.055263
    41  C    0.092274
    42  O   -0.228197
    43  O   -0.278825
    44  C    0.139741
    45  C    0.277192
    46  C   -0.064178
    47  C   -0.102641
    48  C   -0.045408
    49  C    0.096166
    50  C    0.100904
    51  C   -0.020576
    52  C   -0.125884
    53  C    0.049988
    54  C    0.095081
    55  C    0.067098
    56  C    0.081777
    57  C   -0.033223
    58  C    0.039599
    59  C   -0.067917
    60  C   -0.045759
    61  C    0.149889
    62  C   -0.115360
    63  C   -0.023250
    64  C    0.095023
    65  H   -0.081296
    66  H    0.014232
    67  H   -0.004426
    68  H    0.028772
    69  H   -0.006023
    70  H    0.006615
    71  H   -0.047404
    72  H    0.009625
    73  H    0.019135
    74  H    0.049105
    75  H    0.029015
    76  H    0.023519
    77  H   -0.052835
    78  H   -0.026217
    79  H   -0.030732
    80  H    0.004402
    81  H    0.010231
    82  H    0.025342
    83  H   -0.001913
    84  H    0.003731
    85  H    0.008740
    86  H   -0.011973
    87  H   -0.030660
    88  H    0.004550
    89  H    0.006014
    90  H   -0.022302
    91  H    0.070991
    92  H    0.035631
    93  H    0.053435
    94  H   -0.041085
    95  H    0.043743
    96  H    0.048750
    97  H    0.092375
    98  H    0.017968
    99  H    0.021774
   100  H   -0.045505
   101  H    0.033761
   102  H    0.054735
   103  H    0.020590
   104  H   -0.026940
   105  H   -0.002490
   106  H   -0.014182
   107  H   -0.027231
   108  H   -0.019073
   109  H    0.024181
   110  H   -0.009070
   111  H   -0.004920
   112  H    0.011315
   113  H    0.000821
   114  H   -0.005535
   115  H   -0.017515
   116  H   -0.034126
   117  H   -0.007884
   118  H   -0.054283
   119  H   -0.040680
   120  H   -0.016850
   121  H    0.005946
   122  H   -0.004258
   123  H    0.008292
   124  H    0.014516
   125  H    0.003761
   126  H    0.012136
   127  H    0.023917
   128  H   -0.018911
   129  H   -0.083827
   130  H   -0.022648
   131  H    0.016018
   132  H    0.012508
   133  H    0.017496
   134  H    0.031330
   135  H   -0.022850
   136  H   -0.010478
   137  H    0.092819
   138  H    0.161928
 Sum of Mulliken charges =   0.00000

 Dipole moment (field-independent basis, Debye):
    X=              2.1693    Y=              4.0260    Z=              0.0523  Tot=              4.5736
 Quadrupole moment (field-independent basis, Debye-Ang):
   XX=           -346.2838   YY=           -375.1304   ZZ=           -392.8794
   XY=            -28.7772   XZ=              9.9371   YZ=             -4.7838

 Normal termination of Gaussian 09 at Sat Jul 27 04:35:03 2019.
