 Gaussian 09, Revision D.01,
 Gaussian 09:  ES64L-G09RevD.01 24-Apr-2013

 --------------------------
 # td=(NStates=1) B3LYP/SVP
 --------------------------

 --
 TD
 --
 Symbolic Z-matrix:
 Charge =  0 Multiplicity = 1

                         Standard orientation:
 ---------------------------------------------------------------------
 Center     Atomic      Atomic             Coordinates (Angstroms)
 Number     Number       Type             X           Y           Z
 ---------------------------------------------------------------------
      1          6           0       -5.139015   -1.849333    0.450815
      2          6           0       -4.744405    2.780737    1.342305
      3          6           0       -9.349024    3.361667   -0.159535
      4          6           0       -9.915362   -1.468457   -0.871588
      5          7           0       -5.162345    0.516761    0.722194
      6          6           0       -4.492573   -0.671411    0.786747
      7          6           0       -3.051782   -0.459983    1.202302
      8          6           0       -3.043561    1.025651    1.679618
      9          6           0       -4.347646    1.520287    1.183976
     10          6           0       -2.871739    1.110536    3.226420
     11          6           0       -2.002882   -0.849986    0.164249
     12          6           0       -0.634646   -0.782126    0.532778
     13          6           0        0.340956   -1.152629   -0.518296
     14          8           0        0.061218   -1.647778   -1.599955
     15          8           0        1.588238   -0.849361   -0.154115
     16          7           0       -7.061405    2.770657    0.520717
     17          6           0       -5.981658    3.434225    0.949996
     18          6           0       -6.185239    4.846063    1.051773
     19          6           0       -7.560990    4.910048    0.530788
     20          6           0       -8.106138    3.690745    0.231716
     21          6           0       -5.274014    5.914579    1.344038
     22          6           0       -8.248335    6.289156    0.304940
     23          6           0       -9.162848    6.575674   -0.651585
     24          7           0       -9.235331    0.930135   -0.482931
     25          6           0       -9.954513    2.119428   -0.527906
     26          6           0      -11.286928    1.895576   -1.002346
     27          6           0      -11.503190    0.570527   -1.213622
     28          6           0      -10.216964   -0.023466   -0.824823
     29          6           0      -12.141804    3.040166   -1.355958
     30          6           0      -12.644455   -0.147434   -1.651823
     31          6           0      -12.791478   -0.645416   -3.100847
     32          7           0       -7.559123   -1.281668   -0.018512
     33          6           0       -8.666561   -1.952643   -0.500662
     34          6           0       -8.242088   -3.352920   -0.565750
     35          6           0       -6.908207   -3.356803   -0.212749
     36          6           0       -6.482348   -2.037780    0.026995
     37          6           0       -8.970924   -4.638638   -0.944844
     38          6           0       -5.764625   -4.208842    0.030041
     39          8           0       -5.673924   -5.440679   -0.055808
     40          6           0       -4.493518   -3.208782    0.400160
     41          6           0       -3.878620   -3.781567    1.768303
     42          8           0       -4.173332   -3.234237    2.821631
     43          8           0       -3.063141   -4.822560    1.602986
     44          6           0       -2.467498   -5.337393    2.811897
     45          6           0        2.635836   -1.218485   -1.098819
     46          6           0        3.973578   -0.935728   -0.416824
     47          6           0        4.983839   -0.303275   -0.955749
     48          6           0        4.961863    0.434878   -2.322224
     49          6           0        6.286755    0.024091   -0.165105
     50          6           0        7.579029   -0.698694   -0.870932
     51          6           0        8.937238   -0.464659   -0.186868
     52          6           0       10.088754   -1.073618   -0.771390
     53          6           0       10.017388   -2.619706   -0.935552
     54          6           0       11.285853   -0.559578   -0.017631
     55          6           0       12.666172   -0.698111   -0.668787
     56          6           0       13.898091   -0.038892    0.140231
     57          6           0       15.193838   -0.161771   -0.495061
     58          6           0       15.672661   -1.557436   -0.519991
     59          6           0       16.183593    0.824570    0.242500
     60          6           0       17.678866    0.844870   -0.141811
     61          6           0       18.587970    1.873565    0.556613
     62          6           0       20.114100    1.902680    0.062038
     63          6           0       20.290768    2.539568   -1.259754
     64          6           0       20.970695    2.744492    1.170988
     65          1           0       -3.778452    3.419624    1.743359
     66          1           0       -9.852848    4.261990   -0.170068
     67          1           0      -10.764312   -2.350005   -0.997397
     68          1           0       -2.801068   -1.134618    2.103128
     69          1           0       -2.167002    1.455448    1.159424
     70          1           0       -1.885335    0.923241    3.528621
     71          1           0       -3.087394    2.079970    3.621973
     72          1           0       -3.596430    0.500517    3.679764
     73          1           0       -2.318132   -1.751686   -0.276703
     74          1           0       -1.960458   -0.153235   -0.862452
     75          1           0       -0.083373    0.252565    1.234635
     76          1           0       -0.311259   -1.633137    1.305281
     77          1           0       -4.238009    5.911611    0.732795
     78          1           0       -5.576641    6.999298    1.073560
     79          1           0       -4.926175    5.746838    2.426887
     80          1           0       -8.082551    6.985231    1.025408
     81          1           0       -9.464273    5.901785   -1.429854
     82          1           0       -9.748507    7.498387   -0.456074
     83          1           0      -12.395393    3.622239   -0.511399
     84          1           0      -11.763544    3.841602   -1.963079
     85          1           0      -12.952212    2.729437   -1.976356
     86          1           0      -12.711553   -1.166214   -0.989253
     87          1           0      -13.432000    0.655751   -1.488428
     88          1           0      -12.815330    0.295820   -3.854569
     89          1           0      -11.857833   -1.059967   -3.246993
     90          1           0      -13.638910   -1.286886   -3.122254
     91          1           0       -9.672375   -4.794780   -0.180814
     92          1           0       -9.553641   -4.404055   -1.902244
     93          1           0       -8.186798   -5.466015   -1.010792
     94          1           0       -3.713134   -3.388946   -0.369080
     95          1           0       -1.858243   -6.247637    2.445727
     96          1           0       -1.850154   -4.552594    3.247282
     97          1           0       -3.029485   -5.729229    3.475814
     98          1           0        2.556133   -2.363245   -1.415740
     99          1           0        2.337927   -0.747807   -2.071794
    100          1           0        4.166267   -1.691630    0.490580
    101          1           0        5.086754    1.702715   -2.201839
    102          1           0        5.781723   -0.028575   -2.861262
    103          1           0        3.912144    0.214798   -2.843406
    104          1           0        6.527443    1.190660   -0.155877
    105          1           0        6.175669   -0.405909    0.893392
    106          1           0        7.166306   -1.724366   -1.082901
    107          1           0        7.860168   -0.379158   -1.859741
    108          1           0        9.255854    0.572405   -0.151257
    109          1           0        9.020028   -0.756877    0.831456
    110          1           0        9.972891   -0.732555   -1.824128
    111          1           0        9.277307   -2.935959   -1.567191
    112          1           0       10.949900   -3.083737   -1.340245
    113          1           0        9.761848   -3.186691   -0.013465
    114          1           0       11.049258    0.279485    0.171432
    115          1           0       11.328076   -1.090283    0.962476
    116          1           0       12.943500   -1.597907   -0.988644
    117          1           0       12.776468   -0.171476   -1.578481
    118          1           0       13.302900    1.055512    0.464041
    119          1           0       14.042504   -0.595392    0.969965
    120          1           0       15.023679    0.385230   -1.522138
    121          1           0       14.981124   -2.141980   -0.954189
    122          1           0       16.589000   -1.743752   -1.025653
    123          1           0       15.816632   -1.881290    0.616044
    124          1           0       15.622773    1.828273    0.076296
    125          1           0       16.127666    0.637061    1.205077
    126          1           0       18.158992   -0.114757   -0.221923
    127          1           0       17.686310    1.114899   -1.315410
    128          1           0       18.269868    2.906809    0.586542
    129          1           0       18.530648    1.607120    1.718207
    130          1           0       20.283797    0.924284    0.158956
    131          1           0       20.135476    3.615210   -1.215054
    132          1           0       21.347615    2.221429   -1.369403
    133          1           0       19.620574    2.168423   -2.013858
    134          1           0       20.938949    2.374615    2.263193
    135          1           0       22.068869    2.600435    0.951565
    136          1           0       20.651071    3.707134    1.271656
    137          1           0       -7.103152    1.823681    0.419492
    138          1           0       -7.646788   -0.222780   -0.141189
 ---------------------------------------------------------------------

 SCF Done:  E(RB3LYP) =  -2733.04663641     A.U. after   16 cycles

 Excitation energies and oscillator strengths:

 Excited State   1:      Singlet-A      2.0780 eV  596.64 nm  f=0.1186  <S**2>=0.000
     235 -> 237       -0.34971
     235 -> 238        0.26984
     236 -> 237        0.49599
     236 -> 238        0.23391
 This state for optimization and/or second-order correction.
 Total Energy, E(TD-HF/TD-KS) =  -2732.97026998
 Copying the excited state density for this state as the 1-particle RhoCI density.

 The electronic state is 1-A.
 Alpha  occ. eigenvalues --  -19.18821 -19.17770 -19.12183 -19.12092 -19.12037
 Alpha  occ. eigenvalues --  -14.36814 -14.36089 -14.31529 -14.30690 -10.31812
 Alpha  occ. eigenvalues --  -10.31229 -10.27939 -10.25988 -10.24202 -10.24184
 Alpha  occ. eigenvalues --  -10.23571 -10.23256 -10.22785 -10.22718 -10.22693
 Alpha  occ. eigenvalues --  -10.22313 -10.22073 -10.21707 -10.21646 -10.21624
 Alpha  occ. eigenvalues --  -10.21509 -10.21438 -10.21411 -10.21353 -10.20809
 Alpha  occ. eigenvalues --  -10.20668 -10.20635 -10.20380 -10.20270 -10.20112
 Alpha  occ. eigenvalues --  -10.20003 -10.19978 -10.19967 -10.19943 -10.19723
 Alpha  occ. eigenvalues --  -10.19701 -10.19662 -10.19518 -10.19453 -10.18908
 Alpha  occ. eigenvalues --  -10.18858 -10.18549 -10.18404 -10.18400 -10.18271
 Alpha  occ. eigenvalues --  -10.18268 -10.18198 -10.18071 -10.18009 -10.17996
 Alpha  occ. eigenvalues --  -10.17696 -10.17686 -10.17545 -10.17402 -10.17375
 Alpha  occ. eigenvalues --  -10.17270 -10.17033 -10.16651 -10.16427  -1.09637
 Alpha  occ. eigenvalues --   -1.09543  -1.01181  -1.00255  -0.99964  -0.99326
 Alpha  occ. eigenvalues --   -0.98424  -0.93718  -0.92387  -0.84237  -0.84127
 Alpha  occ. eigenvalues --   -0.82515  -0.82289  -0.81908  -0.81274  -0.81121
 Alpha  occ. eigenvalues --   -0.80428  -0.80121  -0.79880  -0.78996  -0.77644
 Alpha  occ. eigenvalues --   -0.76650  -0.76197  -0.75703  -0.75594  -0.74548
 Alpha  occ. eigenvalues --   -0.73981  -0.73491  -0.72621  -0.71502  -0.71220
 Alpha  occ. eigenvalues --   -0.70049  -0.69840  -0.69039  -0.68719  -0.68073
 Alpha  occ. eigenvalues --   -0.67945  -0.67355  -0.66843  -0.66239  -0.65831
 Alpha  occ. eigenvalues --   -0.64642  -0.63445  -0.62629  -0.62345  -0.61887
 Alpha  occ. eigenvalues --   -0.61151  -0.59637  -0.58701  -0.58467  -0.58154
 Alpha  occ. eigenvalues --   -0.57678  -0.56496  -0.56301  -0.56186  -0.55834
 Alpha  occ. eigenvalues --   -0.55269  -0.55059  -0.54911  -0.54323  -0.53145
 Alpha  occ. eigenvalues --   -0.52415  -0.51770  -0.50978  -0.50510  -0.50032
 Alpha  occ. eigenvalues --   -0.49675  -0.49423  -0.49336  -0.48929  -0.47937
 Alpha  occ. eigenvalues --   -0.47798  -0.47734  -0.47468  -0.46980  -0.46755
 Alpha  occ. eigenvalues --   -0.46431  -0.46335  -0.46112  -0.45742  -0.45715
 Alpha  occ. eigenvalues --   -0.45566  -0.45444  -0.45293  -0.44998  -0.44909
 Alpha  occ. eigenvalues --   -0.44838  -0.44590  -0.44071  -0.43930  -0.43690
 Alpha  occ. eigenvalues --   -0.43551  -0.43319  -0.43202  -0.42797  -0.42727
 Alpha  occ. eigenvalues --   -0.42511  -0.42169  -0.41857  -0.41646  -0.41522
 Alpha  occ. eigenvalues --   -0.41465  -0.41133  -0.40908  -0.40684  -0.40606
 Alpha  occ. eigenvalues --   -0.40393  -0.40236  -0.40050  -0.39832  -0.39396
 Alpha  occ. eigenvalues --   -0.39229  -0.39109  -0.38926  -0.38867  -0.38586
 Alpha  occ. eigenvalues --   -0.38379  -0.38079  -0.38024  -0.37974  -0.37707
 Alpha  occ. eigenvalues --   -0.37458  -0.37399  -0.37256  -0.37177  -0.36855
 Alpha  occ. eigenvalues --   -0.36671  -0.36336  -0.36206  -0.36139  -0.35955
 Alpha  occ. eigenvalues --   -0.35761  -0.35746  -0.35327  -0.35249  -0.35103
 Alpha  occ. eigenvalues --   -0.34737  -0.34570  -0.34326  -0.34185  -0.33795
 Alpha  occ. eigenvalues --   -0.33646  -0.33290  -0.33077  -0.32869  -0.32805
 Alpha  occ. eigenvalues --   -0.32460  -0.32211  -0.31956  -0.31437  -0.31251
 Alpha  occ. eigenvalues --   -0.30893  -0.30709  -0.30513  -0.30021  -0.29863
 Alpha  occ. eigenvalues --   -0.29650  -0.29196  -0.28139  -0.28118  -0.27945
 Alpha  occ. eigenvalues --   -0.27531  -0.27372  -0.26962  -0.26474  -0.26229
 Alpha  occ. eigenvalues --   -0.25738  -0.24581  -0.23798  -0.22445  -0.19684
 Alpha  occ. eigenvalues --   -0.19267
 Alpha virt. eigenvalues --   -0.10404  -0.07999  -0.04078  -0.01806  -0.00618
 Alpha virt. eigenvalues --   -0.00429  -0.00115   0.00599   0.01795   0.03126
 Alpha virt. eigenvalues --    0.03554   0.04257   0.04554   0.04697   0.05141

 Mulliken charges:
               1
     1  C    0.085884
     2  C   -0.091078
     3  C   -0.022831
     4  C   -0.121968
     5  N   -0.204596
     6  C   -0.061946
     7  C   -0.025614
     8  C   -0.001685
     9  C   -0.022099
    10  C    0.133130
    11  C    0.075705
    12  C   -0.061463
    13  C    0.163164
    14  O   -0.251404
    15  O   -0.303122
    16  N   -0.000986
    17  C    0.089159
    18  C   -0.082400
    19  C    0.003194
    20  C    0.077724
    21  C    0.000217
    22  C   -0.016427
    23  C   -0.015275
    24  N   -0.293238
    25  C    0.101752
    26  C   -0.119009
    27  C   -0.043114
    28  C    0.049749
    29  C    0.156973
    30  C   -0.059145
    31  C    0.070403
    32  N   -0.012632
    33  C    0.059132
    34  C   -0.191675
    35  C    0.050632
    36  C    0.018878
    37  C    0.109676
    38  C    0.053941
    39  O   -0.196770
    40  C   -0.108675
    41  C    0.198198
    42  O   -0.244827
    43  O   -0.281388
    44  C    0.250234
    45  C    0.177039
    46  C   -0.060493
    47  C   -0.130277
    48  C    0.007687
    49  C    0.037409
    50  C   -0.008717
    51  C    0.090578
    52  C   -0.125187
    53  C    0.065982
    54  C    0.243968
    55  C    0.128616
    56  C   -0.026933
    57  C   -0.094795
    58  C    0.110013
    59  C    0.089938
    60  C    0.035143
    61  C   -0.021141
    62  C   -0.054328
    63  C    0.091200
    64  C    0.008189
    65  H    0.008542
    66  H   -0.083938
    67  H    0.043017
    68  H    0.024555
    69  H   -0.006666
    70  H   -0.003414
    71  H   -0.015606
    72  H    0.014047
    73  H   -0.009339
    74  H    0.020662
    75  H    0.073259
    76  H    0.036929
    77  H    0.041274
    78  H    0.040959
    79  H    0.044561
    80  H   -0.020362
    81  H    0.026758
    82  H    0.027834
    83  H   -0.001564
    84  H   -0.008573
    85  H   -0.006877
    86  H    0.022032
    87  H    0.014113
    88  H    0.018250
    89  H   -0.010197
    90  H    0.023137
    91  H    0.018064
    92  H    0.033764
    93  H    0.065267
    94  H    0.065278
    95  H    0.036471
    96  H    0.026273
    97  H   -0.015162
    98  H    0.041492
    99  H    0.029698
   100  H    0.028920
   101  H    0.053667
   102  H    0.032291
   103  H    0.029046
   104  H    0.030166
   105  H    0.017536
   106  H    0.013825
   107  H   -0.007200
   108  H   -0.017949
   109  H   -0.041903
   110  H   -0.027910
   111  H   -0.027404
   112  H    0.004774
   113  H   -0.009311
   114  H   -0.143673
   115  H   -0.010880
   116  H   -0.066422
   117  H   -0.044461
   118  H    0.017490
   119  H   -0.049509
   120  H   -0.007534
   121  H   -0.030126
   122  H    0.004284
   123  H    0.014298
   124  H    0.000364
   125  H   -0.058157
   126  H   -0.013063
   127  H   -0.014289
   128  H   -0.021155
   129  H   -0.006340
   130  H   -0.039697
   131  H    0.005205
   132  H    0.014348
   133  H    0.004845
   134  H    0.003575
   135  H    0.012019
   136  H   -0.006438
   137  H    0.082400
   138  H    0.181557
 Sum of Mulliken charges =   0.00000

 Dipole moment (field-independent basis, Debye):
    X=              2.4014    Y=              3.3089    Z=              0.7048  Tot=              4.1487
 Quadrupole moment (field-independent basis, Debye-Ang):
   XX=           -350.3540   YY=           -378.5371   ZZ=           -396.1197
   XY=            -29.8082   XZ=              8.3439   YZ=             -2.8862

 Normal termination of Gaussian 09 at Thu Jul 25 14:37:09 2019.
