 Gaussian 09, Revision D.01,
 Gaussian 09:  ES64L-G09RevD.01 24-Apr-2013

 --------------------------
 # td=(NStates=1) B3LYP/SVP
 --------------------------

 --
 TD
 --
 Symbolic Z-matrix:
 Charge =  0 Multiplicity = 1

                         Standard orientation:
 ---------------------------------------------------------------------
 Center     Atomic      Atomic             Coordinates (Angstroms)
 Number     Number       Type             X           Y           Z
 ---------------------------------------------------------------------
      1          6           0       -5.138238   -1.951087    0.330665
      2          6           0       -4.635749    2.705923    1.515516
      3          6           0       -9.154644    3.417351   -0.286243
      4          6           0       -9.735281   -1.292681   -1.069056
      5          7           0       -5.131892    0.406383    0.899626
      6          6           0       -4.495372   -0.774757    0.891850
      7          6           0       -3.040914   -0.665965    1.417315
      8          6           0       -3.134215    0.832176    2.035994
      9          6           0       -4.342195    1.408612    1.456596
     10          6           0       -2.978109    1.019235    3.587821
     11          6           0       -1.893553   -0.785192    0.217668
     12          6           0       -0.549064   -0.798885    0.649452
     13          6           0        0.413282   -1.239670   -0.444284
     14          8           0        0.070914   -1.811076   -1.447146
     15          8           0        1.670505   -0.793081   -0.148967
     16          7           0       -7.008128    2.742401    0.522931
     17          6           0       -5.891541    3.353035    1.191393
     18          6           0       -6.133357    4.747866    1.198225
     19          6           0       -7.433977    4.993870    0.692014
     20          6           0       -7.956747    3.699153    0.227184
     21          6           0       -5.092208    5.691664    1.603989
     22          6           0       -7.992218    6.285135    0.506376
     23          6           0       -8.765653    6.669126   -0.432112
     24          7           0       -9.190716    1.042390   -0.495202
     25          6           0       -9.890459    2.203676   -0.670542
     26          6           0      -11.210376    2.041750   -1.121430
     27          6           0      -11.322610    0.745613   -1.414495
     28          6           0      -10.102775   -0.000720   -0.955975
     29          6           0      -12.234310    3.003389   -1.099521
     30          6           0      -12.589154    0.102146   -1.848394
     31          6           0      -12.707834   -0.153511   -3.478557
     32          7           0       -7.487019   -1.144610   -0.331416
     33          6           0       -8.568792   -1.984188   -0.857482
     34          6           0       -8.299702   -3.328738   -0.798313
     35          6           0       -6.926748   -3.331895   -0.456591
     36          6           0       -6.479474   -2.035640   -0.074623
     37          6           0       -9.107193   -4.430176   -1.156476
     38          6           0       -5.752352   -4.189061   -0.181425
     39          8           0       -5.699235   -5.403999   -0.411885
     40          6           0       -4.538593   -3.346600    0.340516
     41          6           0       -4.049097   -3.880874    1.679750
     42          8           0       -4.370745   -3.453773    2.723096
     43          8           0       -3.259902   -4.926059    1.539947
     44          6           0       -2.914514   -5.638157    2.744143
     45          6           0        2.677413   -1.108380   -1.120504
     46          6           0        3.970277   -0.803577   -0.514142
     47          6           0        4.992862   -0.098186   -0.989622
     48          6           0        5.020671    0.556795   -2.354938
     49          6           0        6.296437    0.067052   -0.183553
     50          6           0        7.526840   -0.540106   -0.842238
     51          6           0        8.855425   -0.401000    0.077386
     52          6           0        9.990641   -1.200462   -0.442189
     53          6           0       10.066305   -2.618485   -0.451116
     54          6           0       11.246558   -0.617604    0.346032
     55          6           0       12.652879   -0.781157   -0.338660
     56          6           0       13.780537   -0.081059    0.383064
     57          6           0       15.198010   -0.338050   -0.200222
     58          6           0       15.664452   -1.806876   -0.325254
     59          6           0       16.259947    0.706042    0.524434
     60          6           0       17.649901    0.753664   -0.298066
     61          6           0       18.597565    1.846241    0.273302
     62          6           0       19.916887    2.059201   -0.243842
     63          6           0       19.874254    2.565842   -1.790612
     64          6           0       20.784338    3.060228    0.379484
     65          1           0       -4.007985    3.383577    1.895696
     66          1           0       -9.694581    4.294179   -0.611385
     67          1           0      -10.547471   -2.058072   -1.343524
     68          1           0       -2.640025   -1.438676    2.231317
     69          1           0       -2.241197    1.431119    1.657905
     70          1           0       -2.129947    0.411839    4.039989
     71          1           0       -2.756767    2.039494    3.854427
     72          1           0       -3.923897    0.696012    4.008657
     73          1           0       -2.094719   -1.662704   -0.340724
     74          1           0       -2.237313   -0.105654   -0.591033
     75          1           0       -0.079758    0.104810    1.035578
     76          1           0       -0.582619   -1.688806    1.443185
     77          1           0       -4.035489    5.842188    1.119002
     78          1           0       -5.476631    6.586775    1.671885
     79          1           0       -4.601535    5.473881    2.523611
     80          1           0       -7.546475    7.184929    1.167817
     81          1           0       -9.267339    6.153165   -1.414707
     82          1           0       -8.974515    7.764038   -0.535727
     83          1           0      -12.488039    3.284996    0.113323
     84          1           0      -12.071469    4.155852   -1.522500
     85          1           0      -13.192510    2.538680   -1.533889
     86          1           0      -12.534881   -1.025640   -1.233027
     87          1           0      -13.482360    0.767284   -1.737426
     88          1           0      -12.577947    0.780848   -3.879223
     89          1           0      -11.805489   -0.561321   -3.999104
     90          1           0      -13.552761   -0.680025   -3.894217
     91          1           0      -10.027671   -4.733834   -0.763317
     92          1           0       -9.322562   -4.467927   -2.282121
     93          1           0       -8.514142   -5.492340   -1.197431
     94          1           0       -3.731040   -3.406213   -0.485967
     95          1           0       -2.329669   -6.549091    2.454375
     96          1           0       -2.674260   -4.889165    3.439526
     97          1           0       -3.762231   -6.260920    3.230684
     98          1           0        2.368565   -2.227050   -1.174153
     99          1           0        2.475241   -0.707472   -2.083901
    100          1           0        4.031094   -1.156398    0.480220
    101          1           0        5.227727    1.631737   -2.161314
    102          1           0        5.834755    0.291634   -2.949716
    103          1           0        4.002297    0.648471   -2.875311
    104          1           0        6.468523    1.100496   -0.121558
    105          1           0        6.111545   -0.341969    0.802673
    106          1           0        7.488585   -1.611662   -1.015928
    107          1           0        7.827447   -0.141928   -1.784388
    108          1           0        8.995444    0.529713   -0.074842
    109          1           0        8.518001   -0.869058    0.956961
    110          1           0       10.144601   -0.619335   -1.362987
    111          1           0        9.281790   -3.016754   -0.967100
    112          1           0       11.045517   -3.047580   -0.934116
    113          1           0        9.699659   -2.908511    0.684078
    114          1           0       11.161364    0.607595    0.446965
    115          1           0       11.565243   -0.947017    1.342021
    116          1           0       12.797669   -1.960965   -0.164415
    117          1           0       12.722463   -0.512605   -1.304929
    118          1           0       13.586398    1.034782    0.399707
    119          1           0       13.775883   -0.594950    1.366147
    120          1           0       15.068465   -0.101134   -1.296134
    121          1           0       14.899378   -2.598974   -0.767392
    122          1           0       16.509879   -1.874195   -1.120630
    123          1           0       16.047712   -2.125927    0.677447
    124          1           0       15.747136    1.587896    0.844007
    125          1           0       16.725542    0.178170    1.470206
    126          1           0       18.065536   -0.256976   -0.434068
    127          1           0       17.310072    0.881660   -1.483808
    128          1           0       17.882241    2.860972    0.148131
    129          1           0       18.746218    1.623143    1.349524
    130          1           0       20.558560    1.066633   -0.254017
    131          1           0       19.702453    3.731495   -1.576088
    132          1           0       21.024692    2.388641   -2.154124
    133          1           0       19.127039    2.036498   -2.295965
    134          1           0       20.900810    2.681175    1.454929
    135          1           0       21.867773    3.185811   -0.132209
    136          1           0       20.424525    4.054736    0.235618
    137          1           0       -7.092231    1.727675    0.501922
    138          1           0       -7.579094   -0.196061   -0.383221
 ---------------------------------------------------------------------

 SCF Done:  E(RB3LYP) =  -2733.02046534     A.U. after   17 cycles

 Excitation energies and oscillator strengths:

 Excited State   1:      Singlet-A      2.0250 eV  612.28 nm  f=0.2066  <S**2>=0.000
     235 -> 237       -0.23369
     235 -> 238        0.24255
     236 -> 237        0.58328
     236 -> 238        0.20961
 This state for optimization and/or second-order correction.
 Total Energy, E(TD-HF/TD-KS) =  -2732.94604976
 Copying the excited state density for this state as the 1-particle RhoCI density.

 The electronic state is 1-A.
 Alpha  occ. eigenvalues --  -19.17507 -19.17400 -19.13005 -19.11820 -19.10968
 Alpha  occ. eigenvalues --  -14.36395 -14.35601 -14.31796 -14.30185 -10.31431
 Alpha  occ. eigenvalues --  -10.30915 -10.27141 -10.24643 -10.24331 -10.24007
 Alpha  occ. eigenvalues --  -10.23513 -10.23509 -10.23204 -10.22655 -10.22109
 Alpha  occ. eigenvalues --  -10.21880 -10.21638 -10.21517 -10.21495 -10.21452
 Alpha  occ. eigenvalues --  -10.21385 -10.21382 -10.21212 -10.20962 -10.20676
 Alpha  occ. eigenvalues --  -10.20480 -10.20338 -10.20304 -10.20287 -10.20242
 Alpha  occ. eigenvalues --  -10.20125 -10.20026 -10.19962 -10.19918 -10.19829
 Alpha  occ. eigenvalues --  -10.19706 -10.19575 -10.19447 -10.19243 -10.19210
 Alpha  occ. eigenvalues --  -10.19066 -10.19000 -10.18987 -10.18983 -10.18957
 Alpha  occ. eigenvalues --  -10.18906 -10.18892 -10.18886 -10.18876 -10.18751
 Alpha  occ. eigenvalues --  -10.18491 -10.18489 -10.18279 -10.18217 -10.17943
 Alpha  occ. eigenvalues --  -10.17868 -10.17864 -10.17625 -10.16765  -1.10884
 Alpha  occ. eigenvalues --   -1.09339  -1.01585  -1.01497  -1.00410  -0.96800
 Alpha  occ. eigenvalues --   -0.96415  -0.93402  -0.92155  -0.84224  -0.83548
 Alpha  occ. eigenvalues --   -0.82695  -0.82176  -0.82040  -0.81599  -0.81299
 Alpha  occ. eigenvalues --   -0.80931  -0.80162  -0.79778  -0.79229  -0.78010
 Alpha  occ. eigenvalues --   -0.77030  -0.76268  -0.75427  -0.75080  -0.74487
 Alpha  occ. eigenvalues --   -0.73585  -0.73409  -0.72205  -0.72064  -0.71710
 Alpha  occ. eigenvalues --   -0.70308  -0.69487  -0.69255  -0.68621  -0.67571
 Alpha  occ. eigenvalues --   -0.66906  -0.66599  -0.66125  -0.65812  -0.65462
 Alpha  occ. eigenvalues --   -0.64513  -0.62920  -0.62478  -0.62212  -0.61698
 Alpha  occ. eigenvalues --   -0.60963  -0.59310  -0.58842  -0.57802  -0.56956
 Alpha  occ. eigenvalues --   -0.56857  -0.56254  -0.56090  -0.55763  -0.55609
 Alpha  occ. eigenvalues --   -0.54964  -0.54457  -0.53597  -0.53388  -0.53177
 Alpha  occ. eigenvalues --   -0.52764  -0.52164  -0.51366  -0.50990  -0.50761
 Alpha  occ. eigenvalues --   -0.50510  -0.50272  -0.49418  -0.48748  -0.48491
 Alpha  occ. eigenvalues --   -0.48086  -0.47987  -0.47776  -0.47538  -0.47368
 Alpha  occ. eigenvalues --   -0.47160  -0.46631  -0.46406  -0.46162  -0.46029
 Alpha  occ. eigenvalues --   -0.45782  -0.45463  -0.45369  -0.45120  -0.45014
 Alpha  occ. eigenvalues --   -0.44847  -0.44625  -0.44489  -0.44321  -0.43972
 Alpha  occ. eigenvalues --   -0.43587  -0.43409  -0.43341  -0.43191  -0.43080
 Alpha  occ. eigenvalues --   -0.42408  -0.42122  -0.41669  -0.41652  -0.41584
 Alpha  occ. eigenvalues --   -0.41394  -0.41207  -0.41143  -0.40720  -0.40493
 Alpha  occ. eigenvalues --   -0.40107  -0.39956  -0.39499  -0.39395  -0.39234
 Alpha  occ. eigenvalues --   -0.39000  -0.38937  -0.38765  -0.38513  -0.38423
 Alpha  occ. eigenvalues --   -0.38259  -0.38122  -0.38069  -0.37640  -0.37245
 Alpha  occ. eigenvalues --   -0.37134  -0.36921  -0.36726  -0.36662  -0.36437
 Alpha  occ. eigenvalues --   -0.36210  -0.36067  -0.35840  -0.35553  -0.35513
 Alpha  occ. eigenvalues --   -0.35231  -0.34985  -0.34767  -0.34713  -0.34603
 Alpha  occ. eigenvalues --   -0.34532  -0.34439  -0.34265  -0.33984  -0.33594
 Alpha  occ. eigenvalues --   -0.33542  -0.33323  -0.33223  -0.33057  -0.32934
 Alpha  occ. eigenvalues --   -0.32413  -0.32159  -0.31669  -0.31203  -0.30989
 Alpha  occ. eigenvalues --   -0.30549  -0.30529  -0.30178  -0.30101  -0.29685
 Alpha  occ. eigenvalues --   -0.29243  -0.28636  -0.28568  -0.28150  -0.27879
 Alpha  occ. eigenvalues --   -0.27835  -0.26900  -0.26601  -0.26004  -0.25566
 Alpha  occ. eigenvalues --   -0.24897  -0.23933  -0.23917  -0.22512  -0.20292
 Alpha  occ. eigenvalues --   -0.18439
 Alpha virt. eigenvalues --   -0.10453  -0.08112  -0.04023  -0.01405  -0.00303
 Alpha virt. eigenvalues --    0.00376   0.00493   0.01276   0.01710   0.03362
 Alpha virt. eigenvalues --    0.03808   0.03949   0.03988   0.04361   0.04651

 Mulliken charges:
               1
     1  C   -0.038668
     2  C    0.002808
     3  C   -0.033666
     4  C   -0.073539
     5  N   -0.189078
     6  C   -0.013403
     7  C   -0.096091
     8  C   -0.032099
     9  C    0.073560
    10  C    0.068785
    11  C    0.039321
    12  C    0.091104
    13  C    0.151493
    14  O   -0.221242
    15  O   -0.330079
    16  N   -0.101093
    17  C    0.069139
    18  C   -0.105986
    19  C    0.081176
    20  C    0.112915
    21  C    0.163674
    22  C   -0.052114
    23  C   -0.107433
    24  N   -0.297536
    25  C    0.024706
    26  C   -0.017133
    27  C   -0.034839
    28  C    0.094654
    29  C   -0.050060
    30  C   -0.037667
    31  C    0.023728
    32  N   -0.051897
    33  C    0.040382
    34  C   -0.038730
    35  C    0.024622
    36  C    0.109921
    37  C    0.013310
    38  C    0.027216
    39  O   -0.200734
    40  C   -0.010731
    41  C    0.176280
    42  O   -0.192445
    43  O   -0.278355
    44  C    0.179064
    45  C    0.280345
    46  C   -0.061233
    47  C   -0.140482
    48  C    0.094452
    49  C    0.168830
    50  C   -0.031319
    51  C    0.148594
    52  C   -0.047276
    53  C    0.117595
    54  C   -0.045332
    55  C   -0.000526
    56  C    0.041741
    57  C   -0.086206
    58  C   -0.044021
    59  C    0.029970
    60  C   -0.050633
    61  C    0.057678
    62  C   -0.122920
    63  C   -0.022357
    64  C    0.028962
    65  H   -0.102759
    66  H   -0.055865
    67  H   -0.010089
    68  H    0.031299
    69  H    0.000760
    70  H    0.020671
    71  H    0.005753
    72  H    0.021873
    73  H   -0.007129
    74  H   -0.000940
    75  H    0.026426
    76  H    0.038418
    77  H    0.026028
    78  H   -0.055060
    79  H   -0.002436
    80  H    0.037251
    81  H    0.061028
    82  H    0.022448
    83  H    0.043620
    84  H    0.045829
    85  H    0.025159
    86  H    0.040593
    87  H    0.023287
    88  H   -0.020373
    89  H    0.000218
    90  H    0.023185
    91  H    0.019432
    92  H    0.030361
    93  H    0.048628
    94  H    0.078979
    95  H    0.043441
    96  H    0.028875
    97  H    0.027448
    98  H    0.019340
    99  H   -0.000105
   100  H   -0.037425
   101  H   -0.002276
   102  H    0.013177
   103  H    0.021833
   104  H   -0.020316
   105  H   -0.011520
   106  H   -0.018661
   107  H   -0.021192
   108  H   -0.063876
   109  H   -0.027243
   110  H   -0.034456
   111  H   -0.027384
   112  H    0.045312
   113  H    0.011878
   114  H   -0.009688
   115  H   -0.012519
   116  H    0.010762
   117  H   -0.040879
   118  H    0.006761
   119  H   -0.010706
   120  H   -0.009043
   121  H    0.032841
   122  H    0.023981
   123  H    0.017682
   124  H    0.003823
   125  H    0.011096
   126  H    0.002895
   127  H    0.007294
   128  H    0.009822
   129  H   -0.005284
   130  H    0.004302
   131  H    0.021046
   132  H    0.030595
   133  H    0.005853
   134  H    0.013050
   135  H    0.015879
   136  H   -0.004523
   137  H    0.146741
   138  H    0.085671
 Sum of Mulliken charges =   0.00000

 Dipole moment (field-independent basis, Debye):
    X=              2.7368    Y=              4.5996    Z=              0.5474  Tot=              5.3801
 Quadrupole moment (field-independent basis, Debye-Ang):
   XX=           -366.1288   YY=           -376.9036   ZZ=           -393.7792
   XY=            -29.5557   XZ=             11.3827   YZ=             -4.1487

 Normal termination of Gaussian 09 at Sun Aug  4 08:53:21 2019.
