 Gaussian 09, Revision D.01,
 Gaussian 09:  ES64L-G09RevD.01 24-Apr-2013

 --------------------------
 # td=(NStates=1) B3LYP/SVP
 --------------------------

 --
 TD
 --
 Symbolic Z-matrix:
 Charge =  0 Multiplicity = 1

                         Standard orientation:
 ---------------------------------------------------------------------
 Center     Atomic      Atomic             Coordinates (Angstroms)
 Number     Number       Type             X           Y           Z
 ---------------------------------------------------------------------
      1          6           0       -5.111918   -1.881149    0.510277
      2          6           0       -4.723750    2.853574    1.412478
      3          6           0       -9.341813    3.307054   -0.115421
      4          6           0       -9.763104   -1.481369   -0.942637
      5          7           0       -5.161214    0.494769    0.896164
      6          6           0       -4.526200   -0.695712    0.833236
      7          6           0       -3.052172   -0.506716    1.354827
      8          6           0       -3.055049    0.928894    1.799435
      9          6           0       -4.382964    1.524920    1.300713
     10          6           0       -2.956142    1.081489    3.343644
     11          6           0       -1.994349   -0.818488    0.176923
     12          6           0       -0.582652   -0.714588    0.620644
     13          6           0        0.428033   -1.174263   -0.391824
     14          8           0        0.135137   -1.852059   -1.365925
     15          8           0        1.626896   -0.817979   -0.001824
     16          7           0       -7.084771    2.734257    0.548961
     17          6           0       -5.951695    3.392311    0.967837
     18          6           0       -6.240394    4.808789    0.946280
     19          6           0       -7.466513    4.974673    0.527883
     20          6           0       -8.013773    3.579049    0.188059
     21          6           0       -5.352955    5.914649    1.416218
     22          6           0       -8.163654    6.253099    0.260138
     23          6           0       -8.963224    6.652541   -0.772578
     24          7           0       -9.241117    0.901213   -0.473869
     25          6           0       -9.890284    2.042755   -0.529990
     26          6           0      -11.235281    1.798402   -0.984108
     27          6           0      -11.436305    0.454420   -1.191824
     28          6           0      -10.104302   -0.141540   -0.900609
     29          6           0      -12.262423    2.949254   -1.263406
     30          6           0      -12.599605   -0.302802   -1.639936
     31          6           0      -12.710210   -0.582549   -3.191725
     32          7           0       -7.574588   -1.259916   -0.056198
     33          6           0       -8.594119   -2.099887   -0.673172
     34          6           0       -8.174465   -3.424217   -0.652295
     35          6           0       -6.799313   -3.374103   -0.199897
     36          6           0       -6.524476   -2.015019    0.215722
     37          6           0       -9.007918   -4.672408   -1.008296
     38          6           0       -5.634017   -4.196279   -0.020595
     39          8           0       -5.486881   -5.529525   -0.038208
     40          6           0       -4.489979   -3.250307    0.386946
     41          6           0       -3.928341   -3.741257    1.608739
     42          8           0       -4.120275   -3.310593    2.769144
     43          8           0       -3.136954   -4.719361    1.445468
     44          6           0       -2.370045   -5.413809    2.644566
     45          6           0        2.701403   -1.262978   -0.928685
     46          6           0        4.041679   -0.617283   -0.491405
     47          6           0        4.938396    0.113244   -1.077340
     48          6           0        4.788221    0.599255   -2.544702
     49          6           0        6.203248    0.349375   -0.446221
     50          6           0        7.408632   -0.334520   -1.104635
     51          6           0        8.763941   -0.160506   -0.303236
     52          6           0       10.024367   -0.730917   -0.804297
     53          6           0       10.086960   -2.301801   -0.910560
     54          6           0       11.209870   -0.282162   -0.024393
     55          6           0       12.637651   -0.650588   -0.654091
     56          6           0       13.759756    0.041471    0.194503
     57          6           0       15.233186   -0.161054   -0.275221
     58          6           0       15.623511   -1.661772   -0.415690
     59          6           0       16.293471    0.715305    0.546656
     60          6           0       17.664797    0.781480   -0.152617
     61          6           0       18.646018    1.599547    0.555962
     62          6           0       20.086085    1.596284    0.075152
     63          6           0       20.131805    2.145718   -1.376608
     64          6           0       20.934844    2.474258    1.068378
     65          1           0       -3.803204    3.377934    1.642632
     66          1           0       -9.985516    4.173240   -0.020644
     67          1           0      -10.798921   -2.114300   -1.169352
     68          1           0       -3.085504   -1.089012    2.223253
     69          1           0       -2.155790    1.390612    1.201263
     70          1           0       -1.988882    0.861687    3.667252
     71          1           0       -3.223288    2.256156    3.615359
     72          1           0       -3.867700    0.508880    3.809367
     73          1           0       -2.188975   -1.757532   -0.215940
     74          1           0       -2.004647   -0.047710   -0.509607
     75          1           0       -0.370330    0.432845    1.078327
     76          1           0       -0.604481   -1.382033    1.532517
     77          1           0       -4.414401    5.943990    0.842025
     78          1           0       -5.634252    7.104396    1.165131
     79          1           0       -5.000623    5.745602    2.469108
     80          1           0       -7.806643    7.003241    1.095551
     81          1           0       -9.445013    5.980859   -1.553072
     82          1           0       -9.358591    7.711970   -0.721821
     83          1           0      -12.461180    3.418879   -0.312467
     84          1           0      -12.050889    3.932443   -2.020285
     85          1           0      -13.251579    2.479025   -1.513072
     86          1           0      -12.489575   -1.262868   -0.964451
     87          1           0      -13.519546    0.180649   -1.438779
     88          1           0      -12.730251    0.478982   -3.745585
     89          1           0      -11.899696   -1.106511   -3.752270
     90          1           0      -13.742299   -1.061093   -3.376432
     91          1           0       -9.811550   -4.974866   -0.484126
     92          1           0       -9.536901   -4.559317   -1.915859
     93          1           0       -8.526723   -5.755661   -0.824628
     94          1           0       -3.739965   -3.225385   -0.528513
     95          1           0       -1.862908   -6.194855    2.167462
     96          1           0       -2.164906   -4.590605    3.314385
     97          1           0       -3.078779   -5.905501    3.228262
     98          1           0        2.601040   -2.404609   -0.933965
     99          1           0        2.349968   -0.905207   -1.880215
    100          1           0        4.240958   -1.049688    0.522916
    101          1           0        5.294267    1.640901   -2.694195
    102          1           0        5.190430   -0.282470   -3.352399
    103          1           0        3.645012    0.579259   -2.709709
    104          1           0        6.515055    1.368185   -0.457978
    105          1           0        6.288918   -0.136579    0.565542
    106          1           0        7.122657   -1.432223   -1.457603
    107          1           0        7.640225    0.048853   -2.187905
    108          1           0        9.005151    0.795328   -0.067995
    109          1           0        8.377462   -0.513243    0.793810
    110          1           0       10.258846   -0.254629   -1.956755
    111          1           0        9.273333   -2.675559   -1.363628
    112          1           0       10.924509   -2.712291   -1.340958
    113          1           0        9.978928   -2.545145    0.323071
    114          1           0       11.251704    0.762730   -0.030305
    115          1           0       11.015663   -0.445076    0.964061
    116          1           0       12.793870   -1.721696   -0.629843
    117          1           0       12.763010   -0.251350   -1.718128
    118          1           0       13.641311    1.187448    0.385703
    119          1           0       13.572948   -0.202149    1.233448
    120          1           0       15.263490    0.001075   -1.392885
    121          1           0       14.914797   -2.267685   -0.847195
    122          1           0       16.617302   -1.745941   -0.697440
    123          1           0       15.681770   -1.950362    0.684237
    124          1           0       15.875323    1.693639    0.791724
    125          1           0       16.395598    0.191386    1.439423
    126          1           0       18.192795   -0.358498   -0.204084
    127          1           0       17.421145    1.039950   -1.202077
    128          1           0       18.235396    2.698629    0.678472
    129          1           0       18.549054    1.169257    1.618136
    130          1           0       20.404872    0.656516   -0.007953
    131          1           0       19.678156    3.022122   -1.446365
    132          1           0       21.214642    2.426686   -1.619202
    133          1           0       19.826482    1.371878   -2.229663
    134          1           0       20.714917    2.172976    2.014508
    135          1           0       21.997026    2.352348    0.549138
    136          1           0       20.746783    3.327587    0.850197
    137          1           0       -7.049126    1.773725    0.457388
    138          1           0       -7.748560   -0.326939   -0.106182
 ---------------------------------------------------------------------

 SCF Done:  E(RB3LYP) =  -2733.01770384     A.U. after   17 cycles

 Excitation energies and oscillator strengths:

 Excited State   1:      Singlet-A      2.1615 eV  573.60 nm  f=0.1550  <S**2>=0.000
     235 -> 237       -0.25998
     235 -> 238       -0.29681
     236 -> 237        0.56079
     236 -> 238       -0.14775
 This state for optimization and/or second-order correction.
 Total Energy, E(TD-HF/TD-KS) =  -2732.93826984
 Copying the excited state density for this state as the 1-particle RhoCI density.

 The electronic state is 1-A.
 Alpha  occ. eigenvalues --  -19.18182 -19.16326 -19.12067 -19.10306 -19.09341
 Alpha  occ. eigenvalues --  -14.37942 -14.36443 -14.31489 -14.29807 -10.31184
 Alpha  occ. eigenvalues --  -10.29684 -10.27079 -10.25805 -10.25164 -10.24683
 Alpha  occ. eigenvalues --  -10.24285 -10.23946 -10.22870 -10.22667 -10.22260
 Alpha  occ. eigenvalues --  -10.22235 -10.22216 -10.22121 -10.21693 -10.21387
 Alpha  occ. eigenvalues --  -10.21343 -10.21331 -10.21263 -10.21231 -10.20775
 Alpha  occ. eigenvalues --  -10.20618 -10.20555 -10.20464 -10.20418 -10.20298
 Alpha  occ. eigenvalues --  -10.20283 -10.20229 -10.20206 -10.20147 -10.20063
 Alpha  occ. eigenvalues --  -10.19989 -10.19812 -10.19708 -10.19467 -10.19381
 Alpha  occ. eigenvalues --  -10.19238 -10.19220 -10.19177 -10.19145 -10.19130
 Alpha  occ. eigenvalues --  -10.19055 -10.18720 -10.18718 -10.18638 -10.18567
 Alpha  occ. eigenvalues --  -10.18501 -10.18038 -10.18015 -10.17854 -10.17848
 Alpha  occ. eigenvalues --  -10.17825 -10.17067 -10.16536 -10.16284  -1.09993
 Alpha  occ. eigenvalues --   -1.08503  -1.00964  -1.00227  -0.98321  -0.95965
 Alpha  occ. eigenvalues --   -0.94640  -0.93797  -0.93281  -0.84811  -0.83884
 Alpha  occ. eigenvalues --   -0.83574  -0.82158  -0.81743  -0.81384  -0.81002
 Alpha  occ. eigenvalues --   -0.80242  -0.79704  -0.79501  -0.78816  -0.77612
 Alpha  occ. eigenvalues --   -0.76940  -0.76099  -0.75528  -0.75223  -0.74340
 Alpha  occ. eigenvalues --   -0.73745  -0.73314  -0.72664  -0.71725  -0.71111
 Alpha  occ. eigenvalues --   -0.70666  -0.70010  -0.68724  -0.68615  -0.68225
 Alpha  occ. eigenvalues --   -0.67525  -0.67407  -0.67047  -0.66667  -0.66109
 Alpha  occ. eigenvalues --   -0.64400  -0.63502  -0.63380  -0.62407  -0.61959
 Alpha  occ. eigenvalues --   -0.61273  -0.59289  -0.58998  -0.58775  -0.58134
 Alpha  occ. eigenvalues --   -0.57156  -0.57062  -0.55981  -0.55753  -0.55592
 Alpha  occ. eigenvalues --   -0.55453  -0.55234  -0.54633  -0.54203  -0.53107
 Alpha  occ. eigenvalues --   -0.52771  -0.52021  -0.51497  -0.51255  -0.50574
 Alpha  occ. eigenvalues --   -0.50424  -0.49575  -0.49020  -0.48441  -0.48051
 Alpha  occ. eigenvalues --   -0.47714  -0.47634  -0.47512  -0.47310  -0.46959
 Alpha  occ. eigenvalues --   -0.46729  -0.46553  -0.46448  -0.46264  -0.45891
 Alpha  occ. eigenvalues --   -0.45813  -0.45782  -0.45333  -0.45276  -0.45182
 Alpha  occ. eigenvalues --   -0.45088  -0.44244  -0.44131  -0.44096  -0.43931
 Alpha  occ. eigenvalues --   -0.43485  -0.43073  -0.43024  -0.42747  -0.42537
 Alpha  occ. eigenvalues --   -0.42136  -0.42034  -0.41938  -0.41653  -0.41501
 Alpha  occ. eigenvalues --   -0.41186  -0.40857  -0.40697  -0.40174  -0.40069
 Alpha  occ. eigenvalues --   -0.39889  -0.39837  -0.39650  -0.39382  -0.39152
 Alpha  occ. eigenvalues --   -0.38888  -0.38787  -0.38613  -0.38271  -0.38167
 Alpha  occ. eigenvalues --   -0.38119  -0.37627  -0.37444  -0.37371  -0.37273
 Alpha  occ. eigenvalues --   -0.37110  -0.36939  -0.36884  -0.36704  -0.36528
 Alpha  occ. eigenvalues --   -0.36206  -0.36156  -0.36051  -0.35905  -0.35847
 Alpha  occ. eigenvalues --   -0.35158  -0.35061  -0.34963  -0.34892  -0.34644
 Alpha  occ. eigenvalues --   -0.34483  -0.34365  -0.34271  -0.33739  -0.33319
 Alpha  occ. eigenvalues --   -0.33109  -0.33049  -0.32979  -0.32916  -0.32659
 Alpha  occ. eigenvalues --   -0.32277  -0.31894  -0.31833  -0.31409  -0.31385
 Alpha  occ. eigenvalues --   -0.31181  -0.31090  -0.30934  -0.30418  -0.29622
 Alpha  occ. eigenvalues --   -0.29199  -0.28728  -0.28604  -0.28527  -0.28090
 Alpha  occ. eigenvalues --   -0.26556  -0.26227  -0.26172  -0.25632  -0.25448
 Alpha  occ. eigenvalues --   -0.25369  -0.25245  -0.23353  -0.22578  -0.19908
 Alpha  occ. eigenvalues --   -0.19391
 Alpha virt. eigenvalues --   -0.10310  -0.07883  -0.04686  -0.02272  -0.00780
 Alpha virt. eigenvalues --    0.00049   0.00115   0.01496   0.02351   0.03448
 Alpha virt. eigenvalues --    0.03753   0.03813   0.04290   0.04423   0.04475

 Mulliken charges:
               1
     1  C   -0.014720
     2  C   -0.058256
     3  C   -0.082802
     4  C   -0.094028
     5  N   -0.178324
     6  C   -0.115163
     7  C    0.024284
     8  C   -0.083789
     9  C   -0.052745
    10  C    0.037587
    11  C    0.139852
    12  C   -0.046425
    13  C    0.187351
    14  O   -0.256844
    15  O   -0.293771
    16  N    0.064105
    17  C    0.124221
    18  C   -0.077287
    19  C   -0.019397
    20  C    0.056860
    21  C    0.043655
    22  C   -0.069554
    23  C   -0.052930
    24  N   -0.243760
    25  C    0.059981
    26  C   -0.128465
    27  C   -0.044093
    28  C    0.004049
    29  C    0.042770
    30  C    0.049558
    31  C   -0.047415
    32  N    0.001984
    33  C    0.085074
    34  C   -0.058818
    35  C   -0.025891
    36  C    0.119651
    37  C    0.118599
    38  C    0.064707
    39  O   -0.296375
    40  C    0.001614
    41  C    0.186272
    42  O   -0.303863
    43  O   -0.283823
    44  C    0.264687
    45  C    0.249999
    46  C   -0.107735
    47  C   -0.081892
    48  C   -0.022859
    49  C    0.140950
    50  C   -0.082923
    51  C    0.073529
    52  C   -0.107084
    53  C    0.092246
    54  C    0.076586
    55  C    0.037493
    56  C    0.003306
    57  C   -0.094688
    58  C    0.076753
    59  C    0.087864
    60  C   -0.035338
    61  C   -0.006351
    62  C   -0.047810
    63  C    0.025567
    64  C    0.204832
    65  H   -0.015757
    66  H   -0.015166
    67  H    0.025958
    68  H   -0.006208
    69  H    0.000428
    70  H    0.015467
    71  H    0.015150
    72  H    0.054087
    73  H   -0.006657
    74  H   -0.020587
    75  H    0.047535
    76  H    0.035006
    77  H    0.015055
    78  H    0.047820
    79  H    0.037942
    80  H    0.036895
    81  H    0.051203
    82  H    0.039102
    83  H    0.010193
    84  H    0.047040
    85  H    0.004098
    86  H    0.025794
    87  H   -0.010801
    88  H    0.025076
    89  H    0.030635
    90  H    0.029482
    91  H   -0.020066
    92  H   -0.000679
    93  H    0.054808
    94  H    0.104982
    95  H    0.042250
    96  H    0.047275
    97  H    0.011325
    98  H    0.048509
    99  H    0.004637
   100  H    0.000289
   101  H    0.047493
   102  H    0.060731
   103  H    0.034233
   104  H   -0.010254
   105  H    0.004900
   106  H    0.015852
   107  H   -0.000795
   108  H   -0.042966
   109  H   -0.009679
   110  H   -0.003653
   111  H   -0.027158
   112  H   -0.001192
   113  H    0.007435
   114  H   -0.035202
   115  H   -0.040687
   116  H    0.016506
   117  H    0.012721
   118  H   -0.012683
   119  H   -0.024694
   120  H   -0.011761
   121  H   -0.002244
   122  H   -0.013835
   123  H   -0.021565
   124  H   -0.005289
   125  H   -0.025211
   126  H    0.009992
   127  H    0.003897
   128  H   -0.005278
   129  H   -0.009299
   130  H   -0.046495
   131  H   -0.029376
   132  H   -0.007139
   133  H    0.034502
   134  H   -0.004076
   135  H    0.007514
   136  H   -0.090125
   137  H    0.104528
   138  H    0.077468
 Sum of Mulliken charges =   0.00000

 Dipole moment (field-independent basis, Debye):
    X=              2.8935    Y=              5.7361    Z=              0.4458  Tot=              6.4400
 Quadrupole moment (field-independent basis, Debye-Ang):
   XX=           -345.7773   YY=           -381.0868   ZZ=           -395.7605
   XY=            -25.4175   XZ=              8.3107   YZ=             -2.6556

 Normal termination of Gaussian 09 at Wed Jul 24 06:20:19 2019.
