 Gaussian 09, Revision D.01,
 Gaussian 09:  ES64L-G09RevD.01 24-Apr-2013

 --------------------------
 # td=(NStates=1) B3LYP/SVP
 --------------------------

 --
 TD
 --
 Symbolic Z-matrix:
 Charge =  0 Multiplicity = 1

                         Standard orientation:
 ---------------------------------------------------------------------
 Center     Atomic      Atomic             Coordinates (Angstroms)
 Number     Number       Type             X           Y           Z
 ---------------------------------------------------------------------
      1          6           0       -5.187576   -1.902826    0.380687
      2          6           0       -4.756390    2.716930    1.372885
      3          6           0       -9.376449    3.290908   -0.180430
      4          6           0       -9.821752   -1.522598   -0.858750
      5          7           0       -5.147962    0.427316    0.721422
      6          6           0       -4.468149   -0.764917    0.663333
      7          6           0       -3.064450   -0.510815    1.228948
      8          6           0       -3.139320    0.855577    1.833993
      9          6           0       -4.415243    1.320069    1.294597
     10          6           0       -3.135113    0.856812    3.406684
     11          6           0       -2.128918   -0.782937    0.129595
     12          6           0       -0.593017   -0.752007    0.566649
     13          6           0        0.419589   -0.924227   -0.561717
     14          8           0        0.210303   -1.285884   -1.686007
     15          8           0        1.715827   -0.754752   -0.145468
     16          7           0       -6.984462    2.712207    0.412577
     17          6           0       -5.922576    3.351675    0.960550
     18          6           0       -6.150781    4.774786    0.901756
     19          6           0       -7.536086    4.892012    0.448038
     20          6           0       -8.048932    3.583950    0.139904
     21          6           0       -5.358634    5.828564    1.484393
     22          6           0       -8.274172    6.196471    0.244216
     23          6           0       -9.034773    6.505371   -0.760496
     24          7           0       -9.219679    0.874053   -0.480921
     25          6           0       -9.952166    2.026954   -0.483157
     26          6           0      -11.339660    1.856740   -0.829830
     27          6           0      -11.481784    0.509972   -1.066133
     28          6           0      -10.124744   -0.115358   -0.807743
     29          6           0      -12.239524    3.043152   -1.096192
     30          6           0      -12.733116   -0.152310   -1.469923
     31          6           0      -12.884260   -0.387923   -2.998206
     32          7           0       -7.619955   -1.296509   -0.234467
     33          6           0       -8.639903   -2.025702   -0.629428
     34          6           0       -8.190960   -3.430992   -0.748256
     35          6           0       -6.831445   -3.359418   -0.377790
     36          6           0       -6.538088   -2.073898    0.016433
     37          6           0       -9.045641   -4.520768   -1.063858
     38          6           0       -5.659950   -4.305996    0.059690
     39          8           0       -5.551711   -5.520055   -0.095894
     40          6           0       -4.537794   -3.241520    0.402524
     41          6           0       -4.058959   -3.679524    1.785975
     42          8           0       -4.282828   -3.282886    2.928578
     43          8           0       -2.986875   -4.571648    1.630828
     44          6           0       -2.703572   -5.264857    2.820611
     45          6           0        2.669465   -1.001612   -1.094127
     46          6           0        4.068197   -0.784981   -0.502240
     47          6           0        5.044483   -0.052986   -1.085532
     48          6           0        5.027114    0.435065   -2.518399
     49          6           0        6.280727    0.094114   -0.295435
     50          6           0        7.591727   -0.573427   -0.874276
     51          6           0        8.862355   -0.499929   -0.042710
     52          6           0       10.154504   -0.929623   -0.753163
     53          6           0       10.230090   -2.354932   -1.268416
     54          6           0       11.320797   -0.458289   -0.109983
     55          6           0       12.769868   -0.515191   -0.690980
     56          6           0       13.846741    0.046247    0.182834
     57          6           0       15.240572   -0.117540   -0.398120
     58          6           0       15.797016   -1.556842   -0.757258
     59          6           0       16.252061    0.620695    0.466938
     60          6           0       17.585014    0.863407   -0.148157
     61          6           0       18.633519    1.640224    0.578217
     62          6           0       20.094010    1.765075    0.228454
     63          6           0       20.202448    2.561795   -1.107967
     64          6           0       20.929642    2.371165    1.373076
     65          1           0       -4.123393    3.380439    1.811508
     66          1           0       -9.903672    4.076392   -0.350533
     67          1           0      -10.472592   -2.279965   -1.221191
     68          1           0       -2.974368   -1.175596    2.147639
     69          1           0       -2.362332    1.497513    1.491570
     70          1           0       -2.078170    0.586753    3.898415
     71          1           0       -2.987394    1.868786    3.786364
     72          1           0       -3.788391    0.284267    4.003004
     73          1           0       -2.291484   -1.673931   -0.442423
     74          1           0       -2.489593    0.017054   -0.689142
     75          1           0       -0.541984    0.299348    1.157629
     76          1           0       -0.200385   -1.387633    1.340986
     77          1           0       -4.298511    5.801636    1.063162
     78          1           0       -5.733738    6.948172    1.245643
     79          1           0       -5.119094    5.683997    2.577222
     80          1           0       -7.865242    7.052792    0.781871
     81          1           0       -9.563327    5.706789   -1.544434
     82          1           0       -9.483571    7.462378   -0.714357
     83          1           0      -12.533592    3.541982   -0.166708
     84          1           0      -11.837958    3.976191   -1.545702
     85          1           0      -13.294164    2.503782   -1.574215
     86          1           0      -12.919944   -1.244022   -0.880643
     87          1           0      -13.550987    0.485484   -1.323485
     88          1           0      -12.843301    0.482991   -3.726717
     89          1           0      -11.936561   -0.869176   -3.338309
     90          1           0      -13.768891   -1.078562   -3.275318
     91          1           0       -9.885884   -4.472446   -0.294512
     92          1           0       -9.594992   -4.534857   -2.226265
     93          1           0       -8.585529   -5.649587   -1.101860
     94          1           0       -3.720882   -3.162312   -0.220431
     95          1           0       -1.867474   -6.125820    2.655377
     96          1           0       -2.249133   -4.483186    3.604472
     97          1           0       -3.428259   -5.741436    3.359448
     98          1           0        2.599000   -1.962445   -1.589765
     99          1           0        2.422278   -0.348312   -1.898192
    100          1           0        4.495327   -1.116683    0.409424
    101          1           0        5.557280    1.386333   -2.542825
    102          1           0        5.722039   -0.114045   -3.247422
    103          1           0        4.141562    0.598303   -2.901483
    104          1           0        6.412475    1.220045    0.002294
    105          1           0        5.985369   -0.124436    0.929956
    106          1           0        7.377941   -1.573109   -1.261954
    107          1           0        7.872440    0.114593   -1.773897
    108          1           0        8.862284    0.523024    0.217071
    109          1           0        8.737722   -0.961410    0.928515
    110          1           0        9.923401   -0.239864   -1.781544
    111          1           0        9.301090   -2.734817   -1.947241
    112          1           0       11.197821   -2.736505   -1.734301
    113          1           0       10.266936   -2.972151   -0.252852
    114          1           0       11.272268    0.494266    0.142349
    115          1           0       11.505165   -1.007947    0.893359
    116          1           0       13.019011   -1.655249   -0.878099
    117          1           0       12.737643    0.018418   -1.702949
    118          1           0       13.742640    0.967814    0.569150
    119          1           0       13.853863   -0.443146    1.184124
    120          1           0       15.290566    0.348194   -1.440348
    121          1           0       15.165924   -2.147575   -1.609873
    122          1           0       16.994694   -1.457328   -0.907606
    123          1           0       15.599897   -2.332039    0.216799
    124          1           0       15.656761    1.496499    0.753979
    125          1           0       16.407150   -0.020543    1.292455
    126          1           0       18.078865   -0.115906   -0.583131
    127          1           0       17.455219    1.353592   -1.123994
    128          1           0       18.277883    2.721962    0.928520
    129          1           0       18.668089    1.060825    1.674141
    130          1           0       20.526799    0.693402    0.086588
    131          1           0       19.734207    3.564725   -1.102466
    132          1           0       21.177605    2.557331   -1.459922
    133          1           0       19.649345    1.759431   -1.860572
    134          1           0       20.710053    1.744634    2.350407
    135          1           0       22.024906    2.365183    0.987654
    136          1           0       20.710702    3.358925    1.407129
    137          1           0       -7.089453    1.712571    0.301353
    138          1           0       -7.659579   -0.135172   -0.303310
 ---------------------------------------------------------------------

 SCF Done:  E(RB3LYP) =  -2733.04714457     A.U. after   17 cycles

 Excitation energies and oscillator strengths:

 Excited State   1:      Singlet-A      2.0799 eV  596.10 nm  f=0.1529  <S**2>=0.000
     235 -> 237       -0.27416
     235 -> 238       -0.24886
     236 -> 237        0.55356
     236 -> 238       -0.22999
 This state for optimization and/or second-order correction.
 Total Energy, E(TD-HF/TD-KS) =  -2732.97070870
 Copying the excited state density for this state as the 1-particle RhoCI density.

 The electronic state is 1-A.
 Alpha  occ. eigenvalues --  -19.17457 -19.17092 -19.14102 -19.13575 -19.12918
 Alpha  occ. eigenvalues --  -14.36752 -14.36478 -14.32009 -14.30995 -10.32630
 Alpha  occ. eigenvalues --  -10.31866 -10.29946 -10.24416 -10.23711 -10.23634
 Alpha  occ. eigenvalues --  -10.23611 -10.23326 -10.22874 -10.22639 -10.22545
 Alpha  occ. eigenvalues --  -10.22285 -10.22261 -10.22119 -10.22002 -10.21649
 Alpha  occ. eigenvalues --  -10.21493 -10.21392 -10.21304 -10.21115 -10.21083
 Alpha  occ. eigenvalues --  -10.20975 -10.20904 -10.20840 -10.20576 -10.20553
 Alpha  occ. eigenvalues --  -10.20363 -10.20347 -10.20208 -10.20189 -10.20111
 Alpha  occ. eigenvalues --  -10.20100 -10.19857 -10.19658 -10.19633 -10.19590
 Alpha  occ. eigenvalues --  -10.19501 -10.19363 -10.19315 -10.19288 -10.19225
 Alpha  occ. eigenvalues --  -10.19195 -10.19132 -10.18915 -10.18876 -10.18735
 Alpha  occ. eigenvalues --  -10.18613 -10.18590 -10.18262 -10.17994 -10.17937
 Alpha  occ. eigenvalues --  -10.17725 -10.17596 -10.17569 -10.17165  -1.10550
 Alpha  occ. eigenvalues --   -1.08831  -1.03068  -1.01443  -0.99887  -0.99760
 Alpha  occ. eigenvalues --   -0.97764  -0.96425  -0.93331  -0.86516  -0.83232
 Alpha  occ. eigenvalues --   -0.82352  -0.82210  -0.81689  -0.81522  -0.81191
 Alpha  occ. eigenvalues --   -0.80456  -0.80341  -0.80052  -0.79598  -0.78169
 Alpha  occ. eigenvalues --   -0.77227  -0.76954  -0.76576  -0.75277  -0.74615
 Alpha  occ. eigenvalues --   -0.73644  -0.73472  -0.72662  -0.71435  -0.70854
 Alpha  occ. eigenvalues --   -0.70567  -0.69107  -0.68766  -0.68524  -0.67669
 Alpha  occ. eigenvalues --   -0.67497  -0.67316  -0.66044  -0.65883  -0.65538
 Alpha  occ. eigenvalues --   -0.65148  -0.63808  -0.62069  -0.61871  -0.61480
 Alpha  occ. eigenvalues --   -0.61123  -0.59643  -0.59247  -0.58572  -0.57855
 Alpha  occ. eigenvalues --   -0.57346  -0.56816  -0.56252  -0.55754  -0.55259
 Alpha  occ. eigenvalues --   -0.54978  -0.54268  -0.53841  -0.53714  -0.53457
 Alpha  occ. eigenvalues --   -0.53167  -0.52490  -0.51935  -0.51640  -0.51205
 Alpha  occ. eigenvalues --   -0.50049  -0.49778  -0.49344  -0.49123  -0.48817
 Alpha  occ. eigenvalues --   -0.48763  -0.47920  -0.47534  -0.47395  -0.47290
 Alpha  occ. eigenvalues --   -0.46988  -0.46604  -0.46467  -0.46070  -0.46040
 Alpha  occ. eigenvalues --   -0.45749  -0.45537  -0.45263  -0.45119  -0.44875
 Alpha  occ. eigenvalues --   -0.44576  -0.44467  -0.44214  -0.44058  -0.43956
 Alpha  occ. eigenvalues --   -0.43661  -0.43521  -0.43415  -0.42700  -0.42619
 Alpha  occ. eigenvalues --   -0.42484  -0.42257  -0.42032  -0.41841  -0.41496
 Alpha  occ. eigenvalues --   -0.41289  -0.40788  -0.40769  -0.40650  -0.40469
 Alpha  occ. eigenvalues --   -0.40371  -0.40261  -0.39909  -0.39798  -0.39740
 Alpha  occ. eigenvalues --   -0.39639  -0.39381  -0.39340  -0.39047  -0.38976
 Alpha  occ. eigenvalues --   -0.38834  -0.38726  -0.38535  -0.38251  -0.37846
 Alpha  occ. eigenvalues --   -0.37549  -0.37291  -0.37159  -0.36912  -0.36747
 Alpha  occ. eigenvalues --   -0.36666  -0.36418  -0.36114  -0.35957  -0.35838
 Alpha  occ. eigenvalues --   -0.35616  -0.35388  -0.35071  -0.35020  -0.34924
 Alpha  occ. eigenvalues --   -0.34850  -0.34721  -0.34340  -0.34174  -0.33796
 Alpha  occ. eigenvalues --   -0.33583  -0.33468  -0.33040  -0.32696  -0.32471
 Alpha  occ. eigenvalues --   -0.32290  -0.32025  -0.32004  -0.31331  -0.31281
 Alpha  occ. eigenvalues --   -0.31066  -0.30383  -0.30070  -0.29968  -0.29834
 Alpha  occ. eigenvalues --   -0.29441  -0.28867  -0.28640  -0.28577  -0.28525
 Alpha  occ. eigenvalues --   -0.28098  -0.27797  -0.27330  -0.26489  -0.25937
 Alpha  occ. eigenvalues --   -0.25744  -0.24064  -0.23978  -0.23091  -0.20270
 Alpha  occ. eigenvalues --   -0.18934
 Alpha virt. eigenvalues --   -0.10396  -0.08153  -0.05525  -0.02169  -0.01618
 Alpha virt. eigenvalues --   -0.00414  -0.00093   0.00569   0.01855   0.02768
 Alpha virt. eigenvalues --    0.03464   0.03811   0.03860   0.04271   0.04324

 Mulliken charges:
               1
     1  C   -0.000008
     2  C    0.000045
     3  C    0.032784
     4  C   -0.080667
     5  N   -0.133011
     6  C   -0.159087
     7  C    0.043591
     8  C    0.009606
     9  C   -0.037748
    10  C    0.054521
    11  C    0.041826
    12  C    0.016569
    13  C    0.192715
    14  O   -0.222144
    15  O   -0.302150
    16  N   -0.058479
    17  C    0.078690
    18  C   -0.085430
    19  C   -0.013056
    20  C    0.099561
    21  C    0.018985
    22  C   -0.022120
    23  C   -0.046704
    24  N   -0.272583
    25  C    0.079221
    26  C   -0.106318
    27  C   -0.083529
    28  C    0.091842
    29  C    0.072961
    30  C    0.051782
    31  C   -0.043728
    32  N   -0.061455
    33  C    0.046685
    34  C   -0.046481
    35  C   -0.068428
    36  C    0.120405
    37  C   -0.076487
    38  C    0.141351
    39  O   -0.165037
    40  C    0.006830
    41  C    0.211210
    42  O   -0.230521
    43  O   -0.315577
    44  C    0.163743
    45  C    0.317017
    46  C   -0.030187
    47  C   -0.191062
    48  C    0.159854
    49  C   -0.026442
    50  C    0.011850
    51  C    0.087421
    52  C   -0.047972
    53  C   -0.032029
    54  C    0.086415
    55  C    0.006578
    56  C    0.125249
    57  C   -0.111288
    58  C   -0.102718
    59  C    0.110125
    60  C    0.042222
    61  C   -0.041124
    62  C   -0.126902
    63  C    0.026732
    64  C    0.057802
    65  H   -0.091103
    66  H   -0.159934
    67  H   -0.046834
    68  H    0.026451
    69  H   -0.021975
    70  H    0.001091
    71  H   -0.001902
    72  H    0.035061
    73  H    0.014255
    74  H    0.027114
    75  H    0.040181
    76  H    0.037504
    77  H    0.022261
    78  H    0.045706
    79  H    0.041447
    80  H   -0.002027
    81  H    0.060244
    82  H    0.015710
    83  H    0.006374
    84  H    0.026107
    85  H    0.043129
    86  H    0.032078
    87  H   -0.013566
    88  H    0.020022
    89  H    0.000937
    90  H    0.028446
    91  H    0.053992
    92  H    0.053443
    93  H    0.068315
    94  H    0.032500
    95  H    0.039066
    96  H    0.023865
    97  H    0.008831
    98  H    0.009487
    99  H   -0.019911
   100  H   -0.036402
   101  H   -0.013728
   102  H    0.031686
   103  H   -0.036119
   104  H    0.012227
   105  H    0.002598
   106  H    0.011553
   107  H    0.008676
   108  H   -0.030634
   109  H   -0.020227
   110  H   -0.016451
   111  H    0.040215
   112  H    0.032163
   113  H    0.002875
   114  H   -0.058644
   115  H   -0.014294
   116  H    0.011483
   117  H    0.001162
   118  H   -0.060448
   119  H   -0.030217
   120  H   -0.005929
   121  H    0.043648
   122  H    0.044015
   123  H    0.010686
   124  H   -0.009209
   125  H   -0.021628
   126  H   -0.000394
   127  H   -0.021544
   128  H   -0.000670
   129  H   -0.014830
   130  H   -0.000080
   131  H    0.024088
   132  H   -0.008186
   133  H    0.019477
   134  H    0.035522
   135  H    0.011159
   136  H   -0.021675
   137  H    0.125289
   138  H    0.230708
 Sum of Mulliken charges =   0.00000

 Dipole moment (field-independent basis, Debye):
    X=              0.9143    Y=              5.0884    Z=              0.9106  Tot=              5.2495
 Quadrupole moment (field-independent basis, Debye-Ang):
   XX=           -354.2252   YY=           -382.6224   ZZ=           -397.9296
   XY=            -12.4528   XZ=              5.3006   YZ=              2.0180

 Normal termination of Gaussian 09 at Mon Aug  5 00:05:23 2019.
