 Gaussian 09, Revision D.01,
 Gaussian 09:  ES64L-G09RevD.01 24-Apr-2013

 --------------------------
 # td=(NStates=1) B3LYP/SVP
 --------------------------

 --
 TD
 --
 Symbolic Z-matrix:
 Charge =  0 Multiplicity = 1

                         Standard orientation:
 ---------------------------------------------------------------------
 Center     Atomic      Atomic             Coordinates (Angstroms)
 Number     Number       Type             X           Y           Z
 ---------------------------------------------------------------------
      1          6           0       -5.040652   -1.892809    0.388978
      2          6           0       -4.831493    2.828087    1.307622
      3          6           0       -9.343127    3.332590   -0.286091
      4          6           0       -9.784114   -1.465575   -1.053382
      5          7           0       -5.123637    0.415568    0.807210
      6          6           0       -4.484091   -0.781816    0.870974
      7          6           0       -3.002357   -0.567511    1.300774
      8          6           0       -3.052826    0.908531    1.824778
      9          6           0       -4.372815    1.511641    1.255678
     10          6           0       -2.988048    0.950039    3.406431
     11          6           0       -1.956166   -0.809686    0.223568
     12          6           0       -0.506370   -0.784958    0.648044
     13          6           0        0.378422   -1.127159   -0.539810
     14          8           0        0.014513   -1.619707   -1.500430
     15          8           0        1.604471   -0.820260   -0.186592
     16          7           0       -7.111500    2.750755    0.389913
     17          6           0       -6.017991    3.459582    0.930635
     18          6           0       -6.326775    4.827579    0.987905
     19          6           0       -7.610829    4.982725    0.516187
     20          6           0       -8.133263    3.695144    0.205193
     21          6           0       -5.382565    5.836415    1.620311
     22          6           0       -8.280283    6.295897    0.305401
     23          6           0       -9.193607    6.653999   -0.643217
     24          7           0       -9.212717    0.894591   -0.517613
     25          6           0       -9.971980    2.088590   -0.556704
     26          6           0      -11.277368    1.863188   -0.951995
     27          6           0      -11.489344    0.487106   -1.109203
     28          6           0      -10.210570   -0.095653   -0.835349
     29          6           0      -12.329141    2.858945   -1.230127
     30          6           0      -12.649136   -0.413740   -1.593168
     31          6           0      -12.809309   -0.628074   -3.049047
     32          7           0       -7.406043   -1.262339   -0.336701
     33          6           0       -8.516356   -2.033800   -0.742873
     34          6           0       -8.124067   -3.395796   -0.744366
     35          6           0       -6.856870   -3.422050   -0.331352
     36          6           0       -6.421498   -2.063173   -0.047242
     37          6           0       -8.996347   -4.717670   -0.891546
     38          6           0       -5.715638   -4.280609    0.002111
     39          8           0       -5.606274   -5.504002   -0.141532
     40          6           0       -4.428502   -3.297680    0.424936
     41          6           0       -3.854343   -3.705475    1.791034
     42          8           0       -4.131186   -3.187105    2.820182
     43          8           0       -3.065042   -4.737676    1.618301
     44          6           0       -2.611782   -5.363493    2.868976
     45          6           0        2.624947   -1.022905   -1.144087
     46          6           0        3.920342   -0.678699   -0.570064
     47          6           0        4.861800    0.038306   -1.283603
     48          6           0        4.959227    0.470083   -2.626830
     49          6           0        6.256551    0.326488   -0.479695
     50          6           0        7.567326   -0.349179   -0.929758
     51          6           0        8.845566   -0.161029   -0.098052
     52          6           0       10.117072   -0.859266   -0.687282
     53          6           0       10.068364   -2.366545   -0.443582
     54          6           0       11.329601   -0.217626    0.020897
     55          6           0       12.728661   -0.693829   -0.455128
     56          6           0       13.915197    0.160329    0.186493
     57          6           0       15.255691   -0.190455   -0.394445
     58          6           0       15.689199   -1.630973   -0.358398
     59          6           0       16.304470    0.682912    0.378342
     60          6           0       17.679827    0.745435   -0.271441
     61          6           0       18.549278    1.647729    0.497257
     62          6           0       20.153534    1.621390    0.115153
     63          6           0       20.499311    2.016144   -1.392876
     64          6           0       20.936301    2.636063    0.960958
     65          1           0       -4.054347    3.504420    1.858574
     66          1           0      -10.035883    4.398155   -0.294591
     67          1           0      -10.523148   -2.302260   -1.429339
     68          1           0       -2.746238   -1.233544    2.121029
     69          1           0       -2.281907    1.553635    1.561978
     70          1           0       -2.033872    0.765529    3.846167
     71          1           0       -3.277190    2.151411    3.616449
     72          1           0       -3.814480    0.246272    3.813180
     73          1           0       -2.343665   -1.676116   -0.297706
     74          1           0       -2.261112   -0.006495   -0.518221
     75          1           0        0.028782    0.190107    1.017868
     76          1           0       -0.465700   -1.566211    1.327907
     77          1           0       -4.450553    5.835940    1.102398
     78          1           0       -5.747487    6.805846    1.662003
     79          1           0       -5.139438    5.533604    2.731891
     80          1           0       -8.030764    7.008847    1.019082
     81          1           0       -9.789434    5.960208   -1.321778
     82          1           0       -9.925251    7.610541   -0.122300
     83          1           0      -12.380090    3.496693   -0.344704
     84          1           0      -11.921093    3.435778   -2.138223
     85          1           0      -13.311238    2.424551   -1.377512
     86          1           0      -12.566074   -1.263542   -0.998088
     87          1           0      -13.642894    0.192314   -1.363348
     88          1           0      -12.583106    0.544097   -3.334708
     89          1           0      -11.899165   -1.334307   -3.296206
     90          1           0      -13.830084   -1.161431   -3.232191
     91          1           0      -10.003773   -4.572557   -0.357430
     92          1           0       -9.159840   -4.919668   -2.060928
     93          1           0       -8.333726   -5.547941   -0.614656
     94          1           0       -3.871818   -3.415446   -0.409436
     95          1           0       -1.587030   -5.882845    2.360587
     96          1           0       -2.077215   -4.676811    3.609932
     97          1           0       -3.389328   -6.128944    3.307740
     98          1           0        2.710316   -2.070456   -1.314848
     99          1           0        2.362749   -0.605207   -2.042281
    100          1           0        4.013365   -0.749578    0.525775
    101          1           0        5.152755    1.560608   -3.066215
    102          1           0        5.467853   -0.133098   -3.290400
    103          1           0        3.869616    0.323056   -3.138592
    104          1           0        6.124564    1.520746   -0.573115
    105          1           0        5.987684   -0.051493    0.641167
    106          1           0        7.544477   -1.457782   -1.070357
    107          1           0        7.771111   -0.078372   -2.021901
    108          1           0        8.857585    1.027507    0.017972
    109          1           0        8.432081   -0.685270    0.767606
    110          1           0       10.415222   -0.543212   -1.839383
    111          1           0        9.272940   -2.909359   -0.962812
    112          1           0       10.871855   -2.794616   -0.946041
    113          1           0       10.295583   -2.612196    0.594554
    114          1           0       11.186154    0.860212   -0.140616
    115          1           0       11.199667   -0.441338    1.136519
    116          1           0       12.831426   -1.815974   -0.009594
    117          1           0       12.686417   -0.547211   -1.528865
    118          1           0       13.792517    1.341259    0.050015
    119          1           0       13.807760    0.180039    1.351342
    120          1           0       15.421790    0.265690   -1.529938
    121          1           0       14.975586   -2.137005   -1.007272
    122          1           0       16.783638   -1.599444   -0.650163
    123          1           0       15.565842   -1.902140    0.664014
    124          1           0       15.955220    1.759914    0.359781
    125          1           0       16.531097    0.511227    1.472667
    126          1           0       18.155121   -0.324157   -0.335792
    127          1           0       17.581958    1.254638   -1.247455
    128          1           0       18.102564    2.522615    0.439343
    129          1           0       18.442518    1.482526    1.545540
    130          1           0       20.494713    0.532717    0.331452
    131          1           0       20.281930    3.128972   -1.611785
    132          1           0       21.465024    1.690597   -1.595714
    133          1           0       19.878219    1.380998   -2.008999
    134          1           0       20.592880    2.325445    2.073317
    135          1           0       22.039754    2.463384    0.850222
    136          1           0       20.328720    3.593283    0.790667
    137          1           0       -7.321929    1.858355    0.308622
    138          1           0       -7.461149   -0.181934   -0.500478
 ---------------------------------------------------------------------

 SCF Done:  E(RB3LYP) =  -2733.05953545     A.U. after   17 cycles

 Excitation energies and oscillator strengths:

 Excited State   1:      Singlet-A      2.0870 eV  594.07 nm  f=0.0621  <S**2>=0.000
     235 -> 237        0.52259
     235 -> 238        0.11844
     236 -> 237        0.22218
     236 -> 238       -0.39500
 This state for optimization and/or second-order correction.
 Total Energy, E(TD-HF/TD-KS) =  -2732.98283800
 Copying the excited state density for this state as the 1-particle RhoCI density.

 The electronic state is 1-A.
 Alpha  occ. eigenvalues --  -19.18577 -19.17557 -19.12634 -19.12347 -19.12311
 Alpha  occ. eigenvalues --  -14.37550 -14.35814 -14.31168 -14.30167 -10.31322
 Alpha  occ. eigenvalues --  -10.30308 -10.28485 -10.27272 -10.24334 -10.23756
 Alpha  occ. eigenvalues --  -10.23532 -10.23510 -10.23220 -10.23158 -10.22287
 Alpha  occ. eigenvalues --  -10.22029 -10.21788 -10.21530 -10.21526 -10.21501
 Alpha  occ. eigenvalues --  -10.21284 -10.21275 -10.21242 -10.21019 -10.21019
 Alpha  occ. eigenvalues --  -10.20950 -10.20857 -10.20693 -10.20589 -10.20531
 Alpha  occ. eigenvalues --  -10.20339 -10.20311 -10.20100 -10.19947 -10.19934
 Alpha  occ. eigenvalues --  -10.19806 -10.19732 -10.19728 -10.19696 -10.19584
 Alpha  occ. eigenvalues --  -10.19512 -10.19452 -10.19298 -10.19265 -10.19151
 Alpha  occ. eigenvalues --  -10.19094 -10.19054 -10.18930 -10.18925 -10.18719
 Alpha  occ. eigenvalues --  -10.18388 -10.18341 -10.18329 -10.18142 -10.17917
 Alpha  occ. eigenvalues --  -10.17665 -10.17551 -10.17410 -10.16360  -1.12267
 Alpha  occ. eigenvalues --   -1.10854  -1.04151  -1.01832  -1.01579  -0.99225
 Alpha  occ. eigenvalues --   -0.97744  -0.92111  -0.91377  -0.83505  -0.82787
 Alpha  occ. eigenvalues --   -0.82557  -0.82081  -0.81295  -0.81178  -0.80647
 Alpha  occ. eigenvalues --   -0.80310  -0.79130  -0.79093  -0.78619  -0.77514
 Alpha  occ. eigenvalues --   -0.76621  -0.75876  -0.75489  -0.75248  -0.74813
 Alpha  occ. eigenvalues --   -0.74080  -0.72759  -0.72614  -0.72145  -0.71572
 Alpha  occ. eigenvalues --   -0.69732  -0.69220  -0.68395  -0.67933  -0.67466
 Alpha  occ. eigenvalues --   -0.67269  -0.66864  -0.66146  -0.65991  -0.64870
 Alpha  occ. eigenvalues --   -0.64176  -0.62402  -0.61927  -0.61389  -0.60691
 Alpha  occ. eigenvalues --   -0.59955  -0.58708  -0.58221  -0.57483  -0.57390
 Alpha  occ. eigenvalues --   -0.56832  -0.56466  -0.56021  -0.55128  -0.54892
 Alpha  occ. eigenvalues --   -0.54737  -0.54432  -0.54395  -0.53631  -0.53351
 Alpha  occ. eigenvalues --   -0.52525  -0.52312  -0.51896  -0.51423  -0.50536
 Alpha  occ. eigenvalues --   -0.50252  -0.49850  -0.49011  -0.48563  -0.48030
 Alpha  occ. eigenvalues --   -0.47972  -0.47507  -0.47495  -0.47313  -0.46751
 Alpha  occ. eigenvalues --   -0.46486  -0.46376  -0.46037  -0.45908  -0.45643
 Alpha  occ. eigenvalues --   -0.45313  -0.45160  -0.44848  -0.44795  -0.44659
 Alpha  occ. eigenvalues --   -0.44476  -0.44286  -0.44208  -0.44119  -0.43874
 Alpha  occ. eigenvalues --   -0.43313  -0.42969  -0.42858  -0.42782  -0.42635
 Alpha  occ. eigenvalues --   -0.42435  -0.42288  -0.42212  -0.41781  -0.41195
 Alpha  occ. eigenvalues --   -0.41051  -0.40813  -0.40708  -0.40595  -0.40381
 Alpha  occ. eigenvalues --   -0.40233  -0.40033  -0.39864  -0.39431  -0.39323
 Alpha  occ. eigenvalues --   -0.39241  -0.39120  -0.38766  -0.38733  -0.38656
 Alpha  occ. eigenvalues --   -0.38482  -0.38334  -0.37786  -0.37757  -0.37604
 Alpha  occ. eigenvalues --   -0.37588  -0.37160  -0.36833  -0.36751  -0.36664
 Alpha  occ. eigenvalues --   -0.36571  -0.36230  -0.36050  -0.35727  -0.35586
 Alpha  occ. eigenvalues --   -0.35419  -0.35100  -0.34955  -0.34703  -0.34486
 Alpha  occ. eigenvalues --   -0.33889  -0.33858  -0.33552  -0.33428  -0.33026
 Alpha  occ. eigenvalues --   -0.32787  -0.32752  -0.32675  -0.32223  -0.32178
 Alpha  occ. eigenvalues --   -0.31876  -0.31835  -0.31674  -0.31152  -0.31065
 Alpha  occ. eigenvalues --   -0.30959  -0.30784  -0.30627  -0.30333  -0.30250
 Alpha  occ. eigenvalues --   -0.30027  -0.29186  -0.28550  -0.28193  -0.28026
 Alpha  occ. eigenvalues --   -0.27875  -0.27516  -0.27131  -0.26646  -0.25039
 Alpha  occ. eigenvalues --   -0.24826  -0.24733  -0.24428  -0.21830  -0.19799
 Alpha  occ. eigenvalues --   -0.19370
 Alpha virt. eigenvalues --   -0.10370  -0.08542  -0.04299  -0.02770  -0.01058
 Alpha virt. eigenvalues --   -0.00012   0.00841   0.01947   0.02729   0.03412
 Alpha virt. eigenvalues --    0.03937   0.04114   0.04539   0.04560   0.04752

 Mulliken charges:
               1
     1  C    0.026219
     2  C   -0.071487
     3  C   -0.132818
     4  C   -0.081746
     5  N   -0.215691
     6  C   -0.081838
     7  C   -0.010664
     8  C    0.009626
     9  C   -0.016860
    10  C   -0.004645
    11  C    0.053735
    12  C    0.086633
    13  C    0.102704
    14  O   -0.155950
    15  O   -0.297466
    16  N   -0.022362
    17  C    0.143567
    18  C   -0.124687
    19  C    0.043231
    20  C    0.030587
    21  C    0.141812
    22  C   -0.025378
    23  C   -0.088960
    24  N   -0.341879
    25  C    0.113390
    26  C   -0.170989
    27  C   -0.103567
    28  C    0.082142
    29  C    0.123665
    30  C    0.067219
    31  C   -0.035270
    32  N   -0.020138
    33  C    0.019964
    34  C   -0.157666
    35  C    0.052610
    36  C    0.019393
    37  C    0.053087
    38  C    0.053904
    39  O   -0.192805
    40  C    0.011163
    41  C    0.199495
    42  O   -0.201713
    43  O   -0.269730
    44  C    0.086927
    45  C    0.356826
    46  C   -0.092290
    47  C   -0.124444
    48  C    0.032655
    49  C   -0.007809
    50  C    0.012470
    51  C    0.028337
    52  C   -0.130985
    53  C    0.100288
    54  C   -0.013842
    55  C    0.048405
    56  C   -0.024389
    57  C   -0.085522
    58  C    0.094432
    59  C   -0.059500
    60  C    0.026953
    61  C    0.092643
    62  C   -0.146845
    63  C    0.056477
    64  C    0.017370
    65  H   -0.005679
    66  H    0.025225
    67  H    0.017264
    68  H   -0.009539
    69  H   -0.037366
    70  H    0.020256
    71  H    0.010988
    72  H    0.049991
    73  H   -0.005026
    74  H   -0.005134
    75  H    0.049123
    76  H   -0.000938
    77  H    0.019532
    78  H   -0.008990
    79  H    0.042527
    80  H   -0.003117
    81  H    0.053570
    82  H    0.041054
    83  H    0.017817
    84  H    0.035748
    85  H    0.005632
    86  H   -0.009276
    87  H    0.000660
    88  H    0.046535
    89  H    0.021275
    90  H    0.046746
    91  H    0.055179
    92  H    0.040308
    93  H    0.045048
    94  H    0.020673
    95  H    0.048003
    96  H    0.059646
    97  H    0.085619
    98  H   -0.000397
    99  H   -0.017169
   100  H    0.010748
   101  H    0.048890
   102  H    0.015217
   103  H   -0.009067
   104  H    0.031413
   105  H    0.006782
   106  H   -0.015453
   107  H   -0.015010
   108  H    0.018090
   109  H   -0.000655
   110  H    0.008447
   111  H    0.010745
   112  H   -0.024055
   113  H    0.009662
   114  H   -0.005434
   115  H   -0.006471
   116  H    0.031517
   117  H   -0.004023
   118  H   -0.000081
   119  H    0.006857
   120  H    0.003752
   121  H    0.018384
   122  H    0.016444
   123  H   -0.006307
   124  H   -0.013918
   125  H   -0.004524
   126  H    0.012941
   127  H   -0.000993
   128  H   -0.072161
   129  H   -0.037630
   130  H    0.005224
   131  H    0.022692
   132  H   -0.008316
   133  H   -0.004355
   134  H    0.004370
   135  H    0.033842
   136  H    0.023791
   137  H    0.059108
   138  H    0.195757
 Sum of Mulliken charges =   0.00000

 Dipole moment (field-independent basis, Debye):
    X=              2.8291    Y=              2.7915    Z=              0.7639  Tot=              4.0472
 Quadrupole moment (field-independent basis, Debye-Ang):
   XX=           -364.2250   YY=           -385.5811   ZZ=           -395.8575
   XY=            -19.4235   XZ=             -1.5891   YZ=             -0.3494

 Normal termination of Gaussian 09 at Sat Aug  3 02:57:06 2019.
