 Gaussian 09, Revision D.01,
 Gaussian 09:  ES64L-G09RevD.01 24-Apr-2013

 --------------------------
 # td=(NStates=1) B3LYP/SVP
 --------------------------

 --
 TD
 --
 Symbolic Z-matrix:
 Charge =  0 Multiplicity = 1

                         Standard orientation:
 ---------------------------------------------------------------------
 Center     Atomic      Atomic             Coordinates (Angstroms)
 Number     Number       Type             X           Y           Z
 ---------------------------------------------------------------------
      1          6           0       -5.116083   -1.868016    0.511242
      2          6           0       -4.809101    2.811858    1.548537
      3          6           0       -9.338305    3.264476   -0.318906
      4          6           0       -9.773997   -1.505738   -0.935246
      5          7           0       -5.191923    0.415096    0.910896
      6          6           0       -4.499294   -0.672109    0.850343
      7          6           0       -3.034703   -0.441791    1.300674
      8          6           0       -3.193591    0.998499    1.893681
      9          6           0       -4.535909    1.458886    1.375177
     10          6           0       -2.967084    1.000514    3.421502
     11          6           0       -2.098286   -0.733531    0.204085
     12          6           0       -0.473935   -0.863140    0.599915
     13          6           0        0.347338   -1.011330   -0.502939
     14          8           0        0.100891   -1.293190   -1.660805
     15          8           0        1.645605   -0.827681   -0.182992
     16          7           0       -7.095710    2.719587    0.557587
     17          6           0       -6.015580    3.401532    1.044836
     18          6           0       -6.396833    4.814203    1.081482
     19          6           0       -7.649664    4.949125    0.478625
     20          6           0       -8.146542    3.601600    0.259965
     21          6           0       -5.417248    5.822882    1.754369
     22          6           0       -8.301496    6.206806    0.390498
     23          6           0       -9.067488    6.619088   -0.644542
     24          7           0       -9.228325    0.814995   -0.558622
     25          6           0       -9.905146    1.975236   -0.681356
     26          6           0      -11.336563    1.752867   -1.033759
     27          6           0      -11.395866    0.398261   -1.203702
     28          6           0      -10.144133   -0.144143   -0.991284
     29          6           0      -12.299683    2.873724   -1.207918
     30          6           0      -12.678639   -0.366663   -1.783314
     31          6           0      -12.702118   -0.485625   -3.262321
     32          7           0       -7.465376   -1.292639   -0.311527
     33          6           0       -8.537859   -2.062664   -0.728935
     34          6           0       -8.137744   -3.403553   -0.649472
     35          6           0       -6.720016   -3.344757   -0.287556
     36          6           0       -6.432733   -1.988755   -0.011628
     37          6           0       -9.000055   -4.647123   -1.098202
     38          6           0       -5.697404   -4.342906    0.028016
     39          8           0       -5.660901   -5.484221   -0.075763
     40          6           0       -4.507109   -3.333667    0.517171
     41          6           0       -3.962111   -3.760989    1.855237
     42          8           0       -4.341616   -3.280715    2.899983
     43          8           0       -3.012976   -4.708448    1.718749
     44          6           0       -2.530092   -5.422886    2.792443
     45          6           0        2.633747   -0.992795   -1.197528
     46          6           0        4.013045   -0.748510   -0.535676
     47          6           0        5.011485    0.022567   -1.037170
     48          6           0        5.032644    0.602752   -2.499966
     49          6           0        6.223479    0.303358   -0.439956
     50          6           0        7.482244   -0.300755   -1.026994
     51          6           0        8.841033   -0.155667   -0.138906
     52          6           0       10.103630   -0.632487   -0.691208
     53          6           0       10.008047   -2.203384   -0.898561
     54          6           0       11.361631   -0.201651    0.049533
     55          6           0       12.681685   -0.545744   -0.610157
     56          6           0       13.927497   -0.050028    0.166743
     57          6           0       15.287598   -0.250937   -0.468546
     58          6           0       15.720722   -1.746890   -0.314127
     59          6           0       16.233969    0.632249    0.309929
     60          6           0       17.678075    0.644364   -0.102073
     61          6           0       18.621914    1.677425    0.581543
     62          6           0       20.081673    1.617141    0.061158
     63          6           0       20.312323    2.152188   -1.340820
     64          6           0       20.943374    2.434254    1.039869
     65          1           0       -3.930056    3.468714    1.698063
     66          1           0       -9.980170    4.143643   -0.655915
     67          1           0      -10.501608   -2.080538   -1.369443
     68          1           0       -2.884925   -1.236193    2.183640
     69          1           0       -2.181367    1.493345    1.508418
     70          1           0       -1.877039    0.750263    3.683579
     71          1           0       -2.785251    2.012571    3.796316
     72          1           0       -3.740934    0.267878    3.764197
     73          1           0       -2.172497   -1.620607   -0.456942
     74          1           0       -1.938445    0.020722   -0.617427
     75          1           0       -0.371447    0.075367    1.420705
     76          1           0       -0.464287   -1.517870    1.203509
     77          1           0       -4.453498    5.873430    1.115724
     78          1           0       -5.747497    6.858963    1.610111
     79          1           0       -4.933608    5.506011    2.772235
     80          1           0       -8.221856    6.907582    1.197835
     81          1           0       -9.309900    6.048798   -1.681985
     82          1           0       -9.341606    7.781733   -0.761513
     83          1           0      -12.223630    3.543899   -0.275883
     84          1           0      -11.769693    3.658607   -1.854524
     85          1           0      -13.304037    2.553728   -1.597395
     86          1           0      -12.702762   -1.434027   -1.235675
     87          1           0      -13.611091   -0.049917   -1.289290
     88          1           0      -12.748173    0.413217   -3.912857
     89          1           0      -11.750841   -0.824780   -3.606590
     90          1           0      -13.468387   -1.009695   -3.775189
     91          1           0       -9.640341   -4.798788   -0.303263
     92          1           0       -9.409519   -4.591207   -2.193015
     93          1           0       -8.547563   -5.620986   -0.893372
     94          1           0       -3.734814   -3.407675   -0.240137
     95          1           0       -1.883410   -6.057744    2.391572
     96          1           0       -2.262081   -4.661925    3.613101
     97          1           0       -3.238271   -5.990780    3.276846
     98          1           0        2.579327   -2.077478   -1.286924
     99          1           0        2.293457   -0.472342   -2.214889
    100          1           0        4.330638   -1.110384    0.403272
    101          1           0        5.253671    1.714479   -2.522833
    102          1           0        5.821015    0.180184   -3.100899
    103          1           0        4.210649    0.384354   -2.942270
    104          1           0        6.344911    1.446946   -0.250334
    105          1           0        6.201825   -0.224915    0.588557
    106          1           0        7.313995   -1.365855   -1.383709
    107          1           0        7.997729    0.097926   -2.084303
    108          1           0        8.889227    0.928105    0.133566
    109          1           0        8.843426   -0.628867    0.892484
    110          1           0       10.174050   -0.079765   -1.641304
    111          1           0        9.097914   -2.690220   -1.471441
    112          1           0       11.083214   -2.561311   -1.310579
    113          1           0       10.073500   -2.474686    0.144137
    114          1           0       11.317599    1.042123    0.254505
    115          1           0       11.364442   -0.806820    0.957868
    116          1           0       12.618173   -1.931171   -0.648620
    117          1           0       12.740574   -0.097253   -1.638032
    118          1           0       13.813812    0.890164    0.025534
    119          1           0       13.582455   -0.387219    1.114255
    120          1           0       15.249427    0.039184   -1.461423
    121          1           0       15.045578   -2.385113   -0.915407
    122          1           0       16.780680   -1.884226   -0.689760
    123          1           0       15.906892   -2.020784    0.834533
    124          1           0       15.838334    1.790745    0.171237
    125          1           0       16.313090    0.188749    1.336323
    126          1           0       18.173743   -0.376300    0.043728
    127          1           0       17.668059    0.722711   -1.302517
    128          1           0       18.223115    2.785957    0.342239
    129          1           0       18.587907    1.430770    1.694851
    130          1           0       20.416548    0.643019    0.138190
    131          1           0       19.847836    3.268848   -1.490995
    132          1           0       21.283301    2.049209   -1.680848
    133          1           0       19.848507    1.443919   -2.061486
    134          1           0       20.733631    1.985372    1.967353
    135          1           0       22.118595    2.320193    1.068502
    136          1           0       20.645647    3.518713    0.686335
    137          1           0       -7.182736    1.739632    0.395371
    138          1           0       -7.640308   -0.203297   -0.234253
 ---------------------------------------------------------------------

 SCF Done:  E(RB3LYP) =  -2732.99710931     A.U. after   16 cycles

 Excitation energies and oscillator strengths:

 Excited State   1:      Singlet-A      2.1365 eV  580.32 nm  f=0.1241  <S**2>=0.000
     235 -> 237       -0.25513
     235 -> 238       -0.29318
     236 -> 237        0.55720
     236 -> 238       -0.18718
 This state for optimization and/or second-order correction.
 Total Energy, E(TD-HF/TD-KS) =  -2732.91859496
 Copying the excited state density for this state as the 1-particle RhoCI density.

 The electronic state is 1-A.
 Alpha  occ. eigenvalues --  -19.17327 -19.16244 -19.12955 -19.11895 -19.11884
 Alpha  occ. eigenvalues --  -14.37312 -14.36549 -14.31540 -14.30346 -10.31107
 Alpha  occ. eigenvalues --  -10.30919 -10.27670 -10.25444 -10.24605 -10.24170
 Alpha  occ. eigenvalues --  -10.22976 -10.22906 -10.22884 -10.22475 -10.22474
 Alpha  occ. eigenvalues --  -10.21999 -10.21735 -10.21686 -10.21625 -10.21382
 Alpha  occ. eigenvalues --  -10.21169 -10.21042 -10.20826 -10.20726 -10.20685
 Alpha  occ. eigenvalues --  -10.20670 -10.20541 -10.20485 -10.20401 -10.20363
 Alpha  occ. eigenvalues --  -10.20359 -10.20105 -10.19967 -10.19849 -10.19797
 Alpha  occ. eigenvalues --  -10.19753 -10.19747 -10.19647 -10.19574 -10.19460
 Alpha  occ. eigenvalues --  -10.19373 -10.19341 -10.19281 -10.19132 -10.19117
 Alpha  occ. eigenvalues --  -10.18948 -10.18884 -10.18860 -10.18711 -10.18633
 Alpha  occ. eigenvalues --  -10.18574 -10.18428 -10.18322 -10.18216 -10.18202
 Alpha  occ. eigenvalues --  -10.18074 -10.17647 -10.17140 -10.16293  -1.09639
 Alpha  occ. eigenvalues --   -1.09482  -1.06836  -1.00869  -0.99649  -0.99519
 Alpha  occ. eigenvalues --   -0.98136  -0.96405  -0.93736  -0.83694  -0.83354
 Alpha  occ. eigenvalues --   -0.82858  -0.82720  -0.81499  -0.81234  -0.80775
 Alpha  occ. eigenvalues --   -0.80288  -0.79839  -0.79085  -0.78892  -0.78123
 Alpha  occ. eigenvalues --   -0.76717  -0.76387  -0.76017  -0.75162  -0.74609
 Alpha  occ. eigenvalues --   -0.74238  -0.73184  -0.72542  -0.71378  -0.70832
 Alpha  occ. eigenvalues --   -0.70354  -0.69997  -0.69176  -0.68449  -0.68030
 Alpha  occ. eigenvalues --   -0.67397  -0.66790  -0.66000  -0.65820  -0.65674
 Alpha  occ. eigenvalues --   -0.64097  -0.63069  -0.62837  -0.62232  -0.61952
 Alpha  occ. eigenvalues --   -0.61187  -0.59171  -0.58523  -0.57850  -0.56941
 Alpha  occ. eigenvalues --   -0.56530  -0.56260  -0.55944  -0.55619  -0.55500
 Alpha  occ. eigenvalues --   -0.55015  -0.54831  -0.54363  -0.54095  -0.53594
 Alpha  occ. eigenvalues --   -0.53082  -0.51961  -0.51656  -0.51457  -0.50794
 Alpha  occ. eigenvalues --   -0.50073  -0.49675  -0.49347  -0.48848  -0.48627
 Alpha  occ. eigenvalues --   -0.48298  -0.48109  -0.48019  -0.47457  -0.47395
 Alpha  occ. eigenvalues --   -0.46635  -0.46406  -0.46320  -0.46206  -0.46060
 Alpha  occ. eigenvalues --   -0.45984  -0.45584  -0.45279  -0.45147  -0.44631
 Alpha  occ. eigenvalues --   -0.44502  -0.44431  -0.44265  -0.43953  -0.43809
 Alpha  occ. eigenvalues --   -0.43628  -0.43414  -0.43173  -0.42996  -0.42887
 Alpha  occ. eigenvalues --   -0.42481  -0.42360  -0.41895  -0.41603  -0.41526
 Alpha  occ. eigenvalues --   -0.41418  -0.40950  -0.40730  -0.40559  -0.40427
 Alpha  occ. eigenvalues --   -0.40351  -0.40172  -0.39905  -0.39843  -0.39534
 Alpha  occ. eigenvalues --   -0.39265  -0.39121  -0.38901  -0.38749  -0.38484
 Alpha  occ. eigenvalues --   -0.38326  -0.38299  -0.38113  -0.38062  -0.37799
 Alpha  occ. eigenvalues --   -0.37688  -0.37455  -0.37326  -0.37294  -0.37071
 Alpha  occ. eigenvalues --   -0.36449  -0.36114  -0.35639  -0.35467  -0.35289
 Alpha  occ. eigenvalues --   -0.35169  -0.35166  -0.34944  -0.34588  -0.34487
 Alpha  occ. eigenvalues --   -0.34281  -0.34132  -0.33988  -0.33776  -0.33408
 Alpha  occ. eigenvalues --   -0.33131  -0.32919  -0.32553  -0.32189  -0.31597
 Alpha  occ. eigenvalues --   -0.31474  -0.31134  -0.31092  -0.30876  -0.30730
 Alpha  occ. eigenvalues --   -0.30640  -0.30507  -0.30153  -0.29845  -0.29779
 Alpha  occ. eigenvalues --   -0.29691  -0.29500  -0.28471  -0.28451  -0.27822
 Alpha  occ. eigenvalues --   -0.27743  -0.27583  -0.26708  -0.25764  -0.25713
 Alpha  occ. eigenvalues --   -0.24668  -0.24568  -0.24548  -0.22953  -0.20086
 Alpha  occ. eigenvalues --   -0.19176
 Alpha virt. eigenvalues --   -0.10117  -0.08051  -0.03890  -0.02067  -0.01064
 Alpha virt. eigenvalues --    0.00008   0.00124   0.00928   0.03062   0.03157
 Alpha virt. eigenvalues --    0.03641   0.03871   0.04442   0.04591   0.04692

 Mulliken charges:
               1
     1  C   -0.007522
     2  C   -0.079130
     3  C   -0.089956
     4  C   -0.016731
     5  N   -0.099181
     6  C   -0.139441
     7  C   -0.014880
     8  C   -0.116857
     9  C    0.055342
    10  C    0.065148
    11  C   -0.013993
    12  C    0.080749
    13  C    0.220869
    14  O   -0.249492
    15  O   -0.322328
    16  N   -0.063466
    17  C    0.092809
    18  C   -0.129760
    19  C    0.057516
    20  C    0.116891
    21  C    0.068408
    22  C   -0.056400
    23  C   -0.118428
    24  N   -0.269980
    25  C    0.030277
    26  C   -0.121954
    27  C   -0.116266
    28  C    0.053647
    29  C    0.105568
    30  C    0.034100
    31  C    0.077827
    32  N   -0.005854
    33  C    0.075492
    34  C   -0.125652
    35  C   -0.116714
    36  C    0.106947
    37  C    0.134579
    38  C    0.083950
    39  O   -0.083533
    40  C   -0.079516
    41  C    0.193584
    42  O   -0.227539
    43  O   -0.294025
    44  C    0.260010
    45  C    0.277384
    46  C   -0.039468
    47  C   -0.191430
    48  C    0.160905
    49  C    0.109670
    50  C   -0.064008
    51  C    0.032974
    52  C   -0.029592
    53  C   -0.027371
    54  C   -0.022816
    55  C   -0.093681
    56  C    0.190712
    57  C    0.000072
    58  C   -0.011212
    59  C    0.010346
    60  C   -0.044741
    61  C    0.013317
    62  C   -0.066430
    63  C    0.048568
    64  C    0.014765
    65  H    0.004087
    66  H   -0.014832
    67  H   -0.048608
    68  H    0.045365
    69  H    0.004394
    70  H   -0.000941
    71  H   -0.001592
    72  H    0.057362
    73  H    0.026643
    74  H    0.012787
    75  H    0.049919
    76  H   -0.080286
    77  H    0.023937
    78  H    0.013730
    79  H    0.056303
    80  H    0.014816
    81  H    0.060307
    82  H    0.046275
    83  H    0.023580
    84  H    0.018914
    85  H    0.039987
    86  H    0.004614
    87  H   -0.001000
    88  H   -0.009648
    89  H   -0.008726
    90  H   -0.000780
    91  H   -0.009536
    92  H    0.067369
    93  H    0.005980
    94  H    0.045064
    95  H   -0.003400
    96  H    0.025079
    97  H   -0.008736
    98  H   -0.000569
    99  H    0.072607
   100  H   -0.034793
   101  H    0.010130
   102  H    0.011217
   103  H   -0.070430
   104  H    0.029047
   105  H   -0.002718
   106  H    0.010342
   107  H    0.009972
   108  H   -0.015557
   109  H   -0.022484
   110  H   -0.025378
   111  H    0.051907
   112  H    0.031454
   113  H   -0.007221
   114  H    0.019721
   115  H   -0.006877
   116  H    0.010733
   117  H   -0.004000
   118  H   -0.079752
   119  H   -0.016587
   120  H   -0.039535
   121  H    0.025228
   122  H    0.008505
   123  H    0.018602
   124  H    0.015507
   125  H   -0.003343
   126  H    0.000183
   127  H   -0.002829
   128  H    0.007820
   129  H    0.007385
   130  H   -0.037516
   131  H    0.028029
   132  H   -0.012739
   133  H   -0.005747
   134  H   -0.009783
   135  H    0.010957
   136  H    0.024450
   137  H    0.123348
   138  H    0.189207
 Sum of Mulliken charges =   0.00000

 Dipole moment (field-independent basis, Debye):
    X=              1.0890    Y=              3.9944    Z=              0.1477  Tot=              4.1428
 Quadrupole moment (field-independent basis, Debye-Ang):
   XX=           -344.8588   YY=           -374.7257   ZZ=           -396.1378
   XY=            -29.9810   XZ=             14.3141   YZ=             -3.8036

 Normal termination of Gaussian 09 at Mon Jul 29 22:31:32 2019.
