 Gaussian 09, Revision D.01,
 Gaussian 09:  ES64L-G09RevD.01 24-Apr-2013

 --------------------------
 # td=(NStates=1) B3LYP/SVP
 --------------------------

 --
 TD
 --
 Symbolic Z-matrix:
 Charge =  0 Multiplicity = 1

                         Standard orientation:
 ---------------------------------------------------------------------
 Center     Atomic      Atomic             Coordinates (Angstroms)
 Number     Number       Type             X           Y           Z
 ---------------------------------------------------------------------
      1          6           0       -5.048820   -1.914111    0.399778
      2          6           0       -4.777203    2.719654    1.333931
      3          6           0       -9.283293    3.398539   -0.242814
      4          6           0       -9.833128   -1.360109   -0.991701
      5          7           0       -5.146928    0.406335    0.800210
      6          6           0       -4.469745   -0.813936    0.836058
      7          6           0       -3.014581   -0.543785    1.299815
      8          6           0       -2.993891    0.882852    1.714493
      9          6           0       -4.351000    1.399791    1.278648
     10          6           0       -2.820427    1.083758    3.109119
     11          6           0       -2.069370   -0.941608    0.012565
     12          6           0       -0.594639   -0.922421    0.409328
     13          6           0        0.366381   -1.277981   -0.546664
     14          8           0        0.071898   -1.628535   -1.652531
     15          8           0        1.648489   -1.068107   -0.115730
     16          7           0       -7.087536    2.777106    0.451669
     17          6           0       -5.968930    3.277600    1.002063
     18          6           0       -6.163730    4.773480    1.022866
     19          6           0       -7.438898    4.991366    0.581334
     20          6           0       -8.020448    3.685322    0.249822
     21          6           0       -5.084548    5.911436    1.373173
     22          6           0       -7.998587    6.346542    0.373576
     23          6           0       -8.924425    6.757010   -0.525360
     24          7           0       -9.184616    0.899215   -0.471990
     25          6           0       -9.834418    2.129826   -0.468177
     26          6           0      -11.138456    2.005191   -0.852247
     27          6           0      -11.434837    0.658093   -1.016397
     28          6           0      -10.094013    0.001340   -0.890222
     29          6           0      -12.240227    3.074594   -0.795633
     30          6           0      -12.684949   -0.062412   -1.460980
     31          6           0      -12.768765   -0.524112   -2.999633
     32          7           0       -7.417306   -1.137285   -0.292268
     33          6           0       -8.585937   -1.891311   -0.672311
     34          6           0       -8.266273   -3.322428   -0.653297
     35          6           0       -6.951504   -3.364830   -0.225636
     36          6           0       -6.468476   -2.059959    0.021601
     37          6           0       -9.173945   -4.451286   -0.880284
     38          6           0       -5.785770   -4.362039    0.074575
     39          8           0       -5.891081   -5.560292    0.110498
     40          6           0       -4.488379   -3.408571    0.367057
     41          6           0       -3.856272   -3.837778    1.534880
     42          8           0       -4.091802   -3.349238    2.702998
     43          8           0       -3.140678   -4.970218    1.380844
     44          6           0       -2.668686   -5.498736    2.569402
     45          6           0        2.713598   -1.365742   -1.069527
     46          6           0        4.066292   -0.873965   -0.684386
     47          6           0        4.926910   -0.063593   -1.275672
     48          6           0        4.762127    0.562784   -2.742900
     49          6           0        6.253612    0.258349   -0.543935
     50          6           0        7.534264   -0.347814   -1.190697
     51          6           0        8.777330   -0.188147   -0.135947
     52          6           0       10.103980   -0.734224   -0.763182
     53          6           0       10.046568   -2.252866   -0.744179
     54          6           0       11.315442   -0.240719    0.030853
     55          6           0       12.731893   -0.711918   -0.424680
     56          6           0       13.818511    0.076173    0.376816
     57          6           0       15.233765   -0.239938   -0.220867
     58          6           0       15.635468   -1.724502   -0.086431
     59          6           0       16.227760    0.722124    0.473477
     60          6           0       17.644596    0.765784   -0.231780
     61          6           0       18.555436    1.633416    0.617452
     62          6           0       20.070501    1.746788   -0.006967
     63          6           0       20.129283    2.227255   -1.337080
     64          6           0       20.828293    2.550822    0.996441
     65          1           0       -3.904748    3.481395    1.529821
     66          1           0       -9.779679    4.088797   -0.542232
     67          1           0      -10.772546   -2.051137   -1.351062
     68          1           0       -3.052443   -1.313491    2.152818
     69          1           0       -2.016897    1.281991    1.231070
     70          1           0       -1.703433    0.699448    3.566415
     71          1           0       -3.078564    2.215280    3.622651
     72          1           0       -3.652493    0.312611    3.656744
     73          1           0       -2.489654   -1.768450   -0.376387
     74          1           0       -2.387769   -0.337443   -0.615426
     75          1           0       -0.127888    0.203765    0.806738
     76          1           0       -0.555660   -1.425735    1.436243
     77          1           0       -4.131991    5.773357    0.682926
     78          1           0       -5.359385    6.879593    1.311301
     79          1           0       -4.723223    5.654619    2.421898
     80          1           0       -7.814581    7.181902    1.098782
     81          1           0       -9.492155    6.185250   -1.275758
     82          1           0       -9.127811    7.849038   -0.325460
     83          1           0      -12.735073    3.557003    0.162645
     84          1           0      -11.653033    4.079610   -1.353798
     85          1           0      -13.057250    2.650992   -1.443065
     86          1           0      -12.779689   -0.978909   -0.859884
     87          1           0      -13.691367    0.555259   -1.294584
     88          1           0      -12.785888    0.210924   -3.810643
     89          1           0      -11.961548   -1.183533   -3.425385
     90          1           0      -13.722889   -1.134087   -3.204720
     91          1           0      -10.022477   -4.612648    0.003481
     92          1           0       -9.799037   -4.250677   -1.851828
     93          1           0       -8.729834   -5.621047   -0.790904
     94          1           0       -3.910127   -3.380960   -0.554189
     95          1           0       -1.891685   -6.293613    2.408716
     96          1           0       -2.180613   -4.829234    3.120173
     97          1           0       -3.419893   -5.809380    3.197903
     98          1           0        2.552621   -2.566675   -1.360532
     99          1           0        2.343019   -0.824978   -1.960456
    100          1           0        4.394684   -1.377311    0.302483
    101          1           0        4.842686    1.745010   -2.501675
    102          1           0        5.678607    0.216528   -3.346083
    103          1           0        3.700790    0.360090   -3.125892
    104          1           0        6.302657    1.356228   -0.468003
    105          1           0        6.096639    0.079880    0.545348
    106          1           0        7.485765   -1.485389   -1.426952
    107          1           0        7.889996    0.170224   -2.220493
    108          1           0        8.667075    0.882125   -0.089187
    109          1           0        8.672535   -0.574560    0.911759
    110          1           0       10.229231   -0.285978   -1.706020
    111          1           0        9.131487   -2.762754   -1.032061
    112          1           0       11.058070   -2.380021   -1.309186
    113          1           0        9.981847   -2.584180    0.362389
    114          1           0       11.245496    1.092025    0.182102
    115          1           0       11.112711   -0.620180    1.213807
    116          1           0       12.805372   -1.788295   -0.238438
    117          1           0       12.764767   -0.398786   -1.376411
    118          1           0       13.677804    1.221805    0.333319
    119          1           0       13.760303   -0.025309    1.620987
    120          1           0       14.929804    0.082815   -1.246475
    121          1           0       14.751870   -2.228155   -0.585871
    122          1           0       16.446665   -1.940896   -0.749149
    123          1           0       15.561553   -1.971083    1.084966
    124          1           0       15.980084    1.855626    0.404603
    125          1           0       16.398055    0.428217    1.760064
    126          1           0       18.157319   -0.061702   -0.088416
    127          1           0       17.460974    0.925501   -1.254421
    128          1           0       18.102330    2.584556    0.613082
    129          1           0       18.798843    1.043015    1.715749
    130          1           0       20.418386    0.597411    0.048255
    131          1           0       19.615534    3.235898   -1.436483
    132          1           0       21.088974    2.213523   -1.676433
    133          1           0       19.762206    1.451327   -2.137861
    134          1           0       20.813019    2.289990    2.046016
    135          1           0       21.910233    2.651037    0.710665
    136          1           0       20.614139    3.725050    0.925112
    137          1           0       -6.965605    1.882406    0.251714
    138          1           0       -7.319761   -0.125292   -0.130114
 ---------------------------------------------------------------------

 SCF Done:  E(RB3LYP) =  -2732.91532775     A.U. after   17 cycles

 Excitation energies and oscillator strengths:

 Excited State   1:      Singlet-A      2.1072 eV  588.38 nm  f=0.1639  <S**2>=0.000
     235 -> 237       -0.15348
     235 -> 238        0.24161
     236 -> 237        0.62582
     236 -> 238        0.14939
 This state for optimization and/or second-order correction.
 Total Energy, E(TD-HF/TD-KS) =  -2732.83788888
 Copying the excited state density for this state as the 1-particle RhoCI density.

 The electronic state is 1-A.
 Alpha  occ. eigenvalues --  -19.18820 -19.16789 -19.14324 -19.12154 -19.12145
 Alpha  occ. eigenvalues --  -14.37478 -14.37169 -14.32355 -14.28978 -10.31985
 Alpha  occ. eigenvalues --  -10.30835 -10.30148 -10.25592 -10.24182 -10.23984
 Alpha  occ. eigenvalues --  -10.23845 -10.23829 -10.23259 -10.22582 -10.22522
 Alpha  occ. eigenvalues --  -10.22482 -10.22394 -10.22115 -10.21969 -10.21873
 Alpha  occ. eigenvalues --  -10.21829 -10.21350 -10.21331 -10.21322 -10.21236
 Alpha  occ. eigenvalues --  -10.21162 -10.21161 -10.21075 -10.21071 -10.21001
 Alpha  occ. eigenvalues --  -10.20759 -10.20595 -10.20510 -10.20347 -10.20310
 Alpha  occ. eigenvalues --  -10.20195 -10.20162 -10.20071 -10.20051 -10.19793
 Alpha  occ. eigenvalues --  -10.19712 -10.19508 -10.19304 -10.19283 -10.19251
 Alpha  occ. eigenvalues --  -10.19245 -10.19137 -10.19068 -10.18859 -10.18851
 Alpha  occ. eigenvalues --  -10.18715 -10.18479 -10.18399 -10.18395 -10.18174
 Alpha  occ. eigenvalues --  -10.17794 -10.17725 -10.17638 -10.15926  -1.10376
 Alpha  occ. eigenvalues --   -1.08739  -1.04657  -1.01273  -1.00644  -0.98029
 Alpha  occ. eigenvalues --   -0.97202  -0.93951  -0.93014  -0.84231  -0.82399
 Alpha  occ. eigenvalues --   -0.82049  -0.81840  -0.81543  -0.81445  -0.81003
 Alpha  occ. eigenvalues --   -0.80605  -0.79799  -0.79704  -0.78845  -0.77804
 Alpha  occ. eigenvalues --   -0.77454  -0.76263  -0.75971  -0.75261  -0.74438
 Alpha  occ. eigenvalues --   -0.74344  -0.73084  -0.72325  -0.71634  -0.70881
 Alpha  occ. eigenvalues --   -0.70127  -0.69614  -0.68453  -0.68137  -0.67132
 Alpha  occ. eigenvalues --   -0.66472  -0.66326  -0.66225  -0.65424  -0.64730
 Alpha  occ. eigenvalues --   -0.64090  -0.63556  -0.63059  -0.61907  -0.61367
 Alpha  occ. eigenvalues --   -0.61227  -0.59109  -0.58978  -0.58262  -0.57562
 Alpha  occ. eigenvalues --   -0.56946  -0.56923  -0.55961  -0.55610  -0.55168
 Alpha  occ. eigenvalues --   -0.54970  -0.54664  -0.54296  -0.53276  -0.53101
 Alpha  occ. eigenvalues --   -0.52978  -0.52821  -0.51969  -0.51613  -0.50727
 Alpha  occ. eigenvalues --   -0.49770  -0.49517  -0.49162  -0.48905  -0.48715
 Alpha  occ. eigenvalues --   -0.47999  -0.47858  -0.47777  -0.47282  -0.47212
 Alpha  occ. eigenvalues --   -0.46775  -0.46455  -0.46180  -0.45951  -0.45864
 Alpha  occ. eigenvalues --   -0.45602  -0.45296  -0.45114  -0.44996  -0.44588
 Alpha  occ. eigenvalues --   -0.44467  -0.44181  -0.44080  -0.43836  -0.43748
 Alpha  occ. eigenvalues --   -0.43435  -0.43190  -0.42896  -0.42718  -0.42102
 Alpha  occ. eigenvalues --   -0.42000  -0.41928  -0.41734  -0.41547  -0.41327
 Alpha  occ. eigenvalues --   -0.41161  -0.41086  -0.40797  -0.40546  -0.40253
 Alpha  occ. eigenvalues --   -0.40201  -0.40081  -0.39908  -0.39753  -0.39120
 Alpha  occ. eigenvalues --   -0.38764  -0.38720  -0.38312  -0.38103  -0.37898
 Alpha  occ. eigenvalues --   -0.37851  -0.37793  -0.37663  -0.37633  -0.37298
 Alpha  occ. eigenvalues --   -0.37139  -0.36922  -0.36826  -0.36612  -0.36376
 Alpha  occ. eigenvalues --   -0.36195  -0.36044  -0.35915  -0.35747  -0.35642
 Alpha  occ. eigenvalues --   -0.35442  -0.35105  -0.35099  -0.34709  -0.34333
 Alpha  occ. eigenvalues --   -0.34260  -0.34117  -0.33769  -0.33740  -0.33626
 Alpha  occ. eigenvalues --   -0.33042  -0.32889  -0.32838  -0.32593  -0.32315
 Alpha  occ. eigenvalues --   -0.32022  -0.31774  -0.31314  -0.31295  -0.31061
 Alpha  occ. eigenvalues --   -0.30873  -0.30719  -0.30541  -0.30328  -0.30077
 Alpha  occ. eigenvalues --   -0.29745  -0.29214  -0.28109  -0.28019  -0.27725
 Alpha  occ. eigenvalues --   -0.27032  -0.27003  -0.26898  -0.26448  -0.26082
 Alpha  occ. eigenvalues --   -0.25698  -0.25624  -0.24764  -0.22005  -0.20428
 Alpha  occ. eigenvalues --   -0.18735
 Alpha virt. eigenvalues --   -0.10057  -0.07832  -0.04409  -0.02372  -0.01741
 Alpha virt. eigenvalues --   -0.01005  -0.00031   0.00257   0.01829   0.03554
 Alpha virt. eigenvalues --    0.03594   0.03627   0.03734   0.04251   0.04383

 Mulliken charges:
               1
     1  C   -0.010616
     2  C   -0.104870
     3  C    0.077279
     4  C   -0.133150
     5  N   -0.230720
     6  C   -0.112723
     7  C   -0.091956
     8  C    0.093343
     9  C   -0.013771
    10  C   -0.120035
    11  C    0.288678
    12  C   -0.043559
    13  C    0.209216
    14  O   -0.223449
    15  O   -0.348845
    16  N    0.111674
    17  C    0.065943
    18  C   -0.148109
    19  C    0.070826
    20  C    0.100199
    21  C    0.107867
    22  C   -0.086025
    23  C   -0.052154
    24  N   -0.246304
    25  C    0.118908
    26  C   -0.118184
    27  C   -0.052810
    28  C    0.017984
    29  C   -0.023012
    30  C    0.042344
    31  C   -0.037771
    32  N   -0.060038
    33  C    0.145529
    34  C   -0.108265
    35  C   -0.019035
    36  C    0.051070
    37  C   -0.059199
    38  C    0.111075
    39  O   -0.132726
    40  C   -0.011123
    41  C    0.239430
    42  O   -0.310842
    43  O   -0.272193
    44  C    0.288952
    45  C    0.226924
    46  C   -0.090577
    47  C   -0.137025
    48  C    0.004936
    49  C    0.083059
    50  C   -0.048093
    51  C   -0.001829
    52  C    0.008061
    53  C    0.019650
    54  C   -0.144375
    55  C    0.143893
    56  C   -0.082732
    57  C   -0.069554
    58  C    0.068934
    59  C   -0.069656
    60  C    0.137316
    61  C   -0.035115
    62  C   -0.124045
    63  C    0.088113
    64  C    0.036579
    65  H    0.008123
    66  H   -0.255654
    67  H    0.038629
    68  H    0.045018
    69  H    0.011397
    70  H    0.037344
    71  H    0.047764
    72  H    0.040182
    73  H   -0.059137
    74  H   -0.081317
    75  H    0.063680
    76  H    0.054169
    77  H    0.041965
    78  H   -0.006179
    79  H    0.035884
    80  H    0.023146
    81  H    0.037867
    82  H    0.028881
    83  H    0.057835
    84  H    0.023850
    85  H    0.027948
    86  H    0.011727
    87  H    0.023041
    88  H    0.010497
    89  H    0.008492
    90  H    0.013276
    91  H    0.054047
    92  H    0.048982
    93  H    0.075467
    94  H    0.071482
    95  H    0.023822
    96  H   -0.031457
    97  H   -0.003818
    98  H    0.044718
    99  H    0.000013
   100  H    0.007092
   101  H    0.036406
   102  H    0.058089
   103  H    0.042536
   104  H   -0.001405
   105  H    0.001484
   106  H    0.017601
   107  H    0.028484
   108  H   -0.014748
   109  H    0.006778
   110  H   -0.028559
   111  H    0.010800
   112  H    0.038364
   113  H    0.004345
   114  H    0.012382
   115  H    0.002650
   116  H    0.038928
   117  H   -0.035476
   118  H    0.003343
   119  H    0.004448
   120  H   -0.009486
   121  H   -0.006719
   122  H    0.012487
   123  H    0.040118
   124  H    0.005113
   125  H    0.013195
   126  H   -0.056788
   127  H   -0.011254
   128  H   -0.020410
   129  H    0.027066
   130  H    0.000417
   131  H    0.018868
   132  H   -0.025376
   133  H    0.005203
   134  H    0.009217
   135  H   -0.009204
   136  H   -0.000428
   137  H    0.064741
   138  H    0.154720
 Sum of Mulliken charges =   0.00000

 Dipole moment (field-independent basis, Debye):
    X=              3.3730    Y=              3.6242    Z=             -0.8606  Tot=              5.0252
 Quadrupole moment (field-independent basis, Debye-Ang):
   XX=           -356.5708   YY=           -382.1046   ZZ=           -399.4731
   XY=            -17.7261   XZ=             -4.6878   YZ=              0.4187

 Normal termination of Gaussian 09 at Mon Jul 29 03:36:08 2019.
