 Gaussian 09, Revision D.01,
 Gaussian 09:  ES64L-G09RevD.01 24-Apr-2013

 --------------------------
 # td=(NStates=1) B3LYP/SVP
 --------------------------

 --
 TD
 --
 Symbolic Z-matrix:
 Charge =  0 Multiplicity = 1

                         Standard orientation:
 ---------------------------------------------------------------------
 Center     Atomic      Atomic             Coordinates (Angstroms)
 Number     Number       Type             X           Y           Z
 ---------------------------------------------------------------------
      1          6           0       -5.141320   -1.892545    0.383775
      2          6           0       -4.644888    2.774311    1.366135
      3          6           0       -9.167302    3.289473   -0.217438
      4          6           0       -9.861362   -1.426703   -0.822220
      5          7           0       -5.189473    0.510255    0.837977
      6          6           0       -4.571906   -0.719488    0.762617
      7          6           0       -3.071192   -0.619220    1.307993
      8          6           0       -3.040517    0.922558    1.898390
      9          6           0       -4.354596    1.466894    1.422709
     10          6           0       -3.083025    1.060783    3.486978
     11          6           0       -1.977289   -0.719890    0.237012
     12          6           0       -0.545340   -0.812959    0.671227
     13          6           0        0.365445   -1.182091   -0.448542
     14          8           0        0.102337   -1.686815   -1.524060
     15          8           0        1.695594   -0.743188   -0.013091
     16          7           0       -6.932629    2.753146    0.418943
     17          6           0       -5.851303    3.444951    0.948247
     18          6           0       -6.239182    4.872105    1.003853
     19          6           0       -7.569401    4.980316    0.507457
     20          6           0       -7.972612    3.694751    0.137793
     21          6           0       -5.171463    5.835783    1.405251
     22          6           0       -8.201613    6.172456    0.304124
     23          6           0       -9.010843    6.706502   -0.709294
     24          7           0       -9.170315    0.926644   -0.586238
     25          6           0       -9.855590    2.036313   -0.639265
     26          6           0      -11.206624    1.940427   -1.038172
     27          6           0      -11.375885    0.554104   -1.221967
     28          6           0      -10.103124   -0.135579   -0.911563
     29          6           0      -12.328937    2.909549   -1.153565
     30          6           0      -12.655225   -0.170722   -1.655654
     31          6           0      -12.777538   -0.530161   -3.130186
     32          7           0       -7.471404   -1.269707   -0.222355
     33          6           0       -8.663164   -2.039846   -0.577302
     34          6           0       -8.267957   -3.282376   -0.670934
     35          6           0       -6.902706   -3.434279   -0.229015
     36          6           0       -6.502310   -2.071553   -0.074527
     37          6           0       -9.124556   -4.477335   -0.807712
     38          6           0       -5.708127   -4.247347    0.018521
     39          8           0       -5.616884   -5.425985   -0.052454
     40          6           0       -4.525578   -3.294601    0.436476
     41          6           0       -3.861685   -3.717186    1.778767
     42          8           0       -4.279399   -3.385168    2.834934
     43          8           0       -2.968310   -4.676585    1.415460
     44          6           0       -2.229123   -5.274948    2.568397
     45          6           0        2.593182   -1.103814   -1.101389
     46          6           0        3.980265   -0.791046   -0.503115
     47          6           0        4.969805   -0.083886   -1.094855
     48          6           0        4.875628    0.243582   -2.649429
     49          6           0        6.312395    0.115139   -0.341498
     50          6           0        7.528261   -0.609745   -1.010851
     51          6           0        8.765098   -0.278612   -0.058231
     52          6           0       10.102945   -0.873105   -0.760904
     53          6           0       10.030625   -2.394934   -0.803075
     54          6           0       11.300590   -0.405985    0.112993
     55          6           0       12.551933   -0.725944   -0.509779
     56          6           0       13.849546   -0.024327    0.223582
     57          6           0       15.255064   -0.202637   -0.330385
     58          6           0       15.615370   -1.736608   -0.333407
     59          6           0       16.234994    0.686304    0.381587
     60          6           0       17.701950    0.754203   -0.185930
     61          6           0       18.557547    1.841413    0.541772
     62          6           0       19.977928    1.869753    0.060868
     63          6           0       20.076547    2.307585   -1.447566
     64          6           0       20.776822    2.825945    0.932478
     65          1           0       -3.814664    3.312748    1.876229
     66          1           0      -10.060573    4.061208   -0.033802
     67          1           0      -10.636405   -2.062796   -1.333869
     68          1           0       -2.933379   -1.402575    2.060336
     69          1           0       -2.163161    1.342688    1.400232
     70          1           0       -1.995818    0.787299    4.003242
     71          1           0       -3.089217    2.075344    3.867996
     72          1           0       -4.059923    0.568605    3.865834
     73          1           0       -2.387420   -1.675403   -0.520710
     74          1           0       -2.158792   -0.012993   -0.577242
     75          1           0       -0.400300    0.192637    1.028188
     76          1           0       -0.530303   -1.677138    1.414959
     77          1           0       -4.467176    5.927669    0.598102
     78          1           0       -5.540448    6.785099    1.520286
     79          1           0       -4.799490    5.450740    2.391408
     80          1           0       -7.991691    6.928996    1.323176
     81          1           0       -9.140102    6.169684   -1.546849
     82          1           0       -9.573842    7.554646   -0.639858
     83          1           0      -12.722384    3.555634   -0.205441
     84          1           0      -12.016664    3.913819   -1.730392
     85          1           0      -13.290904    2.521546   -1.751394
     86          1           0      -12.808894   -0.996005   -0.911731
     87          1           0      -13.583591    0.390721   -1.498210
     88          1           0      -12.593833    0.263138   -3.794129
     89          1           0      -11.997561   -1.355159   -3.392564
     90          1           0      -13.950109   -1.097261   -3.331035
     91          1           0       -9.936333   -4.576630   -0.203387
     92          1           0       -9.723793   -4.594092   -1.786056
     93          1           0       -8.432390   -5.512441   -0.542656
     94          1           0       -3.674832   -3.622021   -0.443665
     95          1           0       -1.753226   -6.019087    2.125126
     96          1           0       -1.702293   -4.421319    3.029115
     97          1           0       -2.886558   -5.559187    3.377422
     98          1           0        2.485174   -2.308577   -1.295603
     99          1           0        2.533669   -0.567820   -1.963403
    100          1           0        3.969107   -0.658677    0.618549
    101          1           0        5.675739    1.151456   -2.815467
    102          1           0        5.569264   -0.618984   -3.059679
    103          1           0        4.122722    0.175561   -3.369484
    104          1           0        6.620489    1.062060   -0.629674
    105          1           0        6.198300    0.148446    0.723726
    106          1           0        7.386609   -1.636907   -0.924632
    107          1           0        7.679290   -0.067529   -1.972280
    108          1           0        8.781881    0.845208   -0.086757
    109          1           0        8.795060   -0.535212    1.042435
    110          1           0       10.167695   -0.701686   -1.952503
    111          1           0        9.105195   -2.826589   -1.336144
    112          1           0       11.110065   -2.614928   -1.456758
    113          1           0        9.970794   -2.727708    0.358708
    114          1           0       11.295076    0.702815    0.168476
    115          1           0       11.345584   -0.858341    1.178267
    116          1           0       12.775195   -1.994784   -0.299982
    117          1           0       12.688768   -0.527726   -1.630232
    118          1           0       13.621147    1.180052    0.141638
    119          1           0       13.816508   -0.259222    1.354923
    120          1           0       15.346078    0.126480   -1.332605
    121          1           0       14.805194   -2.509111   -0.861828
    122          1           0       16.460547   -1.971950   -1.034892
    123          1           0       15.629132   -2.203966    0.694294
    124          1           0       15.872579    1.662644    0.454884
    125          1           0       16.152057    0.477058    1.519968
    126          1           0       18.292712   -0.240984   -0.411788
    127          1           0       17.636935    1.096666   -1.118341
    128          1           0       17.974751    2.921871    0.513166
    129          1           0       18.408677    1.398466    1.538762
    130          1           0       20.407247    0.948640    0.199442
    131          1           0       19.527058    3.168830   -1.648568
    132          1           0       21.312863    2.323880   -1.681306
    133          1           0       19.429909    1.617238   -2.151494
    134          1           0       20.624880    2.306299    1.821212
    135          1           0       21.836813    2.669682    0.796807
    136          1           0       20.593297    3.909437    0.889736
    137          1           0       -6.981923    1.722685    0.350363
    138          1           0       -7.497963   -0.257702   -0.162584
 ---------------------------------------------------------------------

 SCF Done:  E(RB3LYP) =  -2732.95500976     A.U. after   16 cycles

 Excitation energies and oscillator strengths:

 Excited State   1:      Singlet-A      2.1078 eV  588.21 nm  f=0.2059  <S**2>=0.000
     235 -> 237       -0.10528
     235 -> 238        0.23691
     236 -> 237        0.65080
 This state for optimization and/or second-order correction.
 Total Energy, E(TD-HF/TD-KS) =  -2732.87754900
 Copying the excited state density for this state as the 1-particle RhoCI density.

 The electronic state is 1-A.
 Alpha  occ. eigenvalues --  -19.17823 -19.17276 -19.14663 -19.13102 -19.10672
 Alpha  occ. eigenvalues --  -14.36971 -14.36330 -14.31747 -14.30351 -10.32413
 Alpha  occ. eigenvalues --  -10.31377 -10.26686 -10.25278 -10.24116 -10.23951
 Alpha  occ. eigenvalues --  -10.23786 -10.22690 -10.22667 -10.22624 -10.22502
 Alpha  occ. eigenvalues --  -10.22321 -10.22062 -10.21967 -10.21926 -10.21261
 Alpha  occ. eigenvalues --  -10.21198 -10.21161 -10.21149 -10.21074 -10.20927
 Alpha  occ. eigenvalues --  -10.20830 -10.20769 -10.20707 -10.20633 -10.20574
 Alpha  occ. eigenvalues --  -10.20458 -10.20395 -10.20377 -10.20280 -10.20167
 Alpha  occ. eigenvalues --  -10.20108 -10.20033 -10.19812 -10.19808 -10.19731
 Alpha  occ. eigenvalues --  -10.19593 -10.19502 -10.19413 -10.19412 -10.19364
 Alpha  occ. eigenvalues --  -10.19239 -10.19220 -10.19213 -10.19143 -10.18844
 Alpha  occ. eigenvalues --  -10.18778 -10.18761 -10.18379 -10.18237 -10.18132
 Alpha  occ. eigenvalues --  -10.17938 -10.17887 -10.17512 -10.16530  -1.08777
 Alpha  occ. eigenvalues --   -1.07252  -1.03074  -1.01721  -1.00379  -0.99397
 Alpha  occ. eigenvalues --   -0.97097  -0.93718  -0.91996  -0.83826  -0.83230
 Alpha  occ. eigenvalues --   -0.82051  -0.81955  -0.81550  -0.81174  -0.80764
 Alpha  occ. eigenvalues --   -0.80464  -0.79882  -0.79515  -0.79138  -0.77563
 Alpha  occ. eigenvalues --   -0.76575  -0.75884  -0.75110  -0.74815  -0.74023
 Alpha  occ. eigenvalues --   -0.73943  -0.72675  -0.72159  -0.71602  -0.70695
 Alpha  occ. eigenvalues --   -0.69756  -0.69091  -0.68060  -0.67494  -0.67153
 Alpha  occ. eigenvalues --   -0.66898  -0.66250  -0.66227  -0.65183  -0.64945
 Alpha  occ. eigenvalues --   -0.63933  -0.63591  -0.62127  -0.61632  -0.61431
 Alpha  occ. eigenvalues --   -0.60585  -0.59158  -0.58955  -0.58029  -0.56822
 Alpha  occ. eigenvalues --   -0.56625  -0.56068  -0.55796  -0.55562  -0.55359
 Alpha  occ. eigenvalues --   -0.55010  -0.54605  -0.53730  -0.53634  -0.53254
 Alpha  occ. eigenvalues --   -0.52666  -0.52148  -0.51338  -0.50433  -0.50141
 Alpha  occ. eigenvalues --   -0.49710  -0.49337  -0.48960  -0.48384  -0.48301
 Alpha  occ. eigenvalues --   -0.47825  -0.47627  -0.47409  -0.47237  -0.47185
 Alpha  occ. eigenvalues --   -0.46993  -0.46778  -0.46710  -0.46626  -0.45828
 Alpha  occ. eigenvalues --   -0.45792  -0.45579  -0.45118  -0.44682  -0.44473
 Alpha  occ. eigenvalues --   -0.44429  -0.44404  -0.44111  -0.43797  -0.43655
 Alpha  occ. eigenvalues --   -0.43530  -0.42996  -0.42830  -0.42325  -0.42117
 Alpha  occ. eigenvalues --   -0.42042  -0.41966  -0.41868  -0.41556  -0.41073
 Alpha  occ. eigenvalues --   -0.40955  -0.40578  -0.40324  -0.40037  -0.39890
 Alpha  occ. eigenvalues --   -0.39722  -0.39440  -0.39202  -0.39068  -0.39022
 Alpha  occ. eigenvalues --   -0.38942  -0.38834  -0.38521  -0.38404  -0.38270
 Alpha  occ. eigenvalues --   -0.38014  -0.37917  -0.37806  -0.37559  -0.37471
 Alpha  occ. eigenvalues --   -0.37388  -0.37378  -0.37245  -0.36958  -0.36754
 Alpha  occ. eigenvalues --   -0.36357  -0.36168  -0.36050  -0.35738  -0.35284
 Alpha  occ. eigenvalues --   -0.35157  -0.35080  -0.34914  -0.34784  -0.34663
 Alpha  occ. eigenvalues --   -0.34334  -0.34266  -0.33616  -0.33414  -0.33365
 Alpha  occ. eigenvalues --   -0.33280  -0.33160  -0.32706  -0.32660  -0.32515
 Alpha  occ. eigenvalues --   -0.32322  -0.32132  -0.31981  -0.31812  -0.31081
 Alpha  occ. eigenvalues --   -0.30997  -0.30875  -0.30623  -0.30230  -0.29524
 Alpha  occ. eigenvalues --   -0.29398  -0.28909  -0.28732  -0.28181  -0.28123
 Alpha  occ. eigenvalues --   -0.28067  -0.27039  -0.26664  -0.26209  -0.25353
 Alpha  occ. eigenvalues --   -0.24039  -0.23919  -0.23139  -0.22717  -0.20943
 Alpha  occ. eigenvalues --   -0.18936
 Alpha virt. eigenvalues --   -0.10660  -0.08247  -0.03915  -0.02307  -0.01711
 Alpha virt. eigenvalues --   -0.00587   0.00624   0.00772   0.01793   0.02994
 Alpha virt. eigenvalues --    0.03416   0.03774   0.03925   0.04001   0.04375

 Mulliken charges:
               1
     1  C    0.118163
     2  C   -0.026591
     3  C   -0.115324
     4  C   -0.095179
     5  N   -0.236793
     6  C   -0.100125
     7  C   -0.023196
     8  C    0.003048
     9  C   -0.041426
    10  C    0.010945
    11  C   -0.101010
    12  C    0.160202
    13  C    0.191657
    14  O   -0.204519
    15  O   -0.380956
    16  N   -0.120639
    17  C    0.115749
    18  C   -0.159908
    19  C    0.109141
    20  C    0.167506
    21  C    0.183441
    22  C   -0.176420
    23  C    0.049071
    24  N   -0.237736
    25  C   -0.014328
    26  C   -0.036488
    27  C   -0.090134
    28  C    0.079545
    29  C   -0.041251
    30  C    0.061262
    31  C   -0.034474
    32  N    0.012700
    33  C    0.128963
    34  C   -0.097947
    35  C   -0.026809
    36  C   -0.022618
    37  C    0.040743
    38  C    0.041842
    39  O   -0.143226
    40  C   -0.124358
    41  C    0.204588
    42  O   -0.186939
    43  O   -0.331447
    44  C    0.250926
    45  C    0.288654
    46  C   -0.106890
    47  C   -0.144474
    48  C   -0.011642
    49  C    0.122892
    50  C    0.048699
    51  C   -0.014941
    52  C   -0.121565
    53  C   -0.076662
    54  C    0.103479
    55  C   -0.075183
    56  C   -0.063010
    57  C    0.033769
    58  C   -0.039640
    59  C    0.048565
    60  C    0.069923
    61  C   -0.052938
    62  C   -0.034934
    63  C   -0.009842
    64  C    0.101219
    65  H   -0.028055
    66  H    0.015927
    67  H    0.006852
    68  H    0.007135
    69  H    0.002078
    70  H    0.025827
    71  H    0.004598
    72  H    0.056324
    73  H    0.030961
    74  H   -0.001602
    75  H    0.028901
    76  H    0.050127
    77  H    0.032517
    78  H   -0.026519
    79  H    0.041617
    80  H    0.040314
    81  H   -0.005129
    82  H    0.007430
    83  H    0.039749
    84  H    0.017604
    85  H    0.047914
    86  H    0.012177
    87  H   -0.008755
    88  H    0.018001
    89  H    0.018989
    90  H    0.030018
    91  H   -0.006528
    92  H    0.015839
    93  H    0.069315
    94  H    0.088696
    95  H    0.015846
    96  H    0.021364
    97  H    0.029391
    98  H    0.044913
    99  H   -0.013702
   100  H    0.009190
   101  H    0.024809
   102  H    0.031668
   103  H    0.025717
   104  H   -0.038547
   105  H   -0.002710
   106  H    0.004283
   107  H    0.019304
   108  H   -0.008571
   109  H    0.013402
   110  H    0.013122
   111  H    0.039068
   112  H    0.045892
   113  H    0.018179
   114  H   -0.006244
   115  H    0.016923
   116  H    0.026285
   117  H    0.016075
   118  H    0.000326
   119  H    0.007186
   120  H   -0.031588
   121  H    0.013285
   122  H    0.017817
   123  H    0.017762
   124  H   -0.039705
   125  H   -0.020088
   126  H    0.010428
   127  H   -0.057531
   128  H    0.017227
   129  H    0.000506
   130  H   -0.034386
   131  H   -0.009212
   132  H    0.037598
   133  H    0.012797
   134  H   -0.024265
   135  H   -0.020166
   136  H    0.017730
   137  H    0.149663
   138  H    0.131506
 Sum of Mulliken charges =   0.00000

 Dipole moment (field-independent basis, Debye):
    X=              1.2539    Y=              5.8509    Z=              0.8827  Tot=              6.0485
 Quadrupole moment (field-independent basis, Debye-Ang):
   XX=           -349.7644   YY=           -387.3077   ZZ=           -392.8154
   XY=            -31.7427   XZ=              4.4430   YZ=             -3.4059

 Normal termination of Gaussian 09 at Sun Aug  4 02:01:34 2019.
