 Gaussian 09, Revision D.01,
 Gaussian 09:  ES64L-G09RevD.01 24-Apr-2013

 --------------------------
 # td=(NStates=1) B3LYP/SVP
 --------------------------

 --
 TD
 --
 Symbolic Z-matrix:
 Charge =  0 Multiplicity = 1

                         Standard orientation:
 ---------------------------------------------------------------------
 Center     Atomic      Atomic             Coordinates (Angstroms)
 Number     Number       Type             X           Y           Z
 ---------------------------------------------------------------------
      1          6           0       -5.152805   -1.871598    0.530673
      2          6           0       -4.875774    2.797609    1.278822
      3          6           0       -9.455874    3.193436   -0.371018
      4          6           0       -9.840302   -1.621362   -0.816657
      5          7           0       -5.244540    0.532176    0.719944
      6          6           0       -4.502924   -0.605947    0.808722
      7          6           0       -3.064542   -0.457757    1.133622
      8          6           0       -3.101848    1.009780    1.654555
      9          6           0       -4.459721    1.563280    1.226606
     10          6           0       -2.985253    1.005321    3.209724
     11          6           0       -2.130857   -0.660056    0.017841
     12          6           0       -0.593496   -0.634489    0.400120
     13          6           0        0.413622   -0.869642   -0.712747
     14          8           0        0.077668   -1.082020   -1.873558
     15          8           0        1.645525   -0.546671   -0.354026
     16          7           0       -7.116297    2.669443    0.320639
     17          6           0       -6.127240    3.233057    0.924215
     18          6           0       -6.308280    4.670765    1.043378
     19          6           0       -7.642050    4.923918    0.569601
     20          6           0       -8.164674    3.551426    0.042603
     21          6           0       -5.482652    5.752898    1.714617
     22          6           0       -8.342936    6.181795    0.473149
     23          6           0       -9.415609    6.461330   -0.393406
     24          7           0       -9.215464    0.732798   -0.484268
     25          6           0       -9.934599    1.976625   -0.665525
     26          6           0      -11.298083    1.701689   -1.038961
     27          6           0      -11.425276    0.347722   -1.152264
     28          6           0      -10.133865   -0.237774   -0.818839
     29          6           0      -12.361198    2.748070   -1.142221
     30          6           0      -12.664885   -0.400180   -1.640655
     31          6           0      -12.700701   -0.772153   -3.114703
     32          7           0       -7.591965   -1.370519    0.007231
     33          6           0       -8.565612   -2.116653   -0.525902
     34          6           0       -8.083399   -3.467794   -0.541172
     35          6           0       -6.809608   -3.372744   -0.058257
     36          6           0       -6.495517   -2.061142    0.120067
     37          6           0       -8.953998   -4.660801   -0.976046
     38          6           0       -5.573965   -4.306756    0.122689
     39          8           0       -5.431660   -5.451632   -0.029957
     40          6           0       -4.489852   -3.289371    0.400656
     41          6           0       -3.789530   -3.640996    1.822326
     42          8           0       -4.149432   -3.117427    2.899460
     43          8           0       -2.917929   -4.665142    1.670864
     44          6           0       -2.280103   -5.245599    2.813193
     45          6           0        2.655984   -0.653650   -1.343722
     46          6           0        3.985560   -0.439868   -0.666985
     47          6           0        5.104751    0.208388   -1.207937
     48          6           0        5.128502    0.624281   -2.662555
     49          6           0        6.331295    0.425408   -0.452405
     50          6           0        7.676638   -0.477629   -0.914084
     51          6           0        8.799580   -0.167556   -0.087988
     52          6           0       10.116413   -0.861800   -0.625265
     53          6           0       10.113635   -2.348641   -0.702728
     54          6           0       11.366187   -0.437220    0.242009
     55          6           0       12.670332   -0.728974   -0.367154
     56          6           0       13.873134   -0.084572    0.389300
     57          6           0       15.242363   -0.236464   -0.280754
     58          6           0       15.676386   -1.676078   -0.405480
     59          6           0       16.339474    0.581541    0.361636
     60          6           0       17.765475    0.538295   -0.176688
     61          6           0       18.603510    1.550808    0.455546
     62          6           0       20.067175    1.676536    0.062340
     63          6           0       20.314356    2.151731   -1.375056
     64          6           0       20.771255    2.528445    1.042021
     65          1           0       -4.309956    3.662087    1.683810
     66          1           0      -10.244956    4.055160   -0.604522
     67          1           0      -10.542795   -2.306983   -1.115461
     68          1           0       -2.714474   -1.078683    1.926050
     69          1           0       -2.029811    1.609135    1.119626
     70          1           0       -2.026262    0.622820    3.568565
     71          1           0       -2.919090    2.134417    3.754347
     72          1           0       -3.825199    0.356483    3.611545
     73          1           0       -2.371701   -1.577215   -0.155848
     74          1           0       -2.558275    0.131129   -0.760968
     75          1           0       -0.278888    0.382434    0.877362
     76          1           0       -0.374185   -1.205911    1.427822
     77          1           0       -4.386358    5.665955    1.190624
     78          1           0       -5.862418    6.744396    1.305765
     79          1           0       -5.157096    5.623515    2.926100
     80          1           0       -8.074844    7.010892    1.190701
     81          1           0       -9.843033    5.651742   -1.266931
     82          1           0       -9.975482    7.443341   -0.346681
     83          1           0      -12.654844    3.290217   -0.214978
     84          1           0      -12.297309    3.726983   -1.823922
     85          1           0      -13.299381    2.116516   -1.508374
     86          1           0      -12.868965   -1.369051   -0.894070
     87          1           0      -13.491510    0.158507   -1.388110
     88          1           0      -12.546448    0.032619   -4.018868
     89          1           0      -11.751686   -1.507904   -3.188816
     90          1           0      -13.656033   -1.337185   -3.224854
     91          1           0       -9.883103   -4.818309   -0.229163
     92          1           0       -9.389871   -4.461844   -1.970707
     93          1           0       -8.258981   -5.464878   -1.155438
     94          1           0       -3.767160   -3.281890   -0.467188
     95          1           0       -1.108621   -5.802655    2.338336
     96          1           0       -2.063597   -4.363460    3.461570
     97          1           0       -2.897243   -6.040926    3.259434
     98          1           0        2.750986   -1.803672   -1.827181
     99          1           0        2.378305    0.104795   -2.261502
    100          1           0        4.053038   -0.733886    0.430231
    101          1           0        5.481405    1.459118   -2.894485
    102          1           0        5.856597   -0.357687   -3.136851
    103          1           0        4.101313    0.543705   -3.087981
    104          1           0        6.513800    1.496080   -0.307302
    105          1           0        6.223520   -0.147690    0.573688
    106          1           0        7.452651   -1.479840   -1.023638
    107          1           0        7.984389   -0.093665   -1.949096
    108          1           0        9.012079    0.977588   -0.053866
    109          1           0        8.656730   -0.621928    1.076008
    110          1           0       10.468905   -0.454302   -1.586761
    111          1           0        9.138868   -2.653012   -1.092451
    112          1           0       10.882544   -2.528570   -1.417135
    113          1           0       10.193206   -2.827170    0.406194
    114          1           0       11.264422    0.761310    0.159274
    115          1           0       11.357850   -0.752824    1.298374
    116          1           0       13.017517   -1.877963   -0.601856
    117          1           0       12.638844   -0.140640   -1.445678
    118          1           0       13.624723    1.024588    0.541032
    119          1           0       13.984944   -0.649767    1.480460
    120          1           0       14.869925    0.284896   -1.257906
    121          1           0       14.854743   -2.253614   -0.649822
    122          1           0       16.402799   -1.997665   -1.021924
    123          1           0       15.810426   -2.132565    0.705104
    124          1           0       15.869859    1.607585    0.422450
    125          1           0       16.430231    0.267491    1.380833
    126          1           0       18.207640   -0.581377   -0.456925
    127          1           0       17.327255    0.779174   -1.380596
    128          1           0       18.137210    2.723213    0.426137
    129          1           0       18.350198    1.384462    1.521600
    130          1           0       20.536847    0.724976    0.204041
    131          1           0       19.871879    3.251430   -1.388185
    132          1           0       21.363111    2.340538   -1.526715
    133          1           0       19.679529    1.673441   -2.008078
    134          1           0       20.625088    2.307080    2.170785
    135          1           0       21.967999    2.525298    1.136530
    136          1           0       20.279622    3.656099    0.908236
    137          1           0       -7.041282    1.694400    0.123694
    138          1           0       -7.617243   -0.338362   -0.079744
 ---------------------------------------------------------------------

 SCF Done:  E(RB3LYP) =  -2732.95357741     A.U. after   17 cycles

 Excitation energies and oscillator strengths:

 Excited State   1:      Singlet-A      2.0628 eV  601.06 nm  f=0.1471  <S**2>=0.000
     235 -> 237        0.10992
     235 -> 238       -0.32370
     236 -> 237        0.61310
 This state for optimization and/or second-order correction.
 Total Energy, E(TD-HF/TD-KS) =  -2732.87777272
 Copying the excited state density for this state as the 1-particle RhoCI density.

 The electronic state is 1-A.
 Alpha  occ. eigenvalues --  -19.19182 -19.19002 -19.13648 -19.13599 -19.12174
 Alpha  occ. eigenvalues --  -14.37519 -14.36000 -14.32675 -14.29743 -10.33430
 Alpha  occ. eigenvalues --  -10.32076 -10.28575 -10.27774 -10.27495 -10.24263
 Alpha  occ. eigenvalues --  -10.23403 -10.22889 -10.22795 -10.22693 -10.22508
 Alpha  occ. eigenvalues --  -10.22331 -10.22198 -10.21898 -10.21854 -10.21772
 Alpha  occ. eigenvalues --  -10.21519 -10.21265 -10.21078 -10.20778 -10.20659
 Alpha  occ. eigenvalues --  -10.20628 -10.20561 -10.20485 -10.20445 -10.20440
 Alpha  occ. eigenvalues --  -10.20439 -10.20435 -10.20374 -10.20303 -10.20258
 Alpha  occ. eigenvalues --  -10.20199 -10.20175 -10.20019 -10.19854 -10.19744
 Alpha  occ. eigenvalues --  -10.19603 -10.19594 -10.19567 -10.19518 -10.19321
 Alpha  occ. eigenvalues --  -10.19316 -10.19264 -10.19219 -10.19115 -10.19066
 Alpha  occ. eigenvalues --  -10.18602 -10.18422 -10.18395 -10.18253 -10.18208
 Alpha  occ. eigenvalues --  -10.18048 -10.17861 -10.17566 -10.17238  -1.11018
 Alpha  occ. eigenvalues --   -1.09390  -1.06594  -1.01143  -1.00329  -1.00200
 Alpha  occ. eigenvalues --   -0.99540  -0.94174  -0.91472  -0.84696  -0.82929
 Alpha  occ. eigenvalues --   -0.82630  -0.82369  -0.81447  -0.81260  -0.80947
 Alpha  occ. eigenvalues --   -0.80562  -0.79956  -0.79314  -0.78753  -0.77735
 Alpha  occ. eigenvalues --   -0.76641  -0.76266  -0.75407  -0.75052  -0.74153
 Alpha  occ. eigenvalues --   -0.73893  -0.73272  -0.72573  -0.71774  -0.70202
 Alpha  occ. eigenvalues --   -0.69683  -0.69179  -0.68638  -0.68273  -0.68087
 Alpha  occ. eigenvalues --   -0.67342  -0.67166  -0.66310  -0.65868  -0.64803
 Alpha  occ. eigenvalues --   -0.64014  -0.62691  -0.61869  -0.61477  -0.61178
 Alpha  occ. eigenvalues --   -0.60490  -0.58485  -0.58419  -0.57690  -0.56733
 Alpha  occ. eigenvalues --   -0.56399  -0.55726  -0.55612  -0.55605  -0.55419
 Alpha  occ. eigenvalues --   -0.55165  -0.54591  -0.53834  -0.53688  -0.53177
 Alpha  occ. eigenvalues --   -0.52831  -0.52030  -0.51215  -0.50812  -0.50529
 Alpha  occ. eigenvalues --   -0.49953  -0.49240  -0.48785  -0.48712  -0.48627
 Alpha  occ. eigenvalues --   -0.48507  -0.48367  -0.47561  -0.47397  -0.47347
 Alpha  occ. eigenvalues --   -0.47008  -0.46486  -0.46370  -0.46238  -0.46001
 Alpha  occ. eigenvalues --   -0.45642  -0.45578  -0.45160  -0.44798  -0.44527
 Alpha  occ. eigenvalues --   -0.44463  -0.44316  -0.44076  -0.43933  -0.43758
 Alpha  occ. eigenvalues --   -0.43462  -0.43381  -0.43273  -0.42781  -0.42395
 Alpha  occ. eigenvalues --   -0.42139  -0.41755  -0.41669  -0.41571  -0.41035
 Alpha  occ. eigenvalues --   -0.40892  -0.40765  -0.40708  -0.40437  -0.40390
 Alpha  occ. eigenvalues --   -0.40306  -0.39820  -0.39585  -0.39484  -0.39188
 Alpha  occ. eigenvalues --   -0.39045  -0.38853  -0.38765  -0.38285  -0.38184
 Alpha  occ. eigenvalues --   -0.38099  -0.37915  -0.37774  -0.37754  -0.37629
 Alpha  occ. eigenvalues --   -0.37580  -0.37186  -0.37127  -0.36785  -0.36433
 Alpha  occ. eigenvalues --   -0.36317  -0.36216  -0.35972  -0.35834  -0.35606
 Alpha  occ. eigenvalues --   -0.35432  -0.35369  -0.34858  -0.34798  -0.34618
 Alpha  occ. eigenvalues --   -0.34480  -0.34356  -0.34005  -0.33871  -0.33677
 Alpha  occ. eigenvalues --   -0.33477  -0.33165  -0.32774  -0.32447  -0.32237
 Alpha  occ. eigenvalues --   -0.32233  -0.31629  -0.31473  -0.31259  -0.31194
 Alpha  occ. eigenvalues --   -0.31043  -0.30810  -0.30739  -0.30538  -0.29928
 Alpha  occ. eigenvalues --   -0.29444  -0.28913  -0.28727  -0.28224  -0.27899
 Alpha  occ. eigenvalues --   -0.27696  -0.27403  -0.27045  -0.26622  -0.26284
 Alpha  occ. eigenvalues --   -0.25651  -0.23223  -0.23119  -0.22455  -0.19464
 Alpha  occ. eigenvalues --   -0.18764
 Alpha virt. eigenvalues --   -0.09925  -0.07712  -0.04057  -0.02826  -0.01405
 Alpha virt. eigenvalues --   -0.00992  -0.00644   0.00437   0.01585   0.02829
 Alpha virt. eigenvalues --    0.03156   0.03316   0.03606   0.03757   0.04079

 Mulliken charges:
               1
     1  C   -0.021593
     2  C   -0.109155
     3  C   -0.106454
     4  C   -0.055298
     5  N   -0.216397
     6  C   -0.060776
     7  C   -0.012113
     8  C   -0.128645
     9  C    0.136486
    10  C    0.010045
    11  C    0.223158
    12  C   -0.075332
    13  C    0.211006
    14  O   -0.246020
    15  O   -0.269640
    16  N    0.054322
    17  C    0.037269
    18  C   -0.149917
    19  C    0.040622
    20  C    0.078199
    21  C   -0.007344
    22  C   -0.069584
    23  C   -0.111416
    24  N   -0.318398
    25  C    0.090616
    26  C   -0.061280
    27  C   -0.090274
    28  C    0.087452
    29  C   -0.005262
    30  C    0.047921
    31  C   -0.035389
    32  N    0.064725
    33  C    0.053925
    34  C   -0.182770
    35  C   -0.098976
    36  C    0.062532
    37  C    0.096774
    38  C    0.120079
    39  O   -0.094354
    40  C   -0.095473
    41  C    0.230839
    42  O   -0.253291
    43  O   -0.285622
    44  C    0.105077
    45  C    0.157345
    46  C   -0.091419
    47  C   -0.161454
    48  C    0.121256
    49  C    0.048200
    50  C    0.024888
    51  C    0.011096
    52  C   -0.114974
    53  C    0.066910
    54  C    0.024508
    55  C   -0.063853
    56  C   -0.052426
    57  C   -0.071774
    58  C    0.125162
    59  C    0.057445
    60  C   -0.056756
    61  C   -0.012949
    62  C   -0.001013
    63  C    0.110583
    64  C   -0.077093
    65  H   -0.034585
    66  H    0.010413
    67  H   -0.065087
    68  H   -0.019893
    69  H    0.024919
    70  H    0.008740
    71  H    0.025868
    72  H    0.050647
    73  H   -0.071727
    74  H    0.038954
    75  H    0.040383
    76  H    0.039747
    77  H    0.037552
    78  H    0.041123
    79  H    0.073705
    80  H    0.022667
    81  H    0.071448
    82  H    0.039735
    83  H    0.028707
    84  H    0.030755
    85  H    0.026183
    86  H    0.016419
    87  H   -0.027754
    88  H    0.050187
    89  H    0.022361
    90  H    0.026036
    91  H    0.058173
    92  H    0.019051
    93  H    0.029795
    94  H    0.085940
    95  H    0.058836
    96  H    0.054211
    97  H    0.064837
    98  H    0.057369
    99  H    0.067685
   100  H    0.010193
   101  H   -0.039952
   102  H    0.047087
   103  H    0.004421
   104  H    0.019797
   105  H    0.007390
   106  H   -0.003462
   107  H    0.000924
   108  H    0.010169
   109  H    0.008188
   110  H   -0.016140
   111  H   -0.008676
   112  H    0.013216
   113  H    0.024975
   114  H    0.000163
   115  H    0.001496
   116  H    0.041495
   117  H    0.002767
   118  H    0.008076
   119  H   -0.000021
   120  H   -0.004804
   121  H   -0.055505
   122  H   -0.011315
   123  H    0.000878
   124  H   -0.003997
   125  H   -0.029996
   126  H    0.042606
   127  H   -0.005537
   128  H    0.005903
   129  H   -0.005069
   130  H   -0.019733
   131  H   -0.012641
   132  H    0.012771
   133  H   -0.011972
   134  H    0.009366
   135  H    0.024478
   136  H    0.013147
   137  H    0.126734
   138  H    0.155225
 Sum of Mulliken charges =   0.00000

 Dipole moment (field-independent basis, Debye):
    X=              2.6211    Y=              2.0607    Z=              0.8527  Tot=              3.4415
 Quadrupole moment (field-independent basis, Debye-Ang):
   XX=           -368.0738   YY=           -382.2947   ZZ=           -400.3120
   XY=            -24.4488   XZ=              9.3391   YZ=             -1.9287

 Normal termination of Gaussian 09 at Mon Aug  5 04:38:54 2019.
