 Gaussian 09, Revision D.01,
 Gaussian 09:  ES64L-G09RevD.01 24-Apr-2013

 --------------------------
 # td=(NStates=1) B3LYP/SVP
 --------------------------

 --
 TD
 --
 Symbolic Z-matrix:
 Charge =  0 Multiplicity = 1

                         Standard orientation:
 ---------------------------------------------------------------------
 Center     Atomic      Atomic             Coordinates (Angstroms)
 Number     Number       Type             X           Y           Z
 ---------------------------------------------------------------------
      1          6           0       -4.979495   -1.851002    0.388060
      2          6           0       -4.798707    2.806856    1.440479
      3          6           0       -9.419268    3.364693   -0.074499
      4          6           0       -9.798467   -1.601857   -0.860971
      5          7           0       -5.170317    0.443506    0.741042
      6          6           0       -4.469960   -0.700180    0.729700
      7          6           0       -3.020987   -0.504831    1.182624
      8          6           0       -3.055488    0.885655    1.873882
      9          6           0       -4.400428    1.387549    1.301818
     10          6           0       -3.086676    0.798457    3.481800
     11          6           0       -2.089148   -0.705131    0.034592
     12          6           0       -0.572097   -0.760639    0.414527
     13          6           0        0.401195   -1.091133   -0.711007
     14          8           0        0.134988   -1.629593   -1.772109
     15          8           0        1.629480   -0.760051   -0.462081
     16          7           0       -7.099191    2.803953    0.441396
     17          6           0       -5.999597    3.303541    1.139745
     18          6           0       -6.297934    4.764550    1.080009
     19          6           0       -7.573432    4.929252    0.635672
     20          6           0       -8.075821    3.626283    0.154176
     21          6           0       -5.286495    5.810099    1.524531
     22          6           0       -8.224039    6.227767    0.363435
     23          6           0       -9.052278    6.604501   -0.640166
     24          7           0       -9.241286    0.822980   -0.424331
     25          6           0       -9.926063    2.021298   -0.415651
     26          6           0      -11.349828    1.801851   -0.929183
     27          6           0      -11.430484    0.459531   -1.111045
     28          6           0      -10.111561   -0.143332   -0.827919
     29          6           0      -12.277875    2.832896   -0.950621
     30          6           0      -12.623083   -0.279539   -1.660316
     31          6           0      -12.494079   -0.561998   -3.194394
     32          7           0       -7.456315   -1.210784   -0.151397
     33          6           0       -8.564688   -2.034403   -0.576436
     34          6           0       -8.105960   -3.452982   -0.666551
     35          6           0       -6.739194   -3.453288   -0.201383
     36          6           0       -6.351310   -2.037190   -0.031209
     37          6           0       -8.876611   -4.697448   -1.006281
     38          6           0       -5.629502   -4.230783   -0.021437
     39          8           0       -5.501105   -5.496233   -0.017844
     40          6           0       -4.465001   -3.352065    0.472537
     41          6           0       -3.701867   -3.771407    1.725032
     42          8           0       -3.858932   -3.253038    2.832425
     43          8           0       -3.030940   -4.860270    1.464016
     44          6           0       -2.475224   -5.414875    2.632572
     45          6           0        2.717803   -1.167197   -1.309024
     46          6           0        3.968559   -0.518266   -0.734517
     47          6           0        4.993119    0.185154   -1.372741
     48          6           0        4.958202    0.749491   -2.794036
     49          6           0        6.169143    0.547881   -0.528536
     50          6           0        7.359624   -0.079713   -1.048100
     51          6           0        8.578766    0.130037   -0.217055
     52          6           0        9.892095   -0.689970   -0.526659
     53          6           0        9.855910   -2.258372   -0.318590
     54          6           0       11.134570   -0.016062    0.126341
     55          6           0       12.553570   -0.579337   -0.415839
     56          6           0       13.728332    0.175455    0.258173
     57          6           0       15.114440   -0.228547   -0.320697
     58          6           0       15.442190   -1.693441   -0.105119
     59          6           0       16.087709    0.687603    0.485439
     60          6           0       17.481010    0.791697   -0.079150
     61          6           0       18.656689    1.788066    0.524169
     62          6           0       20.102683    1.415524    0.063840
     63          6           0       20.343133    1.676513   -1.389372
     64          6           0       21.094865    2.191434    0.870002
     65          1           0       -4.004677    3.426321    1.962120
     66          1           0      -10.240092    4.044244   -0.233796
     67          1           0      -10.536964   -2.378332   -1.307493
     68          1           0       -2.778924   -1.175418    2.032399
     69          1           0       -2.299517    1.645376    1.419152
     70          1           0       -2.180074    0.284722    4.049000
     71          1           0       -3.132995    1.675204    3.988112
     72          1           0       -3.891077    0.190232    3.865632
     73          1           0       -2.138038   -1.686393   -0.271676
     74          1           0       -2.108250    0.187867   -0.742900
     75          1           0       -0.142022    0.145854    0.980360
     76          1           0       -0.536904   -1.652961    1.163258
     77          1           0       -4.501101    5.813908    0.779956
     78          1           0       -5.922569    6.714244    1.495677
     79          1           0       -4.694265    5.539574    2.439336
     80          1           0       -7.966859    7.045506    1.089310
     81          1           0       -9.498446    5.840433   -1.452755
     82          1           0       -9.497726    7.621731   -0.794047
     83          1           0      -12.808617    3.127371    0.130456
     84          1           0      -11.815111    3.861551   -1.247582
     85          1           0      -13.217640    2.490787   -1.829322
     86          1           0      -12.565897   -1.113499   -1.230783
     87          1           0      -13.475116    0.302442   -1.741928
     88          1           0      -12.615908    0.362714   -3.713637
     89          1           0      -11.363955   -0.855363   -3.505309
     90          1           0      -13.205592   -1.258662   -3.590292
     91          1           0       -9.724277   -4.951838   -0.361540
     92          1           0       -9.175829   -4.618167   -1.920543
     93          1           0       -8.093310   -5.379932   -1.156945
     94          1           0       -3.782674   -3.541848   -0.337979
     95          1           0       -1.740943   -6.396628    2.272872
     96          1           0       -1.788740   -4.811255    3.331991
     97          1           0       -3.182609   -5.903031    3.417714
     98          1           0        2.683746   -2.155297   -1.317674
     99          1           0        2.487009   -0.729116   -2.283524
    100          1           0        4.135837   -0.735233    0.611273
    101          1           0        5.153210    1.785570   -3.011768
    102          1           0        5.867996    0.120641   -3.222888
    103          1           0        4.068607    0.549540   -3.506030
    104          1           0        6.213567    1.739843   -0.571976
    105          1           0        6.143192    0.400617    0.463306
    106          1           0        7.090875   -1.159038   -1.054787
    107          1           0        7.686473   -0.004070   -2.060759
    108          1           0        8.607498    1.128954   -0.121003
    109          1           0        8.407232   -0.191040    0.919306
    110          1           0       10.001527   -0.421520   -1.550217
    111          1           0        9.101560   -2.657563   -0.967613
    112          1           0       10.846811   -2.920067   -0.532100
    113          1           0        9.346127   -2.547802    0.873832
    114          1           0       11.195414    1.135512   -0.104363
    115          1           0       10.939626   -0.158466    1.436529
    116          1           0       12.732887   -1.636569   -0.140103
    117          1           0       12.697403   -0.475176   -1.604171
    118          1           0       13.559380    1.294172    0.324032
    119          1           0       13.755812    0.078952    1.438246
    120          1           0       15.246139    0.228446   -1.319226
    121          1           0       14.885540   -2.291734   -0.779617
    122          1           0       16.586864   -1.833029   -0.538143
    123          1           0       15.440474   -2.090218    0.915273
    124          1           0       15.695812    1.959310    0.195843
    125          1           0       16.215868    0.575139    1.608981
    126          1           0       18.067827   -0.304387   -0.243970
    127          1           0       17.533196    0.995622   -1.171782
    128          1           0       18.501483    2.813898    0.221925
    129          1           0       18.611323    1.736957    1.629290
    130          1           0       20.511009    0.341615    0.287014
    131          1           0       19.977732    2.692739   -1.562344
    132          1           0       21.336079    1.726693   -1.695450
    133          1           0       19.691010    1.227805   -2.242941
    134          1           0       21.222580    2.028589    1.844312
    135          1           0       22.211602    1.853569    0.569102
    136          1           0       21.123412    3.341140    0.892251
    137          1           0       -7.395342    1.709333    0.538423
    138          1           0       -7.641636   -0.307066    0.064576
 ---------------------------------------------------------------------

 SCF Done:  E(RB3LYP) =  -2732.95214936     A.U. after   17 cycles

 Excitation energies and oscillator strengths:

 Excited State   1:      Singlet-A      2.0251 eV  612.25 nm  f=0.1905  <S**2>=0.000
     235 -> 238       -0.23841
     236 -> 237        0.63087
     236 -> 238       -0.17755
 This state for optimization and/or second-order correction.
 Total Energy, E(TD-HF/TD-KS) =  -2732.87772975
 Copying the excited state density for this state as the 1-particle RhoCI density.

 The electronic state is 1-A.
 Alpha  occ. eigenvalues --  -19.20361 -19.16928 -19.12724 -19.10694 -19.10647
 Alpha  occ. eigenvalues --  -14.37614 -14.37347 -14.32583 -14.30649 -10.32365
 Alpha  occ. eigenvalues --  -10.30758 -10.26896 -10.26805 -10.24962 -10.24556
 Alpha  occ. eigenvalues --  -10.24127 -10.24087 -10.23840 -10.23704 -10.22746
 Alpha  occ. eigenvalues --  -10.22261 -10.22099 -10.22053 -10.22034 -10.21945
 Alpha  occ. eigenvalues --  -10.21859 -10.21616 -10.21571 -10.21466 -10.21311
 Alpha  occ. eigenvalues --  -10.21269 -10.21264 -10.21191 -10.21167 -10.20850
 Alpha  occ. eigenvalues --  -10.20747 -10.20599 -10.20475 -10.20342 -10.20304
 Alpha  occ. eigenvalues --  -10.20225 -10.20144 -10.19995 -10.19958 -10.19937
 Alpha  occ. eigenvalues --  -10.19884 -10.19816 -10.19811 -10.19459 -10.19441
 Alpha  occ. eigenvalues --  -10.19428 -10.19019 -10.19008 -10.18951 -10.18837
 Alpha  occ. eigenvalues --  -10.18281 -10.18239 -10.18169 -10.18011 -10.17976
 Alpha  occ. eigenvalues --  -10.17785 -10.17719 -10.17237 -10.17071  -1.12560
 Alpha  occ. eigenvalues --   -1.10482  -1.00751  -0.99046  -0.98981  -0.98947
 Alpha  occ. eigenvalues --   -0.96843  -0.95400  -0.92538  -0.84812  -0.83871
 Alpha  occ. eigenvalues --   -0.81829  -0.81443  -0.81270  -0.81171  -0.80568
 Alpha  occ. eigenvalues --   -0.80342  -0.80153  -0.79790  -0.78874  -0.77896
 Alpha  occ. eigenvalues --   -0.77048  -0.76223  -0.75694  -0.74672  -0.74518
 Alpha  occ. eigenvalues --   -0.74187  -0.73881  -0.73378  -0.71217  -0.70781
 Alpha  occ. eigenvalues --   -0.70319  -0.69617  -0.68816  -0.68362  -0.68040
 Alpha  occ. eigenvalues --   -0.66986  -0.66752  -0.66509  -0.65901  -0.65275
 Alpha  occ. eigenvalues --   -0.64402  -0.63242  -0.62676  -0.61878  -0.61577
 Alpha  occ. eigenvalues --   -0.60787  -0.59365  -0.59108  -0.58185  -0.57475
 Alpha  occ. eigenvalues --   -0.56756  -0.56694  -0.56027  -0.55916  -0.55451
 Alpha  occ. eigenvalues --   -0.55256  -0.54855  -0.54541  -0.53353  -0.53136
 Alpha  occ. eigenvalues --   -0.52738  -0.52124  -0.51399  -0.50875  -0.50837
 Alpha  occ. eigenvalues --   -0.50656  -0.49647  -0.49452  -0.48949  -0.48736
 Alpha  occ. eigenvalues --   -0.48477  -0.48044  -0.47575  -0.47315  -0.46736
 Alpha  occ. eigenvalues --   -0.46555  -0.46468  -0.46366  -0.46212  -0.46090
 Alpha  occ. eigenvalues --   -0.45733  -0.45359  -0.45103  -0.44955  -0.44800
 Alpha  occ. eigenvalues --   -0.44125  -0.44017  -0.43887  -0.43669  -0.43570
 Alpha  occ. eigenvalues --   -0.43448  -0.43300  -0.43004  -0.42654  -0.42595
 Alpha  occ. eigenvalues --   -0.42532  -0.41875  -0.41509  -0.41366  -0.41222
 Alpha  occ. eigenvalues --   -0.41181  -0.40777  -0.40728  -0.40642  -0.40486
 Alpha  occ. eigenvalues --   -0.40183  -0.40088  -0.39877  -0.39497  -0.39221
 Alpha  occ. eigenvalues --   -0.39076  -0.38900  -0.38715  -0.38435  -0.38252
 Alpha  occ. eigenvalues --   -0.38014  -0.37774  -0.37524  -0.37127  -0.36986
 Alpha  occ. eigenvalues --   -0.36853  -0.36780  -0.36655  -0.36462  -0.36297
 Alpha  occ. eigenvalues --   -0.36118  -0.36036  -0.35911  -0.35616  -0.35333
 Alpha  occ. eigenvalues --   -0.35176  -0.35045  -0.34983  -0.34738  -0.34717
 Alpha  occ. eigenvalues --   -0.34319  -0.34247  -0.34028  -0.33979  -0.33694
 Alpha  occ. eigenvalues --   -0.33196  -0.33048  -0.32878  -0.32659  -0.32577
 Alpha  occ. eigenvalues --   -0.32409  -0.32314  -0.32102  -0.31559  -0.31195
 Alpha  occ. eigenvalues --   -0.31083  -0.30898  -0.30710  -0.30288  -0.29934
 Alpha  occ. eigenvalues --   -0.29723  -0.28856  -0.28843  -0.28177  -0.27797
 Alpha  occ. eigenvalues --   -0.27625  -0.26704  -0.26578  -0.26242  -0.25993
 Alpha  occ. eigenvalues --   -0.24541  -0.24340  -0.24237  -0.22483  -0.20945
 Alpha  occ. eigenvalues --   -0.18382
 Alpha virt. eigenvalues --   -0.10181  -0.08373  -0.05138  -0.01989  -0.01150
 Alpha virt. eigenvalues --   -0.01014  -0.00067   0.00908   0.02347   0.03312
 Alpha virt. eigenvalues --    0.03389   0.03790   0.03852   0.04339   0.04488

 Mulliken charges:
               1
     1  C    0.099055
     2  C   -0.096171
     3  C   -0.024384
     4  C   -0.107119
     5  N   -0.134999
     6  C   -0.133224
     7  C   -0.030890
     8  C   -0.055318
     9  C   -0.059571
    10  C    0.079400
    11  C    0.133579
    12  C   -0.057215
    13  C    0.149457
    14  O   -0.261851
    15  O   -0.287091
    16  N   -0.094844
    17  C    0.181194
    18  C   -0.175809
    19  C   -0.000492
    20  C    0.108373
    21  C    0.140308
    22  C   -0.047854
    23  C   -0.093874
    24  N   -0.264255
    25  C   -0.019870
    26  C   -0.044082
    27  C   -0.145550
    28  C    0.037012
    29  C   -0.084573
    30  C    0.269117
    31  C   -0.044302
    32  N   -0.022062
    33  C    0.115759
    34  C   -0.185203
    35  C    0.042258
    36  C    0.053276
    37  C    0.269269
    38  C   -0.000903
    39  O   -0.243550
    40  C    0.049811
    41  C    0.191241
    42  O   -0.252184
    43  O   -0.204200
    44  C    0.083296
    45  C    0.375885
    46  C   -0.174335
    47  C   -0.112158
    48  C    0.015851
    49  C    0.146653
    50  C    0.032674
    51  C    0.023854
    52  C    0.014123
    53  C   -0.035418
    54  C   -0.073174
    55  C    0.034545
    56  C   -0.030225
    57  C   -0.029852
    58  C    0.046812
    59  C   -0.038387
    60  C   -0.048266
    61  C    0.066667
    62  C   -0.085048
    63  C    0.062221
    64  C    0.017170
    65  H   -0.001957
    66  H   -0.031629
    67  H    0.025658
    68  H    0.015593
    69  H    0.014792
    70  H    0.023255
    71  H   -0.017021
    72  H    0.024047
    73  H   -0.011018
    74  H    0.033212
    75  H    0.036083
    76  H    0.036539
    77  H    0.017530
    78  H    0.020315
    79  H    0.030029
    80  H    0.019435
    81  H    0.047316
    82  H    0.036833
    83  H    0.054841
    84  H    0.041351
    85  H    0.034713
    86  H   -0.069248
    87  H   -0.024344
    88  H   -0.004857
    89  H    0.019231
    90  H    0.012629
    91  H    0.043758
    92  H   -0.048423
    93  H    0.004322
    94  H    0.038415
    95  H    0.047054
    96  H    0.047364
    97  H    0.053223
    98  H   -0.017399
    99  H    0.011278
   100  H    0.032198
   101  H    0.031178
   102  H    0.035725
   103  H    0.032307
   104  H    0.001560
   105  H   -0.047531
   106  H   -0.016673
   107  H   -0.014210
   108  H   -0.045661
   109  H   -0.012665
   110  H   -0.026240
   111  H    0.010221
   112  H    0.052309
   113  H    0.023852
   114  H    0.018500
   115  H    0.017123
   116  H    0.013452
   117  H    0.017013
   118  H   -0.014276
   119  H   -0.006363
   120  H    0.000950
   121  H    0.007395
   122  H    0.016377
   123  H    0.024747
   124  H    0.006065
   125  H    0.020689
   126  H   -0.002339
   127  H   -0.013837
   128  H   -0.001299
   129  H   -0.003691
   130  H    0.010720
   131  H   -0.026553
   132  H   -0.012120
   133  H    0.015330
   134  H   -0.035333
   135  H   -0.001664
   136  H    0.003332
   137  H    0.211472
   138  H    0.074466
 Sum of Mulliken charges =   0.00000

 Dipole moment (field-independent basis, Debye):
    X=              2.5982    Y=              4.2696    Z=              0.7101  Tot=              5.0482
 Quadrupole moment (field-independent basis, Debye-Ang):
   XX=           -361.5882   YY=           -389.6519   ZZ=           -391.7971
   XY=            -20.9832   XZ=              0.4854   YZ=             -0.6161

 Normal termination of Gaussian 09 at Sat Jul 27 23:41:04 2019.
