 Gaussian 09, Revision D.01,
 Gaussian 09:  ES64L-G09RevD.01 24-Apr-2013

 --------------------------
 # td=(NStates=1) B3LYP/SVP
 --------------------------

 --
 TD
 --
 Symbolic Z-matrix:
 Charge =  0 Multiplicity = 1

                         Standard orientation:
 ---------------------------------------------------------------------
 Center     Atomic      Atomic             Coordinates (Angstroms)
 Number     Number       Type             X           Y           Z
 ---------------------------------------------------------------------
      1          6           0       -5.237802   -2.051576    0.351439
      2          6           0       -4.608370    2.587672    1.562207
      3          6           0       -9.130573    3.434450   -0.180184
      4          6           0      -10.007426   -1.299040   -1.087158
      5          7           0       -5.164363    0.306234    0.828714
      6          6           0       -4.545165   -0.872007    0.775263
      7          6           0       -3.073920   -0.728356    1.264476
      8          6           0       -3.088723    0.624145    1.918510
      9          6           0       -4.275204    1.285220    1.424327
     10          6           0       -3.023924    0.593067    3.422274
     11          6           0       -2.100120   -0.920136    0.132856
     12          6           0       -0.586634   -0.925223    0.669667
     13          6           0        0.363069   -1.219522   -0.530053
     14          8           0        0.023227   -1.509889   -1.663242
     15          8           0        1.652241   -0.885027   -0.203072
     16          7           0       -6.866417    2.749504    0.565556
     17          6           0       -5.686157    3.264242    1.099684
     18          6           0       -6.042415    4.723818    1.270076
     19          6           0       -7.299181    4.966079    0.687596
     20          6           0       -7.838378    3.711476    0.288305
     21          6           0       -5.084957    5.757225    1.841122
     22          6           0       -7.997217    6.227535    0.551623
     23          6           0       -8.731368    6.679778   -0.437181
     24          7           0       -9.141547    1.083701   -0.626580
     25          6           0       -9.716555    2.290361   -0.705952
     26          6           0      -11.181191    2.100778   -1.082912
     27          6           0      -11.255692    0.817686   -1.365937
     28          6           0      -10.093272    0.094167   -0.989311
     29          6           0      -12.214058    3.215431   -1.013442
     30          6           0      -12.654465    0.121731   -1.825997
     31          6           0      -12.734256   -0.004954   -3.352148
     32          7           0       -7.595307   -1.238634   -0.415133
     33          6           0       -8.685887   -1.891741   -0.725194
     34          6           0       -8.314713   -3.345073   -0.745212
     35          6           0       -6.933419   -3.421282   -0.414465
     36          6           0       -6.565760   -2.069801   -0.078468
     37          6           0       -9.217791   -4.332911   -1.171155
     38          6           0       -5.937703   -4.360597    0.024005
     39          8           0       -5.938834   -5.556510   -0.053277
     40          6           0       -4.651852   -3.475185    0.401160
     41          6           0       -4.067848   -3.936710    1.681851
     42          8           0       -4.324314   -3.540903    2.816996
     43          8           0       -3.209995   -4.926921    1.438454
     44          6           0       -2.678402   -5.582986    2.673486
     45          6           0        2.615899   -1.087540   -1.098155
     46          6           0        3.985262   -0.799449   -0.467357
     47          6           0        4.913082   -0.052257   -0.996190
     48          6           0        4.853122    0.637180   -2.275655
     49          6           0        6.234958    0.180061   -0.210676
     50          6           0        7.507933   -0.341934   -0.854392
     51          6           0        8.746818   -0.185761   -0.016575
     52          6           0       10.070047   -0.694722   -0.714298
     53          6           0       10.034584   -2.206020   -0.987467
     54          6           0       11.267876   -0.285380    0.084947
     55          6           0       12.631895   -0.547715   -0.415945
     56          6           0       13.804998    0.103169    0.319241
     57          6           0       15.247080   -0.125867   -0.309921
     58          6           0       15.612265   -1.630048   -0.374729
     59          6           0       16.257782    0.744414    0.362729
     60          6           0       17.689285    0.782916   -0.251994
     61          6           0       18.699143    1.653563    0.424332
     62          6           0       20.091193    1.578273   -0.110679
     63          6           0       20.186587    2.417721   -1.433693
     64          6           0       21.197104    2.149419    0.816042
     65          1           0       -3.848032    3.333403    1.879816
     66          1           0       -9.832731    4.214195   -0.117909
     67          1           0      -10.704688   -2.052322   -1.415220
     68          1           0       -2.780466   -1.384741    2.082091
     69          1           0       -2.209670    1.021254    1.508515
     70          1           0       -2.196153   -0.041675    3.797588
     71          1           0       -3.008959    1.586624    3.748267
     72          1           0       -3.938056    0.067300    4.083115
     73          1           0       -2.182292   -1.954740   -0.426843
     74          1           0       -2.278669    0.004523   -0.614476
     75          1           0       -0.288608   -0.087222    1.435562
     76          1           0       -0.454338   -1.837407    1.109422
     77          1           0       -4.155426    6.135666    1.365517
     78          1           0       -5.726556    6.589292    1.765317
     79          1           0       -5.141967    5.464538    2.955418
     80          1           0       -7.901025    6.802679    1.574184
     81          1           0       -8.641586    6.076071   -1.363741
     82          1           0       -9.106557    7.791414   -0.539991
     83          1           0      -12.436734    3.550397    0.108554
     84          1           0      -11.854542    4.071436   -1.723902
     85          1           0      -13.086410    2.731613   -1.581766
     86          1           0      -12.599058   -0.859768   -1.205041
     87          1           0      -13.599243    0.568430   -1.450196
     88          1           0      -12.806476    0.936026   -3.745607
     89          1           0      -11.758867   -0.365835   -3.792711
     90          1           0      -13.545920   -0.681575   -3.601246
     91          1           0      -10.387822   -3.996042   -0.926895
     92          1           0       -9.290750   -4.131429   -2.413054
     93          1           0       -8.974691   -5.443462   -0.877252
     94          1           0       -3.905155   -3.723748   -0.526237
     95          1           0       -2.163235   -6.485799    2.265944
     96          1           0       -2.153302   -4.869907    3.006039
     97          1           0       -3.537026   -5.797561    3.534011
     98          1           0        2.390069   -2.246677   -1.298176
     99          1           0        2.489244   -0.554879   -2.101108
    100          1           0        4.082532   -1.193395    0.377859
    101          1           0        5.690120    1.538685   -2.349452
    102          1           0        5.275894   -0.074447   -3.050521
    103          1           0        3.774063    1.054883   -2.553153
    104          1           0        6.343513    1.225872    0.109163
    105          1           0        6.244969   -0.146430    0.899350
    106          1           0        7.438269   -1.376343   -0.919711
    107          1           0        7.581885    0.162808   -2.019313
    108          1           0        8.735162    0.898229    0.263672
    109          1           0        8.760772   -0.751039    0.832684
    110          1           0        9.898257   -0.247310   -1.669819
    111          1           0        9.080978   -2.439983   -1.523907
    112          1           0       10.844498   -2.740939   -1.514059
    113          1           0       10.105659   -2.840980    0.076990
    114          1           0       11.191748    0.823884    0.764395
    115          1           0       11.054137   -0.818666    1.019117
    116          1           0       12.760250   -1.605381   -0.444209
    117          1           0       12.654312   -0.206324   -1.371017
    118          1           0       13.781222    1.198313    0.296039
    119          1           0       13.674312   -0.389359    1.360471
    120          1           0       14.995429    0.351332   -1.236343
    121          1           0       14.725484   -2.077871   -0.950208
    122          1           0       16.401511   -1.929193   -1.306057
    123          1           0       15.738536   -1.913751    0.544665
    124          1           0       15.838277    1.724171    0.531812
    125          1           0       16.519295    0.617213    1.339557
    126          1           0       18.134945   -0.389727   -0.252954
    127          1           0       17.720216    1.159000   -1.319870
    128          1           0       18.338764    2.747155    0.298365
    129          1           0       18.734984    1.461671    1.599376
    130          1           0       20.410124    0.432031   -0.261541
    131          1           0       19.913815    3.484842   -1.180352
    132          1           0       21.185395    2.366037   -1.918155
    133          1           0       19.513033    2.005895   -2.218480
    134          1           0       21.089725    1.497859    1.808187
    135          1           0       22.243542    2.033049    0.570055
    136          1           0       21.102309    3.186789    0.867256
    137          1           0       -7.181320    1.833873    0.542451
    138          1           0       -7.523569   -0.130843   -0.643449
 ---------------------------------------------------------------------

 SCF Done:  E(RB3LYP) =  -2733.02683102     A.U. after   17 cycles

 Excitation energies and oscillator strengths:

 Excited State   1:      Singlet-A      1.9573 eV  633.44 nm  f=0.2046  <S**2>=0.000
     235 -> 238       -0.26275
     236 -> 237        0.64836
 This state for optimization and/or second-order correction.
 Total Energy, E(TD-HF/TD-KS) =  -2732.95490148
 Copying the excited state density for this state as the 1-particle RhoCI density.

 The electronic state is 1-A.
 Alpha  occ. eigenvalues --  -19.17764 -19.17690 -19.13507 -19.12297 -19.11701
 Alpha  occ. eigenvalues --  -14.37768 -14.36221 -14.32154 -14.30071 -10.32418
 Alpha  occ. eigenvalues --  -10.31152 -10.27852 -10.24914 -10.24676 -10.23846
 Alpha  occ. eigenvalues --  -10.23762 -10.23460 -10.23336 -10.22832 -10.22404
 Alpha  occ. eigenvalues --  -10.22348 -10.22158 -10.21858 -10.21694 -10.21549
 Alpha  occ. eigenvalues --  -10.21455 -10.21106 -10.21095 -10.21081 -10.21059
 Alpha  occ. eigenvalues --  -10.20990 -10.20939 -10.20902 -10.20083 -10.20034
 Alpha  occ. eigenvalues --  -10.20003 -10.19862 -10.19761 -10.19746 -10.19725
 Alpha  occ. eigenvalues --  -10.19473 -10.19444 -10.19327 -10.19323 -10.19305
 Alpha  occ. eigenvalues --  -10.19297 -10.19208 -10.19171 -10.19092 -10.18948
 Alpha  occ. eigenvalues --  -10.18941 -10.18918 -10.18738 -10.18674 -10.18553
 Alpha  occ. eigenvalues --  -10.18272 -10.18192 -10.17851 -10.17733 -10.17688
 Alpha  occ. eigenvalues --  -10.17638 -10.16902 -10.16806 -10.16773  -1.11062
 Alpha  occ. eigenvalues --   -1.08855  -1.03599  -1.01917  -0.99290  -0.98984
 Alpha  occ. eigenvalues --   -0.96999  -0.93468  -0.92883  -0.84914  -0.83194
 Alpha  occ. eigenvalues --   -0.82334  -0.82184  -0.81646  -0.81413  -0.81175
 Alpha  occ. eigenvalues --   -0.80043  -0.80005  -0.79334  -0.78231  -0.77998
 Alpha  occ. eigenvalues --   -0.77381  -0.76510  -0.75762  -0.75007  -0.74377
 Alpha  occ. eigenvalues --   -0.73664  -0.73598  -0.72545  -0.71947  -0.71016
 Alpha  occ. eigenvalues --   -0.70234  -0.69617  -0.68593  -0.67892  -0.67660
 Alpha  occ. eigenvalues --   -0.67152  -0.66842  -0.66547  -0.66212  -0.65228
 Alpha  occ. eigenvalues --   -0.64153  -0.62756  -0.62465  -0.62037  -0.61012
 Alpha  occ. eigenvalues --   -0.60722  -0.58905  -0.58695  -0.58129  -0.57346
 Alpha  occ. eigenvalues --   -0.56953  -0.56308  -0.56021  -0.55856  -0.55814
 Alpha  occ. eigenvalues --   -0.55115  -0.54157  -0.53868  -0.53656  -0.53011
 Alpha  occ. eigenvalues --   -0.52694  -0.52048  -0.51497  -0.51118  -0.50889
 Alpha  occ. eigenvalues --   -0.50024  -0.49223  -0.48961  -0.48506  -0.48355
 Alpha  occ. eigenvalues --   -0.47920  -0.47687  -0.47669  -0.47441  -0.46963
 Alpha  occ. eigenvalues --   -0.46854  -0.46692  -0.46457  -0.46183  -0.45951
 Alpha  occ. eigenvalues --   -0.45926  -0.45403  -0.45077  -0.44802  -0.44639
 Alpha  occ. eigenvalues --   -0.44516  -0.44324  -0.43980  -0.43876  -0.43544
 Alpha  occ. eigenvalues --   -0.43221  -0.43036  -0.42996  -0.42787  -0.42554
 Alpha  occ. eigenvalues --   -0.42266  -0.42218  -0.42064  -0.42015  -0.41701
 Alpha  occ. eigenvalues --   -0.41630  -0.41239  -0.41179  -0.40839  -0.40582
 Alpha  occ. eigenvalues --   -0.40121  -0.39931  -0.39845  -0.39437  -0.39271
 Alpha  occ. eigenvalues --   -0.39134  -0.39036  -0.38932  -0.38687  -0.38403
 Alpha  occ. eigenvalues --   -0.38310  -0.38172  -0.37964  -0.37805  -0.37576
 Alpha  occ. eigenvalues --   -0.37371  -0.37205  -0.37170  -0.37080  -0.36886
 Alpha  occ. eigenvalues --   -0.36602  -0.36247  -0.36158  -0.35989  -0.35975
 Alpha  occ. eigenvalues --   -0.35726  -0.35039  -0.34999  -0.34905  -0.34585
 Alpha  occ. eigenvalues --   -0.34445  -0.34143  -0.33987  -0.33630  -0.33494
 Alpha  occ. eigenvalues --   -0.33383  -0.33068  -0.32803  -0.32265  -0.32199
 Alpha  occ. eigenvalues --   -0.31805  -0.31631  -0.31592  -0.31145  -0.31080
 Alpha  occ. eigenvalues --   -0.30572  -0.30519  -0.30295  -0.29916  -0.29665
 Alpha  occ. eigenvalues --   -0.29559  -0.29183  -0.28789  -0.28635  -0.28328
 Alpha  occ. eigenvalues --   -0.27656  -0.27287  -0.26454  -0.25621  -0.25252
 Alpha  occ. eigenvalues --   -0.24984  -0.24875  -0.24127  -0.23137  -0.20104
 Alpha  occ. eigenvalues --   -0.18238
 Alpha virt. eigenvalues --   -0.10244  -0.07546  -0.04413  -0.01940  -0.01167
 Alpha virt. eigenvalues --   -0.00368   0.00203   0.00573   0.02103   0.03512
 Alpha virt. eigenvalues --    0.03919   0.04081   0.04415   0.04499   0.05004

 Mulliken charges:
               1
     1  C   -0.026849
     2  C   -0.066611
     3  C   -0.057820
     4  C   -0.085686
     5  N   -0.201703
     6  C   -0.047054
     7  C   -0.026568
     8  C    0.088021
     9  C    0.010181
    10  C    0.054173
    11  C   -0.025573
    12  C    0.058136
    13  C    0.163311
    14  O   -0.224927
    15  O   -0.272452
    16  N   -0.049142
    17  C    0.106875
    18  C   -0.186671
    19  C    0.036605
    20  C    0.092194
    21  C    0.115557
    22  C   -0.069301
    23  C   -0.061436
    24  N   -0.276925
    25  C    0.025410
    26  C   -0.136743
    27  C   -0.095822
    28  C    0.151947
    29  C    0.044310
    30  C   -0.016628
    31  C    0.074276
    32  N   -0.026286
    33  C   -0.014858
    34  C   -0.086940
    35  C   -0.015598
    36  C    0.117072
    37  C   -0.060911
    38  C    0.056676
    39  O   -0.153232
    40  C   -0.085176
    41  C    0.207356
    42  O   -0.254885
    43  O   -0.319492
    44  C    0.227412
    45  C    0.197634
    46  C    0.026289
    47  C   -0.068157
    48  C   -0.015963
    49  C    0.042548
    50  C    0.011666
    51  C    0.027705
    52  C   -0.004374
    53  C   -0.044896
    54  C   -0.020964
    55  C    0.159393
    56  C   -0.034978
    57  C   -0.027149
    58  C    0.064297
    59  C    0.125817
    60  C   -0.031892
    61  C    0.010041
    62  C   -0.126637
    63  C    0.004061
    64  C    0.049893
    65  H   -0.009787
    66  H   -0.041669
    67  H   -0.014569
    68  H   -0.013759
    69  H   -0.043272
    70  H    0.014463
    71  H   -0.001091
    72  H    0.041598
    73  H    0.048413
    74  H    0.035800
    75  H    0.065077
    76  H   -0.006392
    77  H    0.053050
    78  H   -0.028491
    79  H    0.038610
    80  H    0.033409
    81  H    0.035704
    82  H    0.053124
    83  H    0.064668
    84  H    0.038531
    85  H    0.023325
    86  H    0.008565
    87  H    0.009187
    88  H   -0.014437
    89  H    0.010468
    90  H    0.016766
    91  H    0.047212
    92  H    0.061314
    93  H    0.076678
    94  H    0.096527
    95  H    0.054956
    96  H   -0.030107
    97  H    0.069186
    98  H    0.006795
    99  H    0.013572
   100  H   -0.117892
   101  H    0.034964
   102  H    0.045467
   103  H    0.060162
   104  H   -0.007623
   105  H   -0.015892
   106  H   -0.016749
   107  H    0.015503
   108  H   -0.001035
   109  H   -0.032522
   110  H   -0.024624
   111  H    0.022827
   112  H    0.024843
   113  H    0.006735
   114  H   -0.006374
   115  H   -0.029454
   116  H   -0.008300
   117  H   -0.047635
   118  H   -0.001366
   119  H   -0.002508
   120  H   -0.028329
   121  H    0.008561
   122  H    0.030231
   123  H   -0.018320
   124  H   -0.042458
   125  H   -0.055968
   126  H    0.014215
   127  H   -0.004476
   128  H   -0.004388
   129  H   -0.000776
   130  H    0.006779
   131  H    0.018039
   132  H    0.009172
   133  H    0.011582
   134  H    0.015545
   135  H   -0.000724
   136  H   -0.012596
   137  H    0.102710
   138  H    0.210692
 Sum of Mulliken charges =   0.00000

 Dipole moment (field-independent basis, Debye):
    X=              2.1443    Y=              3.5482    Z=              0.7037  Tot=              4.2052
 Quadrupole moment (field-independent basis, Debye-Ang):
   XX=           -368.8589   YY=           -382.0815   ZZ=           -394.6256
   XY=            -23.5838   XZ=              6.0198   YZ=             -0.9441

 Normal termination of Gaussian 09 at Tue Jul 30 14:04:47 2019.
