 Gaussian 09, Revision D.01,
 Gaussian 09:  ES64L-G09RevD.01 24-Apr-2013

 --------------------------
 # td=(NStates=1) B3LYP/SVP
 --------------------------

 --
 TD
 --
 Symbolic Z-matrix:
 Charge =  0 Multiplicity = 1

                         Standard orientation:
 ---------------------------------------------------------------------
 Center     Atomic      Atomic             Coordinates (Angstroms)
 Number     Number       Type             X           Y           Z
 ---------------------------------------------------------------------
      1          6           0       -5.170908   -1.957510    0.377636
      2          6           0       -4.615835    2.704667    1.497918
      3          6           0       -9.277578    3.449149   -0.383521
      4          6           0       -9.803989   -1.421451   -0.822986
      5          7           0       -5.201812    0.405446    0.935464
      6          6           0       -4.442157   -0.782359    0.843288
      7          6           0       -3.016384   -0.579859    1.284086
      8          6           0       -2.969829    0.938359    1.802085
      9          6           0       -4.332901    1.403800    1.465664
     10          6           0       -2.820832    0.878862    3.286358
     11          6           0       -2.028749   -0.725115    0.039195
     12          6           0       -0.594172   -0.819155    0.535678
     13          6           0        0.374098   -1.236329   -0.471538
     14          8           0        0.076011   -1.895853   -1.491425
     15          8           0        1.638916   -0.793155   -0.211194
     16          7           0       -6.947692    2.795445    0.544647
     17          6           0       -5.805983    3.395942    1.013595
     18          6           0       -6.077509    4.786390    1.054249
     19          6           0       -7.393829    4.976993    0.461140
     20          6           0       -7.970178    3.668312    0.121270
     21          6           0       -5.065664    5.926213    1.411175
     22          6           0       -8.092781    6.374161    0.247300
     23          6           0       -8.965968    6.669811   -0.664838
     24          7           0       -9.102289    0.991112   -0.638102
     25          6           0       -9.777698    2.145060   -0.659103
     26          6           0      -11.206496    1.927245   -1.009657
     27          6           0      -11.382369    0.597599   -1.068071
     28          6           0      -10.045639   -0.040454   -0.684661
     29          6           0      -12.168430    3.050151   -1.180812
     30          6           0      -12.678044   -0.170579   -1.448264
     31          6           0      -12.746524   -0.502863   -2.957818
     32          7           0       -7.536814   -1.298147   -0.046604
     33          6           0       -8.670533   -2.030085   -0.424843
     34          6           0       -8.211006   -3.386088   -0.539724
     35          6           0       -6.898550   -3.401162   -0.156754
     36          6           0       -6.508133   -2.049012    0.035761
     37          6           0       -9.132623   -4.390539   -1.066449
     38          6           0       -5.717290   -4.261142    0.038906
     39          8           0       -5.684330   -5.444619   -0.151882
     40          6           0       -4.418754   -3.290948    0.469393
     41          6           0       -3.961794   -3.797708    1.805474
     42          8           0       -4.162957   -3.413595    2.877254
     43          8           0       -3.073952   -4.795481    1.537976
     44          6           0       -2.498472   -5.420941    2.653573
     45          6           0        2.710901   -1.365347   -1.068177
     46          6           0        4.095572   -0.794777   -0.578685
     47          6           0        4.906800   -0.086418   -1.267539
     48          6           0        4.744317    0.492691   -2.781577
     49          6           0        6.151005    0.274117   -0.525959
     50          6           0        7.372205   -0.389274   -1.130879
     51          6           0        8.590358   -0.317033   -0.289074
     52          6           0       10.056067   -0.729366   -0.898292
     53          6           0       10.032935   -2.303345   -1.371119
     54          6           0       11.217671   -0.417505    0.125154
     55          6           0       12.527968   -0.528923   -0.572586
     56          6           0       13.762641   -0.067996    0.328942
     57          6           0       15.141513   -0.245526   -0.178624
     58          6           0       15.619333   -1.622220   -0.542291
     59          6           0       16.155570    0.678852    0.482099
     60          6           0       17.569801    0.881986   -0.164414
     61          6           0       18.552408    1.662667    0.760861
     62          6           0       19.999713    1.778832    0.263449
     63          6           0       20.221161    2.192841   -1.186777
     64          6           0       20.777288    2.586442    1.259905
     65          1           0       -3.917325    3.419751    1.909341
     66          1           0       -9.909969    4.378598   -0.380423
     67          1           0      -10.549202   -1.989907   -1.007553
     68          1           0       -2.730055   -1.378425    2.063378
     69          1           0       -2.034775    1.584592    1.145328
     70          1           0       -1.884153    0.382386    3.686092
     71          1           0       -2.801550    1.797002    3.796220
     72          1           0       -3.603893    0.449973    3.851716
     73          1           0       -2.260446   -1.629194   -0.476262
     74          1           0       -2.144139    0.252118   -0.781575
     75          1           0       -0.461815   -0.001408    1.171821
     76          1           0       -0.511398   -1.773784    1.351960
     77          1           0       -4.081497    6.052137    0.799297
     78          1           0       -5.434718    7.066163    1.349934
     79          1           0       -4.574766    5.556723    2.422584
     80          1           0       -7.694395    7.092775    1.032076
     81          1           0       -9.194209    5.963891   -1.530037
     82          1           0       -9.425453    7.554222   -0.850084
     83          1           0      -12.255425    3.807593   -0.301142
     84          1           0      -11.932770    3.658568   -1.989817
     85          1           0      -13.107508    2.390180   -1.131841
     86          1           0      -12.587807   -1.062644   -0.817871
     87          1           0      -13.582263    0.408221   -1.128600
     88          1           0      -12.488931    0.388794   -3.715403
     89          1           0      -11.990488   -1.274838   -3.382757
     90          1           0      -13.821492   -0.941349   -3.275951
     91          1           0      -10.177374   -4.443973   -0.388457
     92          1           0       -9.426698   -4.315385   -2.075156
     93          1           0       -8.691518   -5.539912   -0.704979
     94          1           0       -3.832469   -3.345579   -0.374895
     95          1           0       -1.482021   -5.826555    2.445973
     96          1           0       -2.398140   -4.586726    3.475533
     97          1           0       -3.132851   -6.286632    2.889484
     98          1           0        2.707567   -2.419349   -1.305774
     99          1           0        2.518072   -0.910961   -2.210337
    100          1           0        4.277282   -1.143439    0.420099
    101          1           0        5.117305    1.563488   -2.849422
    102          1           0        5.461231    0.001871   -3.284798
    103          1           0        3.735748    0.537822   -3.085960
    104          1           0        6.308311    1.328896   -0.337594
    105          1           0        6.092559   -0.128505    0.334791
    106          1           0        7.147780   -1.346535   -1.367392
    107          1           0        7.739151    0.125629   -2.119710
    108          1           0        8.616235    0.787353    0.184280
    109          1           0        8.695997   -0.875847    0.448235
    110          1           0       10.379206   -0.062857   -1.799591
    111          1           0        9.175228   -2.487104   -2.237929
    112          1           0       11.161160   -2.641194   -1.798961
    113          1           0        9.704742   -2.774409   -0.623361
    114          1           0       11.044359    0.756973    0.723658
    115          1           0       11.161892   -1.244914    0.955298
    116          1           0       12.523185   -1.471946   -1.345613
    117          1           0       12.511368    0.208368   -1.504881
    118          1           0       13.618637    1.051539    0.495986
    119          1           0       13.468587   -0.720057    1.265352
    120          1           0       15.200656    0.113638   -1.248419
    121          1           0       14.979133   -2.280373   -1.426876
    122          1           0       16.460662   -1.799664   -1.113881
    123          1           0       15.897134   -2.348976    0.269293
    124          1           0       15.597762    1.547168    0.768490
    125          1           0       16.403499    0.257341    1.502159
    126          1           0       18.072575   -0.085999   -0.272057
    127          1           0       17.431692    1.469951   -1.021150
    128          1           0       18.066661    2.763278    0.856435
    129          1           0       18.380075    1.383215    1.735412
    130          1           0       20.492740    0.680525    0.372885
    131          1           0       19.511257    3.100990   -1.203996
    132          1           0       21.262635    2.206190   -1.692171
    133          1           0       19.698937    1.588475   -1.875985
    134          1           0       20.447853    2.003047    2.178598
    135          1           0       21.780825    2.774680    0.976709
    136          1           0       20.165836    3.645347    1.404935
    137          1           0       -7.031682    1.882966    0.333729
    138          1           0       -7.361941   -0.220038   -0.046816
 ---------------------------------------------------------------------

 SCF Done:  E(RB3LYP) =  -2732.93322225     A.U. after   17 cycles

 Excitation energies and oscillator strengths:

 Excited State   1:      Singlet-A      2.0262 eV  611.92 nm  f=0.1737  <S**2>=0.000
     235 -> 237        0.20183
     235 -> 238        0.28352
     236 -> 237        0.59835
     236 -> 238       -0.14037
 This state for optimization and/or second-order correction.
 Total Energy, E(TD-HF/TD-KS) =  -2732.85876241
 Copying the excited state density for this state as the 1-particle RhoCI density.

 The electronic state is 1-A.
 Alpha  occ. eigenvalues --  -19.18206 -19.16634 -19.13214 -19.13075 -19.12054
 Alpha  occ. eigenvalues --  -14.37074 -14.36397 -14.32866 -14.30410 -10.31793
 Alpha  occ. eigenvalues --  -10.31654 -10.28536 -10.25808 -10.24293 -10.24159
 Alpha  occ. eigenvalues --  -10.23911 -10.23821 -10.23130 -10.22891 -10.22562
 Alpha  occ. eigenvalues --  -10.22443 -10.22327 -10.22179 -10.21803 -10.21738
 Alpha  occ. eigenvalues --  -10.21678 -10.21372 -10.21264 -10.21237 -10.21198
 Alpha  occ. eigenvalues --  -10.21184 -10.21094 -10.21070 -10.21046 -10.20958
 Alpha  occ. eigenvalues --  -10.20827 -10.20803 -10.20570 -10.20413 -10.19999
 Alpha  occ. eigenvalues --  -10.19947 -10.19936 -10.19902 -10.19873 -10.19348
 Alpha  occ. eigenvalues --  -10.19229 -10.19200 -10.19157 -10.19153 -10.18920
 Alpha  occ. eigenvalues --  -10.18805 -10.18659 -10.18596 -10.18562 -10.18525
 Alpha  occ. eigenvalues --  -10.18458 -10.18419 -10.18345 -10.18339 -10.18240
 Alpha  occ. eigenvalues --  -10.18088 -10.17833 -10.17766 -10.17035  -1.11148
 Alpha  occ. eigenvalues --   -1.07610  -1.04054  -1.02571  -1.00397  -0.98564
 Alpha  occ. eigenvalues --   -0.97376  -0.92864  -0.92172  -0.84656  -0.83547
 Alpha  occ. eigenvalues --   -0.82164  -0.82135  -0.81073  -0.80719  -0.80184
 Alpha  occ. eigenvalues --   -0.80109  -0.79792  -0.79701  -0.79040  -0.78014
 Alpha  occ. eigenvalues --   -0.77038  -0.76083  -0.75966  -0.74664  -0.74418
 Alpha  occ. eigenvalues --   -0.73873  -0.73022  -0.72102  -0.71512  -0.70580
 Alpha  occ. eigenvalues --   -0.69819  -0.69185  -0.68614  -0.68151  -0.68135
 Alpha  occ. eigenvalues --   -0.67727  -0.67409  -0.66376  -0.65967  -0.65593
 Alpha  occ. eigenvalues --   -0.64334  -0.62783  -0.61978  -0.61480  -0.61053
 Alpha  occ. eigenvalues --   -0.60926  -0.59669  -0.58808  -0.58409  -0.57121
 Alpha  occ. eigenvalues --   -0.56991  -0.55879  -0.55623  -0.55553  -0.55426
 Alpha  occ. eigenvalues --   -0.55222  -0.54553  -0.54044  -0.53822  -0.53379
 Alpha  occ. eigenvalues --   -0.52944  -0.52689  -0.52019  -0.51876  -0.50999
 Alpha  occ. eigenvalues --   -0.49677  -0.49459  -0.49177  -0.48810  -0.48657
 Alpha  occ. eigenvalues --   -0.48198  -0.48029  -0.47617  -0.47464  -0.47008
 Alpha  occ. eigenvalues --   -0.46740  -0.46574  -0.46269  -0.46237  -0.46036
 Alpha  occ. eigenvalues --   -0.45541  -0.45431  -0.45253  -0.44665  -0.44617
 Alpha  occ. eigenvalues --   -0.44239  -0.44110  -0.43991  -0.43884  -0.43506
 Alpha  occ. eigenvalues --   -0.43482  -0.43252  -0.43076  -0.42835  -0.42671
 Alpha  occ. eigenvalues --   -0.42555  -0.42326  -0.42160  -0.41871  -0.41544
 Alpha  occ. eigenvalues --   -0.41430  -0.41336  -0.41173  -0.40682  -0.40599
 Alpha  occ. eigenvalues --   -0.40402  -0.40122  -0.39962  -0.39883  -0.39363
 Alpha  occ. eigenvalues --   -0.39217  -0.39063  -0.38973  -0.38709  -0.38287
 Alpha  occ. eigenvalues --   -0.38129  -0.38054  -0.37830  -0.37780  -0.37573
 Alpha  occ. eigenvalues --   -0.37488  -0.37264  -0.37173  -0.36828  -0.36644
 Alpha  occ. eigenvalues --   -0.36337  -0.36258  -0.35983  -0.35803  -0.35728
 Alpha  occ. eigenvalues --   -0.35005  -0.34504  -0.34412  -0.34350  -0.34230
 Alpha  occ. eigenvalues --   -0.33951  -0.33883  -0.33851  -0.33653  -0.33294
 Alpha  occ. eigenvalues --   -0.33218  -0.33205  -0.32704  -0.32637  -0.32356
 Alpha  occ. eigenvalues --   -0.32022  -0.32013  -0.31919  -0.31508  -0.31397
 Alpha  occ. eigenvalues --   -0.30848  -0.30686  -0.30270  -0.30249  -0.29566
 Alpha  occ. eigenvalues --   -0.29505  -0.29131  -0.28924  -0.28154  -0.28047
 Alpha  occ. eigenvalues --   -0.27942  -0.27648  -0.27108  -0.26661  -0.26335
 Alpha  occ. eigenvalues --   -0.25984  -0.24887  -0.23799  -0.23037  -0.19981
 Alpha  occ. eigenvalues --   -0.19070
 Alpha virt. eigenvalues --   -0.10622  -0.07776  -0.04202  -0.01450  -0.01260
 Alpha virt. eigenvalues --    0.00293   0.00567   0.01516   0.01712   0.03146
 Alpha virt. eigenvalues --    0.03384   0.03636   0.04133   0.04251   0.04456

 Mulliken charges:
               1
     1  C   -0.119747
     2  C   -0.030267
     3  C   -0.100774
     4  C    0.016828
     5  N   -0.262401
     6  C   -0.006131
     7  C   -0.036909
     8  C   -0.075347
     9  C    0.066270
    10  C    0.100052
    11  C    0.008839
    12  C    0.034336
    13  C    0.226995
    14  O   -0.272300
    15  O   -0.323175
    16  N   -0.018739
    17  C    0.069878
    18  C   -0.091451
    19  C   -0.069644
    20  C    0.088862
    21  C   -0.030612
    22  C    0.005029
    23  C   -0.016697
    24  N   -0.240012
    25  C    0.075502
    26  C   -0.141663
    27  C   -0.144794
    28  C    0.075574
    29  C    0.113121
    30  C    0.093294
    31  C   -0.078152
    32  N   -0.002052
    33  C    0.114818
    34  C   -0.118652
    35  C    0.029294
    36  C    0.069947
    37  C   -0.018080
    38  C    0.005938
    39  O   -0.138520
    40  C   -0.003030
    41  C    0.234575
    42  O   -0.160607
    43  O   -0.312918
    44  C    0.135561
    45  C    0.203960
    46  C   -0.101025
    47  C   -0.138041
    48  C    0.143823
    49  C    0.214301
    50  C    0.055034
    51  C    0.078245
    52  C   -0.128243
    53  C    0.008313
    54  C   -0.034989
    55  C   -0.070345
    56  C    0.064701
    57  C    0.005485
    58  C   -0.013184
    59  C    0.017548
    60  C    0.094445
    61  C   -0.031621
    62  C   -0.111296
    63  C    0.037981
    64  C    0.048048
    65  H   -0.041696
    66  H    0.014260
    67  H   -0.118273
    68  H    0.035536
    69  H    0.055224
    70  H    0.009337
    71  H   -0.021542
    72  H    0.008823
    73  H    0.011143
    74  H    0.046447
    75  H   -0.004971
    76  H    0.052965
    77  H    0.039772
    78  H    0.048043
    79  H    0.040107
    80  H    0.017960
    81  H    0.038133
    82  H   -0.006932
    83  H    0.026470
    84  H    0.007957
    85  H    0.020033
    86  H    0.008154
    87  H    0.016880
    88  H    0.033449
    89  H    0.023156
    90  H    0.030606
    91  H    0.044555
    92  H    0.041666
    93  H    0.063455
    94  H    0.036218
    95  H    0.029406
    96  H    0.049039
    97  H    0.035016
    98  H    0.037990
    99  H    0.024750
   100  H   -0.008429
   101  H    0.008609
   102  H   -0.003776
   103  H    0.021074
   104  H   -0.004404
   105  H   -0.086594
   106  H   -0.038521
   107  H    0.005423
   108  H   -0.002807
   109  H   -0.076668
   110  H    0.004088
   111  H    0.034569
   112  H    0.052217
   113  H   -0.035914
   114  H    0.026682
   115  H    0.014558
   116  H    0.018303
   117  H   -0.011225
   118  H    0.014535
   119  H    0.015005
   120  H   -0.014328
   121  H    0.003718
   122  H   -0.018955
   123  H   -0.004927
   124  H   -0.027319
   125  H   -0.019836
   126  H    0.007565
   127  H   -0.007778
   128  H   -0.012605
   129  H   -0.031149
   130  H   -0.003409
   131  H    0.003571
   132  H    0.033843
   133  H   -0.011670
   134  H    0.017661
   135  H    0.010301
   136  H    0.003390
   137  H    0.077243
   138  H    0.199641
 Sum of Mulliken charges =   0.00000

 Dipole moment (field-independent basis, Debye):
    X=              2.4100    Y=              3.2900    Z=              0.3986  Tot=              4.0977
 Quadrupole moment (field-independent basis, Debye-Ang):
   XX=           -354.7201   YY=           -387.9152   ZZ=           -396.0829
   XY=            -23.8819   XZ=              1.5931   YZ=             -4.4850

 Normal termination of Gaussian 09 at Mon Aug  5 09:06:27 2019.
