 Gaussian 09, Revision D.01,
 Gaussian 09:  ES64L-G09RevD.01 24-Apr-2013

 --------------------------
 # td=(NStates=1) B3LYP/SVP
 --------------------------

 --
 TD
 --
 Symbolic Z-matrix:
 Charge =  0 Multiplicity = 1

                         Standard orientation:
 ---------------------------------------------------------------------
 Center     Atomic      Atomic             Coordinates (Angstroms)
 Number     Number       Type             X           Y           Z
 ---------------------------------------------------------------------
      1          6           0       -5.089414   -1.938226    0.507178
      2          6           0       -4.933239    2.788943    1.574562
      3          6           0       -9.403349    3.300478   -0.252507
      4          6           0       -9.766785   -1.430053   -0.990329
      5          7           0       -5.225764    0.456750    0.858587
      6          6           0       -4.521280   -0.683611    0.811966
      7          6           0       -3.089773   -0.507014    1.304994
      8          6           0       -3.081103    0.939045    1.902390
      9          6           0       -4.515071    1.474776    1.350532
     10          6           0       -3.260196    0.897197    3.534577
     11          6           0       -2.054564   -0.556097    0.161441
     12          6           0       -0.634171   -0.690546    0.621429
     13          6           0        0.349709   -1.002544   -0.444945
     14          8           0        0.038872   -1.422105   -1.527177
     15          8           0        1.646314   -0.707973   -0.065668
     16          7           0       -7.107065    2.749556    0.684628
     17          6           0       -6.024170    3.387225    1.084562
     18          6           0       -6.312087    4.773690    1.026449
     19          6           0       -7.615004    4.937331    0.581307
     20          6           0       -8.115826    3.591847    0.252126
     21          6           0       -5.417512    5.926736    1.524466
     22          6           0       -8.364037    6.201953    0.252615
     23          6           0       -9.070156    6.566049   -0.868165
     24          7           0       -9.267268    0.934865   -0.570063
     25          6           0       -9.964292    2.022014   -0.624293
     26          6           0      -11.365217    1.736153   -1.025096
     27          6           0      -11.480951    0.412862   -1.168092
     28          6           0      -10.130227   -0.079803   -0.882675
     29          6           0      -12.411657    2.872071   -1.355546
     30          6           0      -12.677365   -0.424606   -1.762847
     31          6           0      -12.452905   -0.689107   -3.290299
     32          7           0       -7.427462   -1.309219   -0.215145
     33          6           0       -8.558489   -2.082847   -0.573144
     34          6           0       -8.141772   -3.454348   -0.657617
     35          6           0       -6.789270   -3.478980   -0.267383
     36          6           0       -6.472816   -2.132675    0.023072
     37          6           0       -9.002075   -4.604183   -1.010400
     38          6           0       -5.673658   -4.243645    0.043578
     39          8           0       -5.511369   -5.514540    0.058777
     40          6           0       -4.503107   -3.242207    0.537816
     41          6           0       -3.792677   -3.787014    1.746047
     42          8           0       -3.936388   -3.263226    2.805563
     43          8           0       -2.945928   -4.791984    1.429897
     44          6           0       -2.286659   -5.304706    2.575057
     45          6           0        2.589945   -1.007458   -1.085245
     46          6           0        3.951021   -0.715575   -0.404476
     47          6           0        4.866935    0.056982   -1.047359
     48          6           0        4.766605    0.565702   -2.443914
     49          6           0        6.225628    0.263913   -0.392187
     50          6           0        7.456262   -0.502022   -0.937143
     51          6           0        8.812706   -0.039586   -0.202836
     52          6           0       10.145379   -0.664022   -0.711508
     53          6           0       10.022448   -2.226894   -0.819384
     54          6           0       11.435542   -0.258101   -0.008568
     55          6           0       12.760264   -0.751049   -0.578761
     56          6           0       13.917251    0.020812    0.222952
     57          6           0       15.347390   -0.236775   -0.319086
     58          6           0       15.729043   -1.802626   -0.306866
     59          6           0       16.309382    0.640770    0.415457
     60          6           0       17.808358    0.659647   -0.018783
     61          6           0       18.638928    1.793748    0.457435
     62          6           0       20.086653    1.722193   -0.043477
     63          6           0       20.332895    2.128334   -1.505741
     64          6           0       21.007660    2.578400    0.841522
     65          1           0       -4.212473    3.743704    1.839664
     66          1           0      -10.027142    4.324623   -0.420167
     67          1           0      -10.651546   -2.178432   -1.405619
     68          1           0       -2.898120   -1.104965    2.083872
     69          1           0       -2.157066    1.704991    1.686707
     70          1           0       -2.284291    0.769611    4.004557
     71          1           0       -3.746006    1.902982    3.979932
     72          1           0       -3.900732    0.125509    3.725375
     73          1           0       -2.130274   -1.388140   -0.539016
     74          1           0       -2.350687    0.236773   -0.563134
     75          1           0       -0.218422    0.082763    1.285164
     76          1           0       -0.599831   -1.476627    1.203166
     77          1           0       -4.698383    6.306850    0.687306
     78          1           0       -6.041541    6.924225    2.018201
     79          1           0       -4.723441    5.495980    2.360836
     80          1           0       -8.188866    7.016964    0.942651
     81          1           0       -9.448666    5.802290   -1.705333
     82          1           0       -9.135129    7.684608   -0.964050
     83          1           0      -12.670796    3.229709   -0.396766
     84          1           0      -11.932159    3.814481   -2.017916
     85          1           0      -13.315114    2.305247   -1.569572
     86          1           0      -12.632988   -1.264813   -1.135428
     87          1           0      -13.672195    0.098051   -1.529999
     88          1           0      -12.372716    0.325883   -3.718130
     89          1           0      -11.520437   -1.256665   -3.581779
     90          1           0      -13.208434   -1.443154   -3.718057
     91          1           0      -10.102685   -4.532524   -0.559636
     92          1           0       -9.064770   -4.564909   -2.119596
     93          1           0       -8.491557   -5.558989   -0.767566
     94          1           0       -3.638638   -3.335164   -0.500320
     95          1           0       -1.794478   -6.402889    2.059688
     96          1           0       -1.642219   -4.621604    3.150652
     97          1           0       -3.043799   -5.785757    3.122339
     98          1           0        2.682878   -2.049919   -1.431942
     99          1           0        2.210562   -0.323147   -1.945774
    100          1           0        4.206711   -1.265456    0.565869
    101          1           0        5.223952    1.590306   -2.528672
    102          1           0        5.471485    0.116257   -3.204984
    103          1           0        3.742004    0.441698   -2.728666
    104          1           0        6.323914    1.428058   -0.406324
    105          1           0        6.025130   -0.028089    0.700760
    106          1           0        7.061731   -1.608532   -0.913781
    107          1           0        7.521567   -0.481040   -2.087397
    108          1           0        8.933610    1.123538   -0.367456
    109          1           0        8.453576   -0.242455    0.847785
    110          1           0       10.197127   -0.361001   -1.809599
    111          1           0        9.089716   -2.580004   -1.417425
    112          1           0       10.843589   -2.719170   -1.471295
    113          1           0        9.992237   -2.684193    0.128258
    114          1           0       11.130233    0.790009    0.016765
    115          1           0       11.565862   -0.507001    1.115052
    116          1           0       12.774654   -1.905967   -0.334888
    117          1           0       12.900695   -0.556451   -1.668017
    118          1           0       13.489902    1.008949    0.269125
    119          1           0       13.777434   -0.378880    1.371219
    120          1           0       15.385386   -0.100507   -1.443658
    121          1           0       15.015802   -2.320927   -1.041064
    122          1           0       16.836321   -2.006469   -0.586584
    123          1           0       15.725817   -2.110800    0.677328
    124          1           0       15.851806    1.810186    0.450671
    125          1           0       16.247885    0.521882    1.641334
    126          1           0       18.220812   -0.432727    0.274833
    127          1           0       17.729048    0.779842   -1.170304
    128          1           0       18.053835    2.605819    0.307647
    129          1           0       18.903283    1.718307    1.611309
    130          1           0       20.288336    0.618999    0.236735
    131          1           0       19.996962    3.215707   -1.617567
    132          1           0       21.360218    2.005246   -1.660346
    133          1           0       19.670902    1.465926   -2.100416
    134          1           0       21.114810    2.118649    1.925782
    135          1           0       21.872791    2.767637    0.288654
    136          1           0       20.655086    3.634981    0.851151
    137          1           0       -7.228390    1.655494    0.785510
    138          1           0       -7.477565   -0.295721   -0.113974
 ---------------------------------------------------------------------

 SCF Done:  E(RB3LYP) =  -2733.10348806     A.U. after   17 cycles

 Excitation energies and oscillator strengths:

 Excited State   1:      Singlet-A      2.1466 eV  577.58 nm  f=0.1499  <S**2>=0.000
     235 -> 237       -0.25743
     235 -> 238       -0.30435
     236 -> 237        0.56473
     236 -> 238       -0.12979
 This state for optimization and/or second-order correction.
 Total Energy, E(TD-HF/TD-KS) =  -2733.02460091
 Copying the excited state density for this state as the 1-particle RhoCI density.

 The electronic state is 1-A.
 Alpha  occ. eigenvalues --  -19.17813 -19.17560 -19.12827 -19.12614 -19.10695
 Alpha  occ. eigenvalues --  -14.37854 -14.37396 -14.32656 -14.30336 -10.31344
 Alpha  occ. eigenvalues --  -10.31249 -10.27133 -10.25264 -10.25057 -10.24344
 Alpha  occ. eigenvalues --  -10.23973 -10.23781 -10.23554 -10.23401 -10.23286
 Alpha  occ. eigenvalues --  -10.23177 -10.22207 -10.22054 -10.22017 -10.21877
 Alpha  occ. eigenvalues --  -10.21827 -10.21809 -10.21749 -10.21637 -10.21464
 Alpha  occ. eigenvalues --  -10.21453 -10.21059 -10.20511 -10.20511 -10.20490
 Alpha  occ. eigenvalues --  -10.20383 -10.20252 -10.20216 -10.20132 -10.19914
 Alpha  occ. eigenvalues --  -10.19873 -10.19813 -10.19786 -10.19612 -10.19584
 Alpha  occ. eigenvalues --  -10.19449 -10.19449 -10.19394 -10.19303 -10.19204
 Alpha  occ. eigenvalues --  -10.19122 -10.18946 -10.18937 -10.18929 -10.18913
 Alpha  occ. eigenvalues --  -10.18798 -10.18699 -10.18630 -10.18516 -10.18480
 Alpha  occ. eigenvalues --  -10.17912 -10.17824 -10.17720 -10.17426  -1.10074
 Alpha  occ. eigenvalues --   -1.09294  -1.01984  -1.01329  -1.00433  -0.99533
 Alpha  occ. eigenvalues --   -0.97790  -0.95486  -0.94760  -0.84962  -0.82213
 Alpha  occ. eigenvalues --   -0.81845  -0.81553  -0.81381  -0.81352  -0.80780
 Alpha  occ. eigenvalues --   -0.80658  -0.79523  -0.79109  -0.78364  -0.77042
 Alpha  occ. eigenvalues --   -0.76301  -0.75663  -0.75055  -0.74538  -0.74109
 Alpha  occ. eigenvalues --   -0.73520  -0.72875  -0.72605  -0.71288  -0.70597
 Alpha  occ. eigenvalues --   -0.69658  -0.68853  -0.68336  -0.67544  -0.67238
 Alpha  occ. eigenvalues --   -0.67220  -0.66692  -0.66252  -0.66091  -0.64760
 Alpha  occ. eigenvalues --   -0.63627  -0.63199  -0.62556  -0.62352  -0.61654
 Alpha  occ. eigenvalues --   -0.60937  -0.58704  -0.58388  -0.57982  -0.57473
 Alpha  occ. eigenvalues --   -0.56600  -0.55988  -0.55934  -0.55732  -0.55085
 Alpha  occ. eigenvalues --   -0.54888  -0.54816  -0.53821  -0.53811  -0.53051
 Alpha  occ. eigenvalues --   -0.52646  -0.51885  -0.51737  -0.51117  -0.50353
 Alpha  occ. eigenvalues --   -0.49639  -0.49433  -0.49255  -0.48675  -0.47844
 Alpha  occ. eigenvalues --   -0.47614  -0.47288  -0.47000  -0.46883  -0.46579
 Alpha  occ. eigenvalues --   -0.46299  -0.46271  -0.45911  -0.45621  -0.45475
 Alpha  occ. eigenvalues --   -0.45204  -0.44994  -0.44823  -0.44720  -0.44542
 Alpha  occ. eigenvalues --   -0.44183  -0.43883  -0.43862  -0.43721  -0.43509
 Alpha  occ. eigenvalues --   -0.43261  -0.43104  -0.42514  -0.42345  -0.42203
 Alpha  occ. eigenvalues --   -0.41914  -0.41732  -0.41455  -0.41092  -0.40987
 Alpha  occ. eigenvalues --   -0.40868  -0.40667  -0.40528  -0.40366  -0.40224
 Alpha  occ. eigenvalues --   -0.39861  -0.39757  -0.39641  -0.39553  -0.39455
 Alpha  occ. eigenvalues --   -0.39196  -0.38840  -0.38759  -0.38481  -0.38273
 Alpha  occ. eigenvalues --   -0.38163  -0.38035  -0.37839  -0.37796  -0.37588
 Alpha  occ. eigenvalues --   -0.37549  -0.37319  -0.37175  -0.36909  -0.36479
 Alpha  occ. eigenvalues --   -0.36220  -0.36124  -0.35891  -0.35791  -0.35707
 Alpha  occ. eigenvalues --   -0.35488  -0.35343  -0.35197  -0.34985  -0.34717
 Alpha  occ. eigenvalues --   -0.34582  -0.34139  -0.33909  -0.33644  -0.33454
 Alpha  occ. eigenvalues --   -0.33399  -0.32972  -0.32777  -0.32676  -0.32201
 Alpha  occ. eigenvalues --   -0.32069  -0.31937  -0.31659  -0.31599  -0.31131
 Alpha  occ. eigenvalues --   -0.30877  -0.30852  -0.30524  -0.30247  -0.30212
 Alpha  occ. eigenvalues --   -0.29690  -0.28726  -0.28560  -0.28525  -0.28355
 Alpha  occ. eigenvalues --   -0.28055  -0.27420  -0.26817  -0.26407  -0.26118
 Alpha  occ. eigenvalues --   -0.24545  -0.24269  -0.23994  -0.23815  -0.19765
 Alpha  occ. eigenvalues --   -0.19572
 Alpha virt. eigenvalues --   -0.10476  -0.07714  -0.04545  -0.02726  -0.01037
 Alpha virt. eigenvalues --    0.00217   0.00449   0.00558   0.02288   0.02751
 Alpha virt. eigenvalues --    0.03211   0.04024   0.04134   0.04235   0.04409

 Mulliken charges:
               1
     1  C    0.120938
     2  C   -0.108859
     3  C   -0.114342
     4  C   -0.118096
     5  N   -0.154254
     6  C   -0.107789
     7  C    0.101216
     8  C   -0.176806
     9  C    0.028166
    10  C    0.045843
    11  C    0.040480
    12  C    0.193364
    13  C    0.139495
    14  O   -0.222637
    15  O   -0.321651
    16  N   -0.077898
    17  C    0.071949
    18  C   -0.074727
    19  C    0.016656
    20  C    0.062131
    21  C   -0.037119
    22  C   -0.049282
    23  C   -0.065072
    24  N   -0.165331
    25  C    0.014903
    26  C   -0.171670
    27  C   -0.126544
    28  C    0.032897
    29  C    0.143031
    30  C    0.091287
    31  C   -0.009379
    32  N    0.034301
    33  C    0.057115
    34  C   -0.150179
    35  C    0.122716
    36  C   -0.049476
    37  C    0.068845
    38  C    0.003125
    39  O   -0.248110
    40  C   -0.144596
    41  C    0.206926
    42  O   -0.209202
    43  O   -0.279956
    44  C    0.160816
    45  C    0.201206
    46  C   -0.085720
    47  C   -0.166065
    48  C    0.104807
    49  C    0.019066
    50  C   -0.036611
    51  C    0.015241
    52  C   -0.045550
    53  C   -0.014914
    54  C    0.013350
    55  C   -0.000428
    56  C   -0.014305
    57  C   -0.022232
    58  C   -0.002055
    59  C   -0.068130
    60  C   -0.001902
    61  C    0.079467
    62  C   -0.160702
    63  C    0.062670
    64  C    0.068650
    65  H    0.015740
    66  H    0.025982
    67  H    0.029437
    68  H   -0.043714
    69  H    0.034865
    70  H    0.018762
    71  H    0.030196
    72  H    0.013768
    73  H    0.007106
    74  H   -0.000226
    75  H    0.010379
    76  H   -0.035189
    77  H    0.054403
    78  H    0.059966
    79  H    0.046278
    80  H    0.001375
    81  H    0.063771
    82  H    0.043645
    83  H   -0.002706
    84  H    0.061588
    85  H   -0.010646
    86  H   -0.009916
    87  H    0.017225
    88  H    0.031952
    89  H    0.017986
    90  H    0.025855
    91  H    0.049662
    92  H    0.033716
    93  H    0.045361
    94  H    0.096753
    95  H    0.045044
    96  H    0.050967
    97  H    0.016257
    98  H    0.036498
    99  H    0.049481
   100  H    0.021402
   101  H    0.003156
   102  H    0.026967
   103  H   -0.003230
   104  H    0.010435
   105  H    0.002778
   106  H    0.016665
   107  H   -0.002468
   108  H    0.021920
   109  H    0.015375
   110  H   -0.001539
   111  H    0.008891
   112  H    0.016359
   113  H   -0.001141
   114  H   -0.015001
   115  H   -0.000716
   116  H    0.033891
   117  H    0.003715
   118  H   -0.000537
   119  H    0.009000
   120  H    0.001707
   121  H    0.037281
   122  H    0.020579
   123  H   -0.010405
   124  H    0.000163
   125  H    0.004491
   126  H    0.021435
   127  H    0.005707
   128  H   -0.042589
   129  H   -0.007079
   130  H   -0.001824
   131  H    0.015732
   132  H    0.008952
   133  H    0.012183
   134  H    0.034519
   135  H   -0.029344
   136  H   -0.010400
   137  H    0.188317
   138  H    0.133963
 Sum of Mulliken charges =   0.00000

 Dipole moment (field-independent basis, Debye):
    X=              0.6035    Y=              5.1308    Z=              0.0559  Tot=              5.1665
 Quadrupole moment (field-independent basis, Debye-Ang):
   XX=           -342.0076   YY=           -387.0594   ZZ=           -395.6321
   XY=            -26.2650   XZ=              3.8902   YZ=             -0.9866

 Normal termination of Gaussian 09 at Wed Jul 24 10:49:24 2019.
