 Gaussian 09, Revision D.01,
 Gaussian 09:  ES64L-G09RevD.01 24-Apr-2013

 --------------------------
 # td=(NStates=1) B3LYP/SVP
 --------------------------

 --
 TD
 --
 Symbolic Z-matrix:
 Charge =  0 Multiplicity = 1

                         Standard orientation:
 ---------------------------------------------------------------------
 Center     Atomic      Atomic             Coordinates (Angstroms)
 Number     Number       Type             X           Y           Z
 ---------------------------------------------------------------------
      1          6           0       -5.070398   -1.899982    0.562077
      2          6           0       -4.808521    2.765557    1.400273
      3          6           0       -9.491572    3.263617   -0.273936
      4          6           0       -9.858709   -1.647303   -0.916454
      5          7           0       -5.237203    0.462934    0.968946
      6          6           0       -4.392534   -0.727615    0.965742
      7          6           0       -2.974549   -0.379680    1.287633
      8          6           0       -2.998846    1.084085    1.819347
      9          6           0       -4.361269    1.434287    1.310199
     10          6           0       -2.886571    1.196058    3.374483
     11          6           0       -2.069034   -0.649456    0.023221
     12          6           0       -0.644185   -0.502336    0.407755
     13          6           0        0.307990   -0.805451   -0.699383
     14          8           0        0.085382   -1.359263   -1.744520
     15          8           0        1.616391   -0.490075   -0.273437
     16          7           0       -7.069158    2.713571    0.405974
     17          6           0       -6.033904    3.381199    0.956249
     18          6           0       -6.299702    4.742832    0.945261
     19          6           0       -7.565053    4.920316    0.495037
     20          6           0       -8.107333    3.550458    0.144395
     21          6           0       -5.361593    5.889849    1.354010
     22          6           0       -8.441935    6.108362    0.434698
     23          6           0       -9.185825    6.579630   -0.633223
     24          7           0       -9.172853    0.818342   -0.487415
     25          6           0       -9.950436    2.004667   -0.610295
     26          6           0      -11.314072    1.697974   -0.980783
     27          6           0      -11.459322    0.317885   -1.219124
     28          6           0      -10.099363   -0.227916   -0.868102
     29          6           0      -12.346751    2.684773   -1.085288
     30          6           0      -12.611043   -0.454127   -1.780352
     31          6           0      -12.449781   -1.010042   -3.269666
     32          7           0       -7.502201   -1.355530   -0.029752
     33          6           0       -8.615967   -2.138396   -0.473105
     34          6           0       -8.172668   -3.416315   -0.596209
     35          6           0       -6.804167   -3.418205   -0.175551
     36          6           0       -6.446343   -2.062124    0.130975
     37          6           0       -8.786287   -4.675753   -1.128327
     38          6           0       -5.604908   -4.236608    0.021670
     39          8           0       -5.428019   -5.489167   -0.059450
     40          6           0       -4.413548   -3.195597    0.560043
     41          6           0       -3.834349   -3.841521    1.881068
     42          8           0       -4.256585   -3.338188    2.929601
     43          8           0       -2.935981   -4.772252    1.629735
     44          6           0       -2.468370   -5.418558    2.782143
     45          6           0        2.745025   -0.867293   -1.157797
     46          6           0        4.010061   -0.381017   -0.490605
     47          6           0        4.938464    0.301092   -1.082771
     48          6           0        4.958118    0.820483   -2.521370
     49          6           0        6.226510    0.568744   -0.386000
     50          6           0        7.410815   -0.146768   -0.941423
     51          6           0        8.662893    0.073576   -0.142385
     52          6           0       10.034445   -0.651614   -0.755132
     53          6           0        9.786895   -2.181896   -0.902182
     54          6           0       11.305445   -0.191074    0.048476
     55          6           0       12.642990   -0.603504   -0.666627
     56          6           0       13.775350   -0.019926    0.187452
     57          6           0       15.163752   -0.159840   -0.446152
     58          6           0       15.538677   -1.704720   -0.562729
     59          6           0       16.347278    0.520523    0.462262
     60          6           0       17.727518    0.564777   -0.242190
     61          6           0       18.701275    1.450607    0.615614
     62          6           0       20.140714    1.364462    0.030009
     63          6           0       20.416080    2.049971   -1.246496
     64          6           0       20.945547    2.040712    1.180258
     65          1           0       -4.043994    3.511220    1.574887
     66          1           0      -10.173666    4.107191   -0.276949
     67          1           0      -10.527506   -2.182098   -1.394588
     68          1           0       -2.612149   -1.168365    2.094545
     69          1           0       -2.194847    1.560567    1.392036
     70          1           0       -1.932159    0.823985    3.896143
     71          1           0       -2.939403    2.197597    3.788717
     72          1           0       -3.699004    0.770360    3.871609
     73          1           0       -2.127536   -1.649114   -0.382810
     74          1           0       -2.605984    0.281466   -0.558421
     75          1           0       -0.345711    0.299291    0.934248
     76          1           0       -0.279738   -1.313421    1.057155
     77          1           0       -4.415140    5.728470    0.751586
     78          1           0       -5.720897    7.001348    1.087270
     79          1           0       -5.095863    5.989853    2.564561
     80          1           0       -7.987694    6.868675    1.259938
     81          1           0       -9.475496    5.760271   -1.236458
     82          1           0       -9.676961    7.712560   -0.591913
     83          1           0      -12.832812    3.237242   -0.187805
     84          1           0      -12.098372    3.537162   -1.711026
     85          1           0      -13.361398    2.252448   -1.365412
     86          1           0      -12.618894   -1.391196   -1.033757
     87          1           0      -13.616344    0.230403   -1.587074
     88          1           0      -12.575594   -0.066541   -4.067029
     89          1           0      -11.602492   -1.615843   -3.452025
     90          1           0      -13.479058   -1.747211   -3.293464
     91          1           0       -9.446299   -4.990769   -0.156668
     92          1           0       -9.293622   -4.399858   -2.127405
     93          1           0       -8.145341   -5.521018   -1.367191
     94          1           0       -3.572934   -3.443713   -0.089686
     95          1           0       -1.203257   -5.718541    2.303863
     96          1           0       -2.348839   -4.616743    3.619792
     97          1           0       -3.055892   -6.366353    3.156604
     98          1           0        2.603882   -1.969847   -1.103708
     99          1           0        2.521518   -0.383763   -2.094132
    100          1           0        4.147209   -0.534985    0.670840
    101          1           0        5.253688    1.850887   -2.471062
    102          1           0        5.692753    0.326001   -3.021898
    103          1           0        3.954081    0.619923   -2.986333
    104          1           0        6.423964    1.650902   -0.267835
    105          1           0        6.133792    0.361595    0.737457
    106          1           0        7.409511   -1.370637   -0.740708
    107          1           0        7.585722   -0.089194   -1.968752
    108          1           0        8.980867    1.126850   -0.032281
    109          1           0        8.364448   -0.420616    0.977899
    110          1           0        9.935376   -0.351040   -1.713023
    111          1           0        8.900161   -2.187625   -1.335569
    112          1           0       10.630468   -2.663838   -1.527612
    113          1           0        9.660433   -2.769703    0.238690
    114          1           0       11.251877    1.006310   -0.146183
    115          1           0       11.250488   -0.461024    1.086760
    116          1           0       12.687375   -1.718634   -0.663202
    117          1           0       12.641791   -0.175764   -1.877382
    118          1           0       13.610520    1.220981    0.228735
    119          1           0       13.684236   -0.585414    1.270448
    120          1           0       15.175881    0.149899   -1.520901
    121          1           0       14.666193   -2.147224   -1.007228
    122          1           0       16.465970   -1.984443   -1.058888
    123          1           0       15.566991   -2.200922    0.329085
    124          1           0       15.883030    1.559875    0.888675
    125          1           0       16.314271    0.164475    1.366680
    126          1           0       17.998093   -0.388419   -0.299210
    127          1           0       17.711528    0.919167   -1.145362
    128          1           0       18.445957    2.595397    0.596222
    129          1           0       18.519514    1.318758    1.727957
    130          1           0       20.337172    0.302417    0.097944
    131          1           0       19.972566    2.891570   -1.190319
    132          1           0       21.461950    1.900917   -1.293803
    133          1           0       19.977936    1.364646   -2.094993
    134          1           0       20.834598    1.417760    2.148876
    135          1           0       21.929064    2.098565    0.816677
    136          1           0       20.680174    3.130900    1.328849
    137          1           0       -7.172583    1.674582    0.098333
    138          1           0       -7.908770   -0.383437   -0.142881
 ---------------------------------------------------------------------

 SCF Done:  E(RB3LYP) =  -2732.94687145     A.U. after   17 cycles

 Excitation energies and oscillator strengths:

 Excited State   1:      Singlet-A      1.9889 eV  623.39 nm  f=0.1600  <S**2>=0.000
     235 -> 237       -0.24502
     235 -> 238       -0.24333
     236 -> 237        0.59486
     236 -> 238       -0.15442
 This state for optimization and/or second-order correction.
 Total Energy, E(TD-HF/TD-KS) =  -2732.87378155
 Copying the excited state density for this state as the 1-particle RhoCI density.

 The electronic state is 1-A.
 Alpha  occ. eigenvalues --  -19.20037 -19.15589 -19.12687 -19.12001 -19.11079
 Alpha  occ. eigenvalues --  -14.37734 -14.36491 -14.32874 -14.31535 -10.31812
 Alpha  occ. eigenvalues --  -10.31243 -10.28040 -10.27415 -10.24590 -10.24495
 Alpha  occ. eigenvalues --  -10.24011 -10.23785 -10.23310 -10.22919 -10.22630
 Alpha  occ. eigenvalues --  -10.22624 -10.22596 -10.22379 -10.22078 -10.22063
 Alpha  occ. eigenvalues --  -10.21997 -10.21617 -10.21507 -10.21158 -10.21023
 Alpha  occ. eigenvalues --  -10.20800 -10.20783 -10.20719 -10.20680 -10.20650
 Alpha  occ. eigenvalues --  -10.20584 -10.20446 -10.20393 -10.20367 -10.20236
 Alpha  occ. eigenvalues --  -10.19864 -10.19842 -10.19612 -10.19558 -10.19440
 Alpha  occ. eigenvalues --  -10.19392 -10.19383 -10.19348 -10.19292 -10.19229
 Alpha  occ. eigenvalues --  -10.19135 -10.18991 -10.18963 -10.18943 -10.18868
 Alpha  occ. eigenvalues --  -10.18647 -10.18493 -10.18392 -10.17980 -10.17629
 Alpha  occ. eigenvalues --  -10.17521 -10.17048 -10.16238 -10.16010  -1.11526
 Alpha  occ. eigenvalues --   -1.07086  -1.00339  -0.99416  -0.99356  -0.99115
 Alpha  occ. eigenvalues --   -0.98255  -0.93435  -0.90981  -0.83758  -0.83439
 Alpha  occ. eigenvalues --   -0.82348  -0.81795  -0.81528  -0.81036  -0.80612
 Alpha  occ. eigenvalues --   -0.79875  -0.79313  -0.79290  -0.78874  -0.78195
 Alpha  occ. eigenvalues --   -0.76774  -0.76001  -0.75509  -0.75030  -0.74122
 Alpha  occ. eigenvalues --   -0.73465  -0.73120  -0.72266  -0.71710  -0.70435
 Alpha  occ. eigenvalues --   -0.69334  -0.68774  -0.68563  -0.68387  -0.68215
 Alpha  occ. eigenvalues --   -0.67346  -0.66703  -0.66121  -0.65891  -0.65397
 Alpha  occ. eigenvalues --   -0.64412  -0.63220  -0.62498  -0.61726  -0.61363
 Alpha  occ. eigenvalues --   -0.61211  -0.59755  -0.58860  -0.57937  -0.57189
 Alpha  occ. eigenvalues --   -0.56991  -0.56230  -0.55606  -0.55597  -0.55310
 Alpha  occ. eigenvalues --   -0.54553  -0.54167  -0.53587  -0.53438  -0.52603
 Alpha  occ. eigenvalues --   -0.52438  -0.51670  -0.51506  -0.50842  -0.50321
 Alpha  occ. eigenvalues --   -0.49901  -0.49367  -0.49006  -0.48599  -0.48312
 Alpha  occ. eigenvalues --   -0.48000  -0.47724  -0.47305  -0.47222  -0.47111
 Alpha  occ. eigenvalues --   -0.46670  -0.46320  -0.46122  -0.45692  -0.45429
 Alpha  occ. eigenvalues --   -0.45388  -0.45182  -0.45041  -0.44821  -0.44590
 Alpha  occ. eigenvalues --   -0.44408  -0.44192  -0.43679  -0.43581  -0.43507
 Alpha  occ. eigenvalues --   -0.43337  -0.43301  -0.43176  -0.42659  -0.42300
 Alpha  occ. eigenvalues --   -0.42073  -0.41773  -0.41569  -0.41462  -0.41400
 Alpha  occ. eigenvalues --   -0.41148  -0.41067  -0.40996  -0.40483  -0.40371
 Alpha  occ. eigenvalues --   -0.40086  -0.39927  -0.39798  -0.39685  -0.39290
 Alpha  occ. eigenvalues --   -0.39185  -0.39171  -0.39049  -0.38927  -0.38700
 Alpha  occ. eigenvalues --   -0.38499  -0.38379  -0.38164  -0.38066  -0.37794
 Alpha  occ. eigenvalues --   -0.37587  -0.36942  -0.36756  -0.36368  -0.36206
 Alpha  occ. eigenvalues --   -0.36092  -0.35984  -0.35838  -0.35720  -0.35521
 Alpha  occ. eigenvalues --   -0.35345  -0.35040  -0.34858  -0.34683  -0.34460
 Alpha  occ. eigenvalues --   -0.34332  -0.34138  -0.34110  -0.33948  -0.33699
 Alpha  occ. eigenvalues --   -0.33408  -0.33271  -0.32965  -0.32742  -0.32527
 Alpha  occ. eigenvalues --   -0.32444  -0.32036  -0.32006  -0.31588  -0.31534
 Alpha  occ. eigenvalues --   -0.30933  -0.30832  -0.30223  -0.29894  -0.29654
 Alpha  occ. eigenvalues --   -0.29597  -0.28883  -0.28822  -0.28035  -0.27913
 Alpha  occ. eigenvalues --   -0.27662  -0.27022  -0.26681  -0.25859  -0.25686
 Alpha  occ. eigenvalues --   -0.25170  -0.24623  -0.23574  -0.22299  -0.19867
 Alpha  occ. eigenvalues --   -0.19015
 Alpha virt. eigenvalues --   -0.10892  -0.07753  -0.04293  -0.02970  -0.00275
 Alpha virt. eigenvalues --    0.00389   0.00427   0.01092   0.01318   0.02727
 Alpha virt. eigenvalues --    0.03072   0.03502   0.03945   0.04327   0.04604

 Mulliken charges:
               1
     1  C    0.073022
     2  C   -0.041458
     3  C   -0.081156
     4  C   -0.006603
     5  N   -0.211719
     6  C   -0.020208
     7  C   -0.070611
     8  C    0.091424
     9  C   -0.023851
    10  C    0.074038
    11  C    0.059117
    12  C    0.107706
    13  C    0.170720
    14  O   -0.219343
    15  O   -0.406553
    16  N   -0.053526
    17  C    0.074357
    18  C   -0.074781
    19  C   -0.013985
    20  C    0.033503
    21  C   -0.023346
    22  C   -0.078650
    23  C   -0.036384
    24  N   -0.368887
    25  C    0.147596
    26  C   -0.077499
    27  C   -0.064006
    28  C    0.061036
    29  C    0.032963
    30  C   -0.039630
    31  C   -0.042874
    32  N    0.005093
    33  C    0.084798
    34  C   -0.144793
    35  C    0.004055
    36  C    0.069156
    37  C    0.055267
    38  C    0.064782
    39  O   -0.237198
    40  C   -0.116757
    41  C    0.188307
    42  O   -0.249137
    43  O   -0.227698
    44  C    0.054565
    45  C    0.318551
    46  C   -0.104677
    47  C   -0.157021
    48  C    0.162844
    49  C    0.090075
    50  C   -0.014385
    51  C   -0.065211
    52  C   -0.025613
    53  C    0.010535
    54  C    0.045055
    55  C   -0.049314
    56  C   -0.042967
    57  C   -0.060539
    58  C    0.059239
    59  C    0.054042
    60  C    0.247583
    61  C   -0.069711
    62  C   -0.134541
    63  C    0.170028
    64  C    0.037321
    65  H   -0.035171
    66  H   -0.011808
    67  H   -0.090943
    68  H    0.016232
    69  H   -0.035596
    70  H    0.021228
    71  H   -0.000913
    72  H    0.009310
    73  H    0.023301
    74  H    0.040293
    75  H   -0.024853
    76  H    0.023812
    77  H    0.043682
    78  H    0.044215
    79  H    0.054168
    80  H    0.024876
    81  H    0.023943
    82  H    0.073675
    83  H    0.019969
    84  H    0.014389
    85  H   -0.002862
    86  H    0.034541
    87  H    0.039606
    88  H    0.054144
    89  H    0.029509
    90  H    0.038800
    91  H    0.058983
    92  H    0.036414
    93  H    0.039878
    94  H    0.036015
    95  H    0.049127
    96  H    0.064491
    97  H    0.084778
    98  H    0.020606
    99  H    0.017460
   100  H    0.014041
   101  H    0.008382
   102  H   -0.005191
   103  H    0.010993
   104  H   -0.004712
   105  H   -0.014383
   106  H    0.026815
   107  H   -0.013253
   108  H   -0.004177
   109  H    0.011508
   110  H   -0.044904
   111  H   -0.029003
   112  H    0.031007
   113  H    0.016933
   114  H    0.012114
   115  H    0.005820
   116  H    0.025032
   117  H    0.023138
   118  H    0.026029
   119  H    0.024650
   120  H   -0.000837
   121  H   -0.019759
   122  H    0.010131
   123  H   -0.035223
   124  H   -0.029308
   125  H   -0.069314
   126  H   -0.047756
   127  H   -0.061105
   128  H   -0.013162
   129  H   -0.000377
   130  H   -0.014817
   131  H   -0.039048
   132  H    0.004633
   133  H    0.011261
   134  H    0.023968
   135  H   -0.029720
   136  H    0.002322
   137  H    0.197422
   138  H    0.162397
 Sum of Mulliken charges =   0.00000

 Dipole moment (field-independent basis, Debye):
    X=              2.3618    Y=              4.7572    Z=             -0.1047  Tot=              5.3122
 Quadrupole moment (field-independent basis, Debye-Ang):
   XX=           -341.5091   YY=           -387.7506   ZZ=           -395.5656
   XY=            -31.4599   XZ=              8.1146   YZ=             -2.6103

 Normal termination of Gaussian 09 at Mon Aug  5 02:56:32 2019.
