 Gaussian 09, Revision D.01,
 Gaussian 09:  ES64L-G09RevD.01 24-Apr-2013

 --------------------------
 # td=(NStates=1) B3LYP/SVP
 --------------------------

 --
 TD
 --
 Symbolic Z-matrix:
 Charge =  0 Multiplicity = 1

                         Standard orientation:
 ---------------------------------------------------------------------
 Center     Atomic      Atomic             Coordinates (Angstroms)
 Number     Number       Type             X           Y           Z
 ---------------------------------------------------------------------
      1          6           0       -5.139280   -1.964758    0.457761
      2          6           0       -4.790356    2.818659    1.342356
      3          6           0       -9.354002    3.348757   -0.285106
      4          6           0       -9.915888   -1.486587   -0.786270
      5          7           0       -5.188376    0.480727    0.776757
      6          6           0       -4.536001   -0.691715    0.725329
      7          6           0       -3.116504   -0.531658    1.196449
      8          6           0       -3.072291    0.902586    1.708206
      9          6           0       -4.434053    1.439501    1.172182
     10          6           0       -2.956088    1.019099    3.219035
     11          6           0       -2.092920   -0.780753    0.020413
     12          6           0       -0.579431   -0.695445    0.460577
     13          6           0        0.385854   -0.999627   -0.620352
     14          8           0        0.059739   -1.529947   -1.689569
     15          8           0        1.642453   -0.715095   -0.342887
     16          7           0       -6.988503    2.729177    0.351537
     17          6           0       -5.944359    3.377469    0.887601
     18          6           0       -6.224010    4.797497    1.022296
     19          6           0       -7.527611    5.016129    0.445207
     20          6           0       -8.076131    3.751310    0.102574
     21          6           0       -5.257222    5.808693    1.437763
     22          6           0       -8.181638    6.297710    0.330319
     23          6           0       -9.121020    6.601335   -0.581892
     24          7           0       -9.271066    0.875479   -0.328351
     25          6           0       -9.933222    1.978456   -0.447496
     26          6           0      -11.361239    1.825063   -0.725321
     27          6           0      -11.477361    0.526486   -0.962417
     28          6           0      -10.159347   -0.068109   -0.744975
     29          6           0      -12.255792    3.033615   -1.023863
     30          6           0      -12.775150   -0.286584   -1.320047
     31          6           0      -12.943254   -0.399352   -2.876940
     32          7           0       -7.540246   -1.342628   -0.163737
     33          6           0       -8.605562   -2.111186   -0.551883
     34          6           0       -8.260554   -3.409308   -0.569805
     35          6           0       -6.859446   -3.462170   -0.185483
     36          6           0       -6.502472   -2.105675   -0.005809
     37          6           0       -9.178054   -4.529162   -0.930422
     38          6           0       -5.781336   -4.372709   -0.013068
     39          8           0       -5.652720   -5.591572    0.042809
     40          6           0       -4.532332   -3.395615    0.363760
     41          6           0       -3.842453   -3.939480    1.688741
     42          8           0       -4.197268   -3.543145    2.798475
     43          8           0       -2.824798   -4.754230    1.428932
     44          6           0       -2.328354   -5.499048    2.574976
     45          6           0        2.689263   -1.005851   -1.298882
     46          6           0        4.033806   -0.868194   -0.722443
     47          6           0        4.986361   -0.035667   -1.128439
     48          6           0        4.857399    1.080478   -2.294568
     49          6           0        6.289978    0.142870   -0.403456
     50          6           0        7.566194   -0.465972   -1.117896
     51          6           0        8.829648   -0.314344   -0.147125
     52          6           0       10.152271   -0.741095   -0.854234
     53          6           0       10.174835   -2.140618   -1.443301
     54          6           0       11.396504   -0.353855    0.044358
     55          6           0       12.690160   -0.467833   -0.617088
     56          6           0       13.853105   -0.126079    0.316907
     57          6           0       15.293907   -0.202442   -0.232637
     58          6           0       15.712788   -1.748482   -0.474487
     59          6           0       16.231897    0.518617    0.715630
     60          6           0       17.680532    0.909637    0.033509
     61          6           0       18.635302    1.711196    0.785175
     62          6           0       20.135820    1.570320    0.177167
     63          6           0       20.305967    2.277647   -1.174796
     64          6           0       21.151919    2.295815    1.188505
     65          1           0       -4.038313    3.528773    1.886488
     66          1           0      -10.240384    4.072044   -0.464523
     67          1           0      -10.860901   -2.133526   -1.019066
     68          1           0       -2.981852   -1.186157    1.952408
     69          1           0       -2.420287    1.514178    1.202535
     70          1           0       -2.091864    0.616335    3.618968
     71          1           0       -2.975752    2.166524    3.734829
     72          1           0       -3.755773    0.269198    3.703807
     73          1           0       -2.225336   -1.631052   -0.621182
     74          1           0       -2.300737   -0.006381   -0.768795
     75          1           0       -0.533292    0.357767    0.892940
     76          1           0       -0.454145   -1.600108    1.307757
     77          1           0       -4.384655    5.632579    0.772989
     78          1           0       -5.719533    6.826342    0.953809
     79          1           0       -4.894479    5.831679    2.504525
     80          1           0       -7.833205    7.240312    0.958650
     81          1           0       -9.531401    5.784461   -1.175148
     82          1           0       -9.696746    7.601543   -0.500147
     83          1           0      -12.421507    3.699049   -0.091727
     84          1           0      -11.743536    3.530336   -1.922043
     85          1           0      -13.132646    2.718845   -1.124880
     86          1           0      -12.724732   -1.338519   -0.962319
     87          1           0      -13.797601    0.091174   -0.915993
     88          1           0      -13.064438    0.583125   -3.160070
     89          1           0      -11.869709   -0.811270   -3.485285
     90          1           0      -13.691779   -0.984968   -3.316058
     91          1           0      -10.147185   -4.640668   -0.353470
     92          1           0       -9.575811   -4.271446   -1.861251
     93          1           0       -8.507788   -5.436847   -0.963386
     94          1           0       -3.887663   -3.565022   -0.651030
     95          1           0       -1.544054   -6.103977    2.251316
     96          1           0       -2.026700   -4.811646    3.498379
     97          1           0       -3.232413   -6.047514    3.167043
     98          1           0        2.409078   -1.974680   -1.864041
     99          1           0        2.531376   -0.290270   -2.143711
    100          1           0        4.267510   -1.349722    0.166478
    101          1           0        4.843612    2.148348   -1.770276
    102          1           0        5.622245    0.972773   -3.081431
    103          1           0        4.044548    0.724539   -2.718061
    104          1           0        6.400788    1.156088   -0.148521
    105          1           0        6.312944   -0.301147    0.428735
    106          1           0        7.373839   -1.370462   -1.508861
    107          1           0        7.736591    0.132558   -1.938515
    108          1           0        8.923290    0.759822    0.018332
    109          1           0        8.583857   -0.936190    0.793392
    110          1           0       10.134457    0.147055   -1.707473
    111          1           0        9.334318   -2.602345   -2.247497
    112          1           0       11.092373   -2.249342   -1.963224
    113          1           0       10.069577   -2.892809   -0.544283
    114          1           0       11.322443    0.776568    0.451603
    115          1           0       11.355889   -1.061901    1.060806
    116          1           0       13.058277   -1.617677   -1.059651
    117          1           0       12.690423    0.332839   -1.614395
    118          1           0       13.626443    0.928148    0.811197
    119          1           0       13.913560   -0.928692    1.255089
    120          1           0       15.337706    0.391492   -1.351800
    121          1           0       14.990744   -2.249426   -1.594939
    122          1           0       16.702681   -1.554295   -0.860922
    123          1           0       15.773638   -2.270827    0.358344
    124          1           0       15.762885    1.442322    0.936914
    125          1           0       16.237128   -0.008208    1.747068
    126          1           0       18.282987   -0.052033   -0.046470
    127          1           0       17.155801    1.308779   -0.936941
    128          1           0       18.178520    2.814373    0.885648
    129          1           0       18.588730    1.476524    1.927875
    130          1           0       20.434612    0.537635    0.049614
    131          1           0       19.877290    3.399415   -0.989764
    132          1           0       21.424834    2.398762   -1.847986
    133          1           0       19.515577    2.063471   -1.855144
    134          1           0       21.428630    1.708576    2.014139
    135          1           0       22.072487    2.352634    0.549652
    136          1           0       20.872772    3.390428    1.457681
    137          1           0       -7.145511    1.817617    0.358388
    138          1           0       -7.767312   -0.190715   -0.140412
 ---------------------------------------------------------------------

 SCF Done:  E(RB3LYP) =  -2732.97250658     A.U. after   16 cycles

 Excitation energies and oscillator strengths:

 Excited State   1:      Singlet-A      2.1146 eV  586.31 nm  f=0.1659  <S**2>=0.000
     235 -> 237       -0.15801
     235 -> 238        0.29374
     236 -> 237        0.61285
 This state for optimization and/or second-order correction.
 Total Energy, E(TD-HF/TD-KS) =  -2732.89479496
 Copying the excited state density for this state as the 1-particle RhoCI density.

 The electronic state is 1-A.
 Alpha  occ. eigenvalues --  -19.18548 -19.17678 -19.11827 -19.11142 -19.11086
 Alpha  occ. eigenvalues --  -14.36635 -14.35950 -14.31695 -14.31412 -10.31589
 Alpha  occ. eigenvalues --  -10.31128 -10.26880 -10.25573 -10.25188 -10.25053
 Alpha  occ. eigenvalues --  -10.23683 -10.22809 -10.22803 -10.22794 -10.22368
 Alpha  occ. eigenvalues --  -10.22294 -10.22137 -10.22093 -10.21773 -10.21720
 Alpha  occ. eigenvalues --  -10.21600 -10.21522 -10.21508 -10.21456 -10.21242
 Alpha  occ. eigenvalues --  -10.21135 -10.21052 -10.20992 -10.20779 -10.20772
 Alpha  occ. eigenvalues --  -10.20707 -10.20692 -10.20298 -10.20257 -10.20242
 Alpha  occ. eigenvalues --  -10.20233 -10.20128 -10.20084 -10.20073 -10.19767
 Alpha  occ. eigenvalues --  -10.19756 -10.19661 -10.19638 -10.19588 -10.19428
 Alpha  occ. eigenvalues --  -10.19190 -10.19186 -10.19151 -10.19139 -10.19092
 Alpha  occ. eigenvalues --  -10.18886 -10.18866 -10.18807 -10.18779 -10.18221
 Alpha  occ. eigenvalues --  -10.18156 -10.18153 -10.17092 -10.16492  -1.09491
 Alpha  occ. eigenvalues --   -1.09085  -1.00855  -0.99438  -0.99362  -0.98777
 Alpha  occ. eigenvalues --   -0.97261  -0.96579  -0.95816  -0.83176  -0.82845
 Alpha  occ. eigenvalues --   -0.82461  -0.81410  -0.80836  -0.80671  -0.80317
 Alpha  occ. eigenvalues --   -0.80212  -0.79991  -0.78974  -0.78251  -0.77548
 Alpha  occ. eigenvalues --   -0.76834  -0.75967  -0.74978  -0.74668  -0.74274
 Alpha  occ. eigenvalues --   -0.73174  -0.72795  -0.72442  -0.71661  -0.71341
 Alpha  occ. eigenvalues --   -0.70329  -0.69921  -0.68570  -0.67971  -0.67800
 Alpha  occ. eigenvalues --   -0.67237  -0.66331  -0.66218  -0.65607  -0.65500
 Alpha  occ. eigenvalues --   -0.63931  -0.62931  -0.62484  -0.61823  -0.61532
 Alpha  occ. eigenvalues --   -0.60866  -0.58729  -0.58616  -0.57387  -0.57156
 Alpha  occ. eigenvalues --   -0.56441  -0.56112  -0.55963  -0.55470  -0.55397
 Alpha  occ. eigenvalues --   -0.54251  -0.53646  -0.53518  -0.53282  -0.53035
 Alpha  occ. eigenvalues --   -0.52592  -0.52122  -0.51550  -0.50854  -0.49886
 Alpha  occ. eigenvalues --   -0.49423  -0.49254  -0.48637  -0.48039  -0.47821
 Alpha  occ. eigenvalues --   -0.47704  -0.47364  -0.47308  -0.46969  -0.46650
 Alpha  occ. eigenvalues --   -0.46527  -0.46460  -0.45975  -0.45878  -0.45654
 Alpha  occ. eigenvalues --   -0.45286  -0.44900  -0.44863  -0.44646  -0.44520
 Alpha  occ. eigenvalues --   -0.44264  -0.44026  -0.43539  -0.43469  -0.43222
 Alpha  occ. eigenvalues --   -0.42976  -0.42806  -0.42728  -0.42620  -0.42487
 Alpha  occ. eigenvalues --   -0.42228  -0.42045  -0.41879  -0.41853  -0.41626
 Alpha  occ. eigenvalues --   -0.41187  -0.41062  -0.40969  -0.40585  -0.40228
 Alpha  occ. eigenvalues --   -0.39762  -0.39670  -0.39583  -0.39416  -0.39363
 Alpha  occ. eigenvalues --   -0.38998  -0.38926  -0.38850  -0.38469  -0.38312
 Alpha  occ. eigenvalues --   -0.38256  -0.38041  -0.37690  -0.37489  -0.37396
 Alpha  occ. eigenvalues --   -0.37384  -0.36898  -0.36316  -0.36150  -0.36110
 Alpha  occ. eigenvalues --   -0.35866  -0.35796  -0.35586  -0.35510  -0.35401
 Alpha  occ. eigenvalues --   -0.35240  -0.35074  -0.34989  -0.34877  -0.34699
 Alpha  occ. eigenvalues --   -0.34366  -0.34335  -0.34089  -0.33949  -0.33666
 Alpha  occ. eigenvalues --   -0.33509  -0.33121  -0.33000  -0.32843  -0.32754
 Alpha  occ. eigenvalues --   -0.32364  -0.32129  -0.31987  -0.31340  -0.31124
 Alpha  occ. eigenvalues --   -0.30756  -0.30722  -0.30475  -0.29835  -0.29745
 Alpha  occ. eigenvalues --   -0.29664  -0.29385  -0.28858  -0.28474  -0.28200
 Alpha  occ. eigenvalues --   -0.27316  -0.27110  -0.26329  -0.25686  -0.25279
 Alpha  occ. eigenvalues --   -0.25109  -0.24692  -0.24175  -0.23782  -0.19977
 Alpha  occ. eigenvalues --   -0.19240
 Alpha virt. eigenvalues --   -0.10439  -0.07956  -0.04434  -0.01958  -0.00223
 Alpha virt. eigenvalues --   -0.00180   0.00127   0.00579   0.01920   0.03122
 Alpha virt. eigenvalues --    0.03349   0.03717   0.03850   0.04091   0.04407

 Mulliken charges:
               1
     1  C    0.022020
     2  C   -0.120580
     3  C   -0.111296
     4  C   -0.093218
     5  N   -0.093853
     6  C   -0.076939
     7  C    0.058456
     8  C    0.031115
     9  C   -0.061945
    10  C    0.024475
    11  C    0.022078
    12  C   -0.008191
    13  C    0.185502
    14  O   -0.274175
    15  O   -0.289977
    16  N   -0.049969
    17  C    0.153525
    18  C   -0.152456
    19  C    0.094576
    20  C    0.156559
    21  C    0.042733
    22  C   -0.106396
    23  C   -0.047691
    24  N   -0.176828
    25  C   -0.041712
    26  C   -0.189059
    27  C   -0.059922
    28  C    0.042024
    29  C    0.200951
    30  C    0.030590
    31  C   -0.014047
    32  N   -0.054316
    33  C    0.064315
    34  C   -0.148182
    35  C   -0.023395
    36  C    0.045518
    37  C    0.128282
    38  C    0.041522
    39  O   -0.193683
    40  C   -0.125538
    41  C    0.233745
    42  O   -0.249970
    43  O   -0.272336
    44  C    0.143453
    45  C    0.250733
    46  C   -0.009694
    47  C   -0.209259
    48  C    0.124045
    49  C    0.206644
    50  C    0.082281
    51  C    0.019399
    52  C   -0.092935
    53  C   -0.000212
    54  C   -0.015712
    55  C   -0.042008
    56  C   -0.025919
    57  C   -0.147759
    58  C    0.047447
    59  C    0.031666
    60  C   -0.004571
    61  C    0.000432
    62  C   -0.089832
    63  C   -0.032705
    64  C    0.034132
    65  H    0.001341
    66  H   -0.000783
    67  H    0.018371
    68  H   -0.039276
    69  H   -0.039693
    70  H   -0.005066
    71  H    0.033637
    72  H    0.040644
    73  H    0.012378
    74  H   -0.003737
    75  H    0.044214
    76  H    0.065055
    77  H    0.034142
    78  H    0.039402
    79  H    0.054622
    80  H    0.031196
    81  H    0.026715
    82  H    0.042046
    83  H    0.028146
    84  H    0.060016
    85  H   -0.073315
    86  H    0.006080
    87  H    0.027067
    88  H   -0.004670
    89  H    0.022389
    90  H    0.010388
    91  H    0.026525
    92  H   -0.003546
    93  H    0.052081
    94  H    0.084664
    95  H    0.033843
    96  H    0.043100
    97  H    0.055228
    98  H    0.043265
    99  H    0.006971
   100  H   -0.041601
   101  H    0.056181
   102  H    0.020380
   103  H   -0.053800
   104  H   -0.027341
   105  H   -0.096516
   106  H   -0.033356
   107  H   -0.040764
   108  H   -0.005792
   109  H    0.010274
   110  H   -0.000182
   111  H    0.037087
   112  H    0.013725
   113  H    0.020513
   114  H    0.018716
   115  H    0.013182
   116  H    0.033822
   117  H    0.017172
   118  H    0.002852
   119  H    0.008843
   120  H    0.009042
   121  H    0.036264
   122  H    0.008120
   123  H   -0.014290
   124  H   -0.022301
   125  H   -0.000678
   126  H    0.014145
   127  H    0.029209
   128  H    0.001885
   129  H    0.014125
   130  H    0.007665
   131  H    0.002277
   132  H    0.052724
   133  H   -0.005855
   134  H   -0.001630
   135  H    0.000369
   136  H    0.027728
   137  H    0.066352
   138  H    0.236075
 Sum of Mulliken charges =   0.00000

 Dipole moment (field-independent basis, Debye):
    X=              1.6677    Y=              6.1290    Z=              0.6574  Tot=              6.3857
 Quadrupole moment (field-independent basis, Debye-Ang):
   XX=           -318.9074   YY=           -388.3103   ZZ=           -398.3995
   XY=            -37.2308   XZ=             18.0032   YZ=              0.0312

 Normal termination of Gaussian 09 at Sun Aug  4 04:02:29 2019.
