 Gaussian 09, Revision D.01,
 Gaussian 09:  ES64L-G09RevD.01 24-Apr-2013

 --------------------------
 # td=(NStates=1) B3LYP/SVP
 --------------------------

 --
 TD
 --
 Symbolic Z-matrix:
 Charge =  0 Multiplicity = 1

                         Standard orientation:
 ---------------------------------------------------------------------
 Center     Atomic      Atomic             Coordinates (Angstroms)
 Number     Number       Type             X           Y           Z
 ---------------------------------------------------------------------
      1          6           0       -5.016378   -1.851803    0.357515
      2          6           0       -4.852021    2.779665    1.563579
      3          6           0       -9.343610    3.358718   -0.374246
      4          6           0       -9.738912   -1.434308   -1.225753
      5          7           0       -5.178624    0.468245    0.841876
      6          6           0       -4.555741   -0.696358    0.799821
      7          6           0       -3.111820   -0.568226    1.425794
      8          6           0       -3.143984    0.791389    1.983895
      9          6           0       -4.382686    1.491964    1.432655
     10          6           0       -3.259538    0.870198    3.527467
     11          6           0       -2.032064   -0.718324    0.322286
     12          6           0       -0.619331   -0.745811    0.837496
     13          6           0        0.392215   -1.104735   -0.261159
     14          8           0        0.203537   -1.383180   -1.417925
     15          8           0        1.653120   -0.926159    0.138158
     16          7           0       -7.036257    2.711920    0.379215
     17          6           0       -6.000613    3.307509    1.063799
     18          6           0       -6.355478    4.730695    1.142514
     19          6           0       -7.548460    4.975858    0.610181
     20          6           0       -8.064346    3.649531    0.193128
     21          6           0       -5.440767    5.769993    1.859255
     22          6           0       -8.298307    6.220488    0.493712
     23          6           0       -9.044007    6.600543   -0.482258
     24          7           0       -9.145907    0.886012   -0.730814
     25          6           0       -9.868351    2.048558   -0.702797
     26          6           0      -11.183595    1.838930   -1.151821
     27          6           0      -11.385092    0.557942   -1.372191
     28          6           0      -10.003194   -0.013967   -1.144017
     29          6           0      -12.278509    2.924629   -1.321007
     30          6           0      -12.518918   -0.299163   -1.903449
     31          6           0      -12.573808   -0.350172   -3.446597
     32          7           0       -7.416516   -1.295806   -0.312216
     33          6           0       -8.531298   -2.078174   -0.783092
     34          6           0       -8.136954   -3.434252   -0.788377
     35          6           0       -6.847272   -3.395781   -0.323105
     36          6           0       -6.456517   -1.997041    0.005584
     37          6           0       -8.941925   -4.579604   -1.387528
     38          6           0       -5.721109   -4.306703    0.000330
     39          8           0       -5.578227   -5.474583   -0.198195
     40          6           0       -4.489171   -3.284490    0.455606
     41          6           0       -3.981608   -3.796912    1.720051
     42          8           0       -4.336523   -3.346219    2.860659
     43          8           0       -3.146394   -4.771592    1.579026
     44          6           0       -2.685854   -5.341279    2.879795
     45          6           0        2.659628   -1.025772   -0.839627
     46          6           0        4.018480   -0.670997   -0.254615
     47          6           0        4.958911   -0.047517   -0.903642
     48          6           0        4.926041    0.636516   -2.277345
     49          6           0        6.323958    0.253743   -0.192333
     50          6           0        7.550660   -0.379341   -0.837795
     51          6           0        8.704272   -0.352589   -0.066094
     52          6           0       10.045350   -0.749709   -0.698461
     53          6           0       10.078634   -2.357680   -0.864713
     54          6           0       11.370165   -0.330175    0.175720
     55          6           0       12.789317   -0.684323   -0.581049
     56          6           0       13.874409   -0.053254    0.195750
     57          6           0       15.306154   -0.266504   -0.371165
     58          6           0       15.604824   -1.809935   -0.177544
     59          6           0       16.359503    0.654510    0.363168
     60          6           0       17.710608    0.673323   -0.320422
     61          6           0       18.731178    1.638756    0.432239
     62          6           0       20.109862    1.833466   -0.252857
     63          6           0       19.968861    2.688933   -1.712662
     64          6           0       21.118429    2.480800    0.700135
     65          1           0       -4.158016    3.387075    1.962359
     66          1           0      -10.049998    4.164769   -0.427113
     67          1           0      -10.559754   -2.161131   -1.547164
     68          1           0       -2.988008   -1.222671    2.296958
     69          1           0       -2.257297    1.474352    1.675998
     70          1           0       -2.260365    0.589499    3.912696
     71          1           0       -3.448296    1.930509    4.095402
     72          1           0       -4.085990    0.205435    3.817406
     73          1           0       -2.167229   -1.660628   -0.272120
     74          1           0       -2.193651    0.154387   -0.331518
     75          1           0       -0.330376    0.234824    1.358123
     76          1           0       -0.451220   -1.656012    1.550709
     77          1           0       -4.334418    5.743606    1.493037
     78          1           0       -5.738481    6.917510    1.544307
     79          1           0       -5.557021    5.553758    2.881759
     80          1           0       -8.137005    6.712160    1.313614
     81          1           0       -9.196384    5.908001   -1.339977
     82          1           0       -9.645885    7.501560   -0.481112
     83          1           0      -12.535518    3.554747   -0.416749
     84          1           0      -12.052274    3.345413   -2.390664
     85          1           0      -13.186783    2.428877   -1.393176
     86          1           0      -12.426802   -1.156464   -1.471737
     87          1           0      -13.521219    0.172003   -1.431229
     88          1           0      -12.873053    0.815034   -3.926576
     89          1           0      -11.628562   -0.660840   -3.822683
     90          1           0      -13.444204   -1.042855   -3.695193
     91          1           0       -9.905237   -4.708649   -0.883873
     92          1           0       -8.998583   -4.387920   -2.489843
     93          1           0       -8.315337   -5.442690   -1.315186
     94          1           0       -3.842860   -3.601409   -0.436935
     95          1           0       -1.861876   -6.025434    2.431431
     96          1           0       -2.374292   -4.474102    3.452964
     97          1           0       -3.471627   -5.751120    3.377380
     98          1           0        2.624963   -2.104528   -1.395998
     99          1           0        2.447729   -0.258287   -1.698054
    100          1           0        4.218716   -1.018949    0.717872
    101          1           0        5.477525    1.701255   -2.219266
    102          1           0        5.316160    0.209058   -3.185505
    103          1           0        3.879992    0.708528   -2.596126
    104          1           0        6.457124    1.330985   -0.134030
    105          1           0        6.151989   -0.117475    0.736464
    106          1           0        7.160736   -1.459130   -0.886587
    107          1           0        7.634204    0.337378   -1.773247
    108          1           0        8.768703    0.721860    0.292264
    109          1           0        8.523221   -0.974863    0.763060
    110          1           0        9.971981   -0.453574   -1.757447
    111          1           0        9.292027   -2.964025   -1.409513
    112          1           0       10.982272   -2.658465   -1.473584
    113          1           0       10.469190   -2.778201    0.057363
    114          1           0       11.213260    0.718501    0.262802
    115          1           0       11.302739   -0.925624    1.142409
    116          1           0       12.874383   -1.792505   -0.985153
    117          1           0       12.717818   -0.424395   -1.527054
    118          1           0       13.480858    1.041338    0.397159
    119          1           0       13.963020   -0.397787    1.236050
    120          1           0       15.195283    0.116654   -1.424365
    121          1           0       14.780405   -2.373142   -0.552345
    122          1           0       16.684275   -2.242400   -0.407794
    123          1           0       15.641596   -1.999600    1.080552
    124          1           0       16.025247    1.829588    0.282752
    125          1           0       16.338282    0.357916    1.381935
    126          1           0       18.008934   -0.465244   -0.493509
    127          1           0       17.710113    0.906738   -1.388483
    128          1           0       18.130417    2.471453    0.320560
    129          1           0       18.647386    1.150769    1.410707
    130          1           0       20.341501    0.751482   -0.709797
    131          1           0       19.916891    3.766667   -1.480456
    132          1           0       20.986206    2.179963   -2.147179
    133          1           0       19.080413    2.344622   -2.428916
    134          1           0       21.315522    2.104968    1.694935
    135          1           0       22.079230    2.459624    0.128728
    136          1           0       20.638586    3.509918    0.979041
    137          1           0       -6.895231    1.725082    0.277968
    138          1           0       -7.620316   -0.367041   -0.262234
 ---------------------------------------------------------------------

 SCF Done:  E(RB3LYP) =  -2733.08757866     A.U. after   17 cycles

 Excitation energies and oscillator strengths:

 Excited State   1:      Singlet-A      2.0781 eV  596.61 nm  f=0.1682  <S**2>=0.000
     235 -> 238       -0.27421
     236 -> 237        0.64275
 This state for optimization and/or second-order correction.
 Total Energy, E(TD-HF/TD-KS) =  -2733.01120881
 Copying the excited state density for this state as the 1-particle RhoCI density.

 The electronic state is 1-A.
 Alpha  occ. eigenvalues --  -19.18132 -19.17417 -19.12912 -19.11936 -19.10276
 Alpha  occ. eigenvalues --  -14.37185 -14.37005 -14.31475 -14.29758 -10.31214
 Alpha  occ. eigenvalues --  -10.30480 -10.28263 -10.25773 -10.24541 -10.24438
 Alpha  occ. eigenvalues --  -10.23803 -10.23715 -10.23223 -10.23140 -10.21881
 Alpha  occ. eigenvalues --  -10.21719 -10.21709 -10.21406 -10.21308 -10.21216
 Alpha  occ. eigenvalues --  -10.21118 -10.20964 -10.20822 -10.20675 -10.20493
 Alpha  occ. eigenvalues --  -10.20447 -10.20303 -10.20210 -10.20142 -10.20117
 Alpha  occ. eigenvalues --  -10.19967 -10.19881 -10.19807 -10.19803 -10.19748
 Alpha  occ. eigenvalues --  -10.19693 -10.19658 -10.19600 -10.19577 -10.19396
 Alpha  occ. eigenvalues --  -10.19235 -10.19220 -10.19178 -10.18994 -10.18975
 Alpha  occ. eigenvalues --  -10.18940 -10.18848 -10.18460 -10.18431 -10.18327
 Alpha  occ. eigenvalues --  -10.18215 -10.18171 -10.18114 -10.17832 -10.17589
 Alpha  occ. eigenvalues --  -10.17415 -10.17389 -10.17293 -10.16996  -1.10632
 Alpha  occ. eigenvalues --   -1.09771  -1.04152  -1.01185  -1.00294  -0.97653
 Alpha  occ. eigenvalues --   -0.96456  -0.94726  -0.93439  -0.83330  -0.83064
 Alpha  occ. eigenvalues --   -0.82940  -0.82003  -0.81380  -0.81086  -0.80392
 Alpha  occ. eigenvalues --   -0.80263  -0.79713  -0.78870  -0.78776  -0.77569
 Alpha  occ. eigenvalues --   -0.77117  -0.76282  -0.75836  -0.74816  -0.74316
 Alpha  occ. eigenvalues --   -0.73726  -0.73054  -0.72342  -0.71132  -0.70703
 Alpha  occ. eigenvalues --   -0.69883  -0.69142  -0.68577  -0.68020  -0.67706
 Alpha  occ. eigenvalues --   -0.66417  -0.66050  -0.65972  -0.65592  -0.65303
 Alpha  occ. eigenvalues --   -0.64525  -0.64110  -0.63067  -0.62078  -0.61792
 Alpha  occ. eigenvalues --   -0.60928  -0.58962  -0.58283  -0.58062  -0.57780
 Alpha  occ. eigenvalues --   -0.57153  -0.56174  -0.55657  -0.55570  -0.55382
 Alpha  occ. eigenvalues --   -0.55241  -0.55021  -0.54575  -0.54198  -0.53274
 Alpha  occ. eigenvalues --   -0.52693  -0.52115  -0.51597  -0.51179  -0.50226
 Alpha  occ. eigenvalues --   -0.49909  -0.49670  -0.49510  -0.48994  -0.48670
 Alpha  occ. eigenvalues --   -0.48027  -0.47570  -0.47333  -0.46881  -0.46823
 Alpha  occ. eigenvalues --   -0.46570  -0.46236  -0.46066  -0.45858  -0.45753
 Alpha  occ. eigenvalues --   -0.45584  -0.45433  -0.45095  -0.45064  -0.44596
 Alpha  occ. eigenvalues --   -0.44425  -0.44246  -0.43829  -0.43770  -0.43565
 Alpha  occ. eigenvalues --   -0.43429  -0.43223  -0.43160  -0.42958  -0.42915
 Alpha  occ. eigenvalues --   -0.42724  -0.41851  -0.41681  -0.41656  -0.41574
 Alpha  occ. eigenvalues --   -0.41255  -0.41003  -0.40882  -0.40119  -0.40071
 Alpha  occ. eigenvalues --   -0.39723  -0.39556  -0.39469  -0.39360  -0.39217
 Alpha  occ. eigenvalues --   -0.39112  -0.38725  -0.38714  -0.38632  -0.38491
 Alpha  occ. eigenvalues --   -0.38229  -0.38160  -0.38128  -0.37876  -0.37650
 Alpha  occ. eigenvalues --   -0.37485  -0.37225  -0.37130  -0.37027  -0.36421
 Alpha  occ. eigenvalues --   -0.36265  -0.36026  -0.35990  -0.35922  -0.35813
 Alpha  occ. eigenvalues --   -0.35648  -0.35425  -0.35360  -0.34748  -0.34589
 Alpha  occ. eigenvalues --   -0.34415  -0.34122  -0.34019  -0.33843  -0.33498
 Alpha  occ. eigenvalues --   -0.33484  -0.33021  -0.32990  -0.32606  -0.32532
 Alpha  occ. eigenvalues --   -0.31958  -0.31579  -0.31095  -0.30966  -0.30916
 Alpha  occ. eigenvalues --   -0.30588  -0.30261  -0.29943  -0.29726  -0.29669
 Alpha  occ. eigenvalues --   -0.29532  -0.29386  -0.28507  -0.27866  -0.27728
 Alpha  occ. eigenvalues --   -0.27151  -0.26859  -0.26414  -0.26008  -0.25869
 Alpha  occ. eigenvalues --   -0.25494  -0.25336  -0.24694  -0.23502  -0.19920
 Alpha  occ. eigenvalues --   -0.18714
 Alpha virt. eigenvalues --   -0.10055  -0.07366  -0.03196  -0.01297   0.00169
 Alpha virt. eigenvalues --    0.00319   0.00924   0.01211   0.02903   0.03552
 Alpha virt. eigenvalues --    0.04068   0.04105   0.04506   0.04827   0.04898

 Mulliken charges:
               1
     1  C    0.064486
     2  C   -0.040131
     3  C   -0.074899
     4  C   -0.070652
     5  N   -0.217837
     6  C   -0.073692
     7  C    0.022445
     8  C   -0.047653
     9  C   -0.012303
    10  C    0.013272
    11  C    0.053578
    12  C    0.007132
    13  C    0.156911
    14  O   -0.231500
    15  O   -0.287588
    16  N   -0.047415
    17  C    0.142706
    18  C   -0.151894
    19  C    0.036400
    20  C    0.105965
    21  C    0.044991
    22  C    0.018661
    23  C    0.007804
    24  N   -0.182320
    25  C    0.042489
    26  C   -0.175353
    27  C   -0.109529
    28  C    0.006954
    29  C    0.124515
    30  C    0.142325
    31  C   -0.017396
    32  N    0.132093
    33  C    0.000073
    34  C   -0.144675
    35  C   -0.067792
    36  C   -0.007520
    37  C    0.137013
    38  C    0.062047
    39  O   -0.142548
    40  C   -0.066649
    41  C    0.203709
    42  O   -0.327644
    43  O   -0.272386
    44  C    0.224370
    45  C    0.192690
    46  C   -0.057225
    47  C   -0.116780
    48  C    0.049412
    49  C    0.092898
    50  C    0.001723
    51  C    0.109017
    52  C   -0.088378
    53  C   -0.011306
    54  C    0.031726
    55  C    0.063421
    56  C    0.021764
    57  C   -0.055514
    58  C   -0.024556
    59  C    0.018244
    60  C   -0.038550
    61  C    0.114121
    62  C   -0.140236
    63  C   -0.084039
    64  C    0.049243
    65  H   -0.087052
    66  H   -0.026146
    67  H    0.007187
    68  H    0.008596
    69  H    0.001702
    70  H    0.016486
    71  H    0.029477
    72  H    0.042225
    73  H    0.028932
    74  H    0.011317
    75  H    0.049611
    76  H    0.041663
    77  H    0.044381
    78  H    0.041019
    79  H    0.031345
    80  H   -0.063363
    81  H    0.033980
    82  H    0.021357
    83  H    0.030772
    84  H    0.041161
    85  H   -0.033946
    86  H   -0.055801
    87  H    0.009440
    88  H    0.031606
    89  H    0.020155
    90  H    0.030205
    91  H    0.036586
    92  H    0.037644
    93  H    0.020348
    94  H    0.065631
    95  H    0.058749
    96  H    0.033432
    97  H    0.017675
    98  H    0.051767
    99  H    0.028979
   100  H   -0.027383
   101  H    0.030192
   102  H    0.025528
   103  H   -0.009381
   104  H   -0.005080
   105  H   -0.058067
   106  H    0.005064
   107  H    0.003378
   108  H   -0.024326
   109  H   -0.033197
   110  H   -0.010910
   111  H    0.027715
   112  H   -0.011613
   113  H   -0.008488
   114  H    0.004498
   115  H    0.026896
   116  H    0.000493
   117  H   -0.058744
   118  H    0.001701
   119  H   -0.018592
   120  H   -0.003324
   121  H    0.013697
   122  H    0.043488
   123  H    0.010159
   124  H    0.004107
   125  H   -0.012482
   126  H   -0.017997
   127  H   -0.026121
   128  H   -0.029974
   129  H    0.003819
   130  H    0.012328
   131  H    0.035830
   132  H    0.042845
   133  H    0.046431
   134  H    0.011480
   135  H    0.018053
   136  H    0.017735
   137  H    0.127622
   138  H    0.077257
 Sum of Mulliken charges =   0.00000

 Dipole moment (field-independent basis, Debye):
    X=              0.5897    Y=              3.9013    Z=              1.0191  Tot=              4.0751
 Quadrupole moment (field-independent basis, Debye-Ang):
   XX=           -348.1772   YY=           -379.4415   ZZ=           -393.0717
   XY=            -19.2193   XZ=              9.3966   YZ=              2.7093

 Normal termination of Gaussian 09 at Wed Jul 24 04:00:13 2019.
