 Gaussian 09, Revision D.01,
 Gaussian 09:  ES64L-G09RevD.01 24-Apr-2013

 --------------------------
 # td=(NStates=1) B3LYP/SVP
 --------------------------

 --
 TD
 --
 Symbolic Z-matrix:
 Charge =  0 Multiplicity = 1

                         Standard orientation:
 ---------------------------------------------------------------------
 Center     Atomic      Atomic             Coordinates (Angstroms)
 Number     Number       Type             X           Y           Z
 ---------------------------------------------------------------------
      1          6           0       -5.213092   -1.887868    0.433454
      2          6           0       -4.687912    2.660154    1.545053
      3          6           0       -9.229838    3.368173   -0.208413
      4          6           0       -9.732575   -1.316384   -1.148156
      5          7           0       -5.117715    0.460942    0.818586
      6          6           0       -4.550217   -0.788860    0.755188
      7          6           0       -3.077214   -0.717814    1.236138
      8          6           0       -3.076535    0.721561    1.856661
      9          6           0       -4.292994    1.426717    1.337717
     10          6           0       -3.072968    0.845357    3.319800
     11          6           0       -2.100184   -1.003668    0.171381
     12          6           0       -0.598537   -1.148329    0.672048
     13          6           0        0.344337   -1.340390   -0.459969
     14          8           0        0.112524   -1.674300   -1.543129
     15          8           0        1.642608   -0.964198   -0.111618
     16          7           0       -6.952067    2.712416    0.531072
     17          6           0       -5.794613    3.332342    1.067188
     18          6           0       -6.258020    4.813601    1.182997
     19          6           0       -7.465729    4.987391    0.600570
     20          6           0       -8.004357    3.625749    0.229306
     21          6           0       -5.229094    5.712330    1.792360
     22          6           0       -8.216841    6.271521    0.529050
     23          6           0       -8.923841    6.624333   -0.559540
     24          7           0       -9.206113    0.896818   -0.580478
     25          6           0       -9.761434    2.159073   -0.600683
     26          6           0      -11.147224    2.004104   -1.009237
     27          6           0      -11.376122    0.623038   -1.285883
     28          6           0      -10.043330    0.020950   -1.012886
     29          6           0      -12.137632    3.068687   -1.230784
     30          6           0      -12.654368   -0.107157   -1.784948
     31          6           0      -12.648176   -0.239071   -3.214982
     32          7           0       -7.510499   -1.161078   -0.360910
     33          6           0       -8.553005   -1.901818   -0.796902
     34          6           0       -8.203455   -3.316122   -0.822669
     35          6           0       -6.827486   -3.311413   -0.436196
     36          6           0       -6.421979   -2.049405   -0.098481
     37          6           0       -9.090097   -4.418687   -1.048139
     38          6           0       -5.724648   -4.297910   -0.034597
     39          8           0       -5.655068   -5.517759   -0.071624
     40          6           0       -4.536430   -3.305550    0.507639
     41          6           0       -4.058567   -3.858965    1.829134
     42          8           0       -4.361306   -3.412222    2.916779
     43          8           0       -3.232435   -4.906591    1.546212
     44          6           0       -2.675141   -5.435052    2.720503
     45          6           0        2.643233   -1.149686   -1.112769
     46          6           0        3.973098   -0.849648   -0.471916
     47          6           0        4.934211    0.035233   -0.939118
     48          6           0        4.783740    0.809273   -2.156221
     49          6           0        6.177446    0.259018   -0.147767
     50          6           0        7.400159   -0.418617   -0.773965
     51          6           0        8.727452   -0.217471    0.000298
     52          6           0        9.969734   -0.496694   -0.854154
     53          6           0       10.229797   -2.011601   -1.418789
     54          6           0       11.178925   -0.267075    0.114225
     55          6           0       12.557825   -0.386872   -0.524102
     56          6           0       13.850652    0.054074    0.349595
     57          6           0       15.221745   -0.135105   -0.321747
     58          6           0       15.567134   -1.592483   -0.619139
     59          6           0       16.354788    0.738157    0.366907
     60          6           0       17.738647    0.618127   -0.233601
     61          6           0       18.753950    1.507782    0.533518
     62          6           0       20.201943    1.500864   -0.045376
     63          6           0       20.236309    2.289119   -1.392313
     64          6           0       21.019007    2.378864    0.927731
     65          1           0       -3.989169    3.257467    1.753830
     66          1           0       -9.758469    4.457179   -0.647360
     67          1           0      -10.665672   -1.791156   -1.690035
     68          1           0       -3.063410   -1.513123    2.076168
     69          1           0       -2.113188    1.321350    1.378096
     70          1           0       -2.113044    0.425010    3.696730
     71          1           0       -3.424205    1.808701    3.908522
     72          1           0       -3.833882    0.075988    3.577299
     73          1           0       -2.193434   -1.983593   -0.158672
     74          1           0       -2.366937   -0.265326   -0.805215
     75          1           0       -0.348837   -0.205746    1.361011
     76          1           0       -0.606393   -2.095211    1.471933
     77          1           0       -4.169061    5.511065    1.167394
     78          1           0       -5.539980    6.783533    1.650679
     79          1           0       -4.977054    5.603539    2.860603
     80          1           0       -8.137336    6.807838    1.521191
     81          1           0       -8.828208    6.032798   -1.643771
     82          1           0       -9.494071    7.582991   -0.708730
     83          1           0      -12.366246    3.684959   -0.391539
     84          1           0      -11.744519    3.976894   -1.879366
     85          1           0      -13.268219    2.659141   -1.535326
     86          1           0      -12.868230   -1.123876   -1.158457
     87          1           0      -13.521725    0.423260   -1.533845
     88          1           0      -12.530999    0.651728   -3.906243
     89          1           0      -11.885632   -1.112086   -3.599907
     90          1           0      -13.518994   -0.926102   -3.458734
     91          1           0      -10.020523   -4.230212   -0.234874
     92          1           0       -9.722403   -4.253645   -2.032999
     93          1           0       -8.593490   -5.549161   -0.942755
     94          1           0       -3.773835   -3.469913   -0.351990
     95          1           0       -1.832607   -6.042406    2.584895
     96          1           0       -2.303945   -4.582274    3.428473
     97          1           0       -3.387695   -6.120946    3.310639
     98          1           0        2.596464   -2.238432   -1.398452
     99          1           0        2.209661   -0.621004   -1.957335
    100          1           0        4.127635   -1.286447    0.533337
    101          1           0        4.943931    1.984029   -1.865878
    102          1           0        5.572730    0.559532   -2.917673
    103          1           0        3.731872    0.706374   -2.606725
    104          1           0        6.363674    1.296110    0.019049
    105          1           0        6.138240   -0.312847    0.704358
    106          1           0        7.354367   -1.540505   -0.883039
    107          1           0        7.636179    0.055680   -1.755012
    108          1           0        8.806104    0.813161    0.310135
    109          1           0        8.665274   -0.783233    0.943603
    110          1           0       10.005444    0.336423   -1.827744
    111          1           0        9.275560   -2.366452   -2.059245
    112          1           0       11.191382   -2.035976   -1.843608
    113          1           0       10.064784   -2.899505   -0.522950
    114          1           0       11.065472    0.710577    0.786948
    115          1           0       11.027800   -0.941833    1.214273
    116          1           0       12.860814   -1.551657   -0.879416
    117          1           0       12.573820    0.253780   -1.366865
    118          1           0       13.763584    1.207642    0.744206
    119          1           0       13.947063   -0.643939    1.272466
    120          1           0       15.132994    0.116301   -1.388025
    121          1           0       14.930619   -1.951824   -1.322451
    122          1           0       16.462735   -1.793133   -0.987060
    123          1           0       15.795956   -2.090570    0.445080
    124          1           0       15.967468    1.738261    0.496258
    125          1           0       16.409090    0.392795    1.461197
    126          1           0       18.118447   -0.370086   -0.060481
    127          1           0       17.843221    0.709038   -1.417366
    128          1           0       17.984988    2.535054    0.571257
    129          1           0       18.570451    1.390643    1.670723
    130          1           0       20.346384    0.376143   -0.091497
    131          1           0       19.894208    3.342528   -1.297978
    132          1           0       21.221846    2.342899   -1.649510
    133          1           0       19.595617    1.890622   -2.272637
    134          1           0       21.225286    1.912818    1.884404
    135          1           0       22.074412    2.502486    0.532481
    136          1           0       20.544250    3.380960    1.147861
    137          1           0       -6.993235    1.626032    0.240701
    138          1           0       -7.513854   -0.029515   -0.315995
 ---------------------------------------------------------------------

 SCF Done:  E(RB3LYP) =  -2732.99689070     A.U. after   17 cycles

 Excitation energies and oscillator strengths:

 Excited State   1:      Singlet-A      2.1220 eV  584.28 nm  f=0.1639  <S**2>=0.000
     235 -> 238        0.30468
     236 -> 237        0.62708
 This state for optimization and/or second-order correction.
 Total Energy, E(TD-HF/TD-KS) =  -2732.91890845
 Copying the excited state density for this state as the 1-particle RhoCI density.

 The electronic state is 1-A.
 Alpha  occ. eigenvalues --  -19.18976 -19.15541 -19.13431 -19.13296 -19.13137
 Alpha  occ. eigenvalues --  -14.37508 -14.36418 -14.31430 -14.29317 -10.32427
 Alpha  occ. eigenvalues --  -10.31236 -10.29111 -10.24837 -10.24688 -10.23974
 Alpha  occ. eigenvalues --  -10.23766 -10.22990 -10.22841 -10.22637 -10.22495
 Alpha  occ. eigenvalues --  -10.22272 -10.22220 -10.22149 -10.22138 -10.22055
 Alpha  occ. eigenvalues --  -10.21826 -10.21791 -10.21660 -10.21431 -10.21171
 Alpha  occ. eigenvalues --  -10.21052 -10.20984 -10.20683 -10.20633 -10.20604
 Alpha  occ. eigenvalues --  -10.20536 -10.20419 -10.20300 -10.20186 -10.20112
 Alpha  occ. eigenvalues --  -10.19998 -10.19976 -10.19880 -10.19871 -10.19843
 Alpha  occ. eigenvalues --  -10.19673 -10.19558 -10.19455 -10.19415 -10.19353
 Alpha  occ. eigenvalues --  -10.19325 -10.18854 -10.18614 -10.18558 -10.18557
 Alpha  occ. eigenvalues --  -10.18462 -10.18459 -10.18452 -10.18432 -10.18139
 Alpha  occ. eigenvalues --  -10.17903 -10.17774 -10.17314 -10.16586  -1.10270
 Alpha  occ. eigenvalues --   -1.10184  -1.02699  -1.01817  -1.01233  -0.97328
 Alpha  occ. eigenvalues --   -0.95199  -0.94124  -0.93307  -0.85514  -0.82583
 Alpha  occ. eigenvalues --   -0.82102  -0.81319  -0.81090  -0.80885  -0.80275
 Alpha  occ. eigenvalues --   -0.80027  -0.79601  -0.79226  -0.79186  -0.77643
 Alpha  occ. eigenvalues --   -0.76738  -0.76113  -0.75886  -0.74954  -0.74555
 Alpha  occ. eigenvalues --   -0.74249  -0.73734  -0.72707  -0.71227  -0.70300
 Alpha  occ. eigenvalues --   -0.69874  -0.68920  -0.67887  -0.67820  -0.67184
 Alpha  occ. eigenvalues --   -0.66997  -0.66944  -0.65434  -0.65128  -0.64818
 Alpha  occ. eigenvalues --   -0.64336  -0.62208  -0.61535  -0.61136  -0.60641
 Alpha  occ. eigenvalues --   -0.60309  -0.59199  -0.58448  -0.57782  -0.56776
 Alpha  occ. eigenvalues --   -0.56162  -0.56025  -0.55620  -0.54856  -0.54492
 Alpha  occ. eigenvalues --   -0.54321  -0.53946  -0.53850  -0.53200  -0.52802
 Alpha  occ. eigenvalues --   -0.52592  -0.51700  -0.51315  -0.51031  -0.50380
 Alpha  occ. eigenvalues --   -0.49732  -0.49396  -0.49115  -0.48878  -0.48553
 Alpha  occ. eigenvalues --   -0.48349  -0.47657  -0.47551  -0.47200  -0.46924
 Alpha  occ. eigenvalues --   -0.46419  -0.46322  -0.46134  -0.45801  -0.45576
 Alpha  occ. eigenvalues --   -0.45405  -0.45092  -0.44879  -0.44790  -0.44599
 Alpha  occ. eigenvalues --   -0.44150  -0.44051  -0.43883  -0.43794  -0.43637
 Alpha  occ. eigenvalues --   -0.43268  -0.43109  -0.42954  -0.42650  -0.42451
 Alpha  occ. eigenvalues --   -0.42171  -0.42015  -0.41686  -0.41616  -0.41550
 Alpha  occ. eigenvalues --   -0.41279  -0.40745  -0.40507  -0.40378  -0.40178
 Alpha  occ. eigenvalues --   -0.39936  -0.39697  -0.39494  -0.39280  -0.39089
 Alpha  occ. eigenvalues --   -0.38899  -0.38720  -0.38608  -0.38495  -0.38255
 Alpha  occ. eigenvalues --   -0.38143  -0.37987  -0.37894  -0.37627  -0.37566
 Alpha  occ. eigenvalues --   -0.36930  -0.36826  -0.36627  -0.36617  -0.36420
 Alpha  occ. eigenvalues --   -0.36274  -0.36083  -0.36000  -0.35753  -0.35747
 Alpha  occ. eigenvalues --   -0.35575  -0.35464  -0.35441  -0.35207  -0.34947
 Alpha  occ. eigenvalues --   -0.34645  -0.34320  -0.33976  -0.33712  -0.33103
 Alpha  occ. eigenvalues --   -0.33029  -0.33011  -0.32811  -0.32727  -0.32516
 Alpha  occ. eigenvalues --   -0.32330  -0.31993  -0.31710  -0.31118  -0.31080
 Alpha  occ. eigenvalues --   -0.30913  -0.30621  -0.30458  -0.29656  -0.29485
 Alpha  occ. eigenvalues --   -0.29050  -0.28843  -0.28645  -0.28386  -0.28333
 Alpha  occ. eigenvalues --   -0.28164  -0.27374  -0.25720  -0.25311  -0.25233
 Alpha  occ. eigenvalues --   -0.25000  -0.24841  -0.23632  -0.21862  -0.20313
 Alpha  occ. eigenvalues --   -0.18829
 Alpha virt. eigenvalues --   -0.09876  -0.07913  -0.04398  -0.02764  -0.01016
 Alpha virt. eigenvalues --   -0.00330  -0.00112   0.00081   0.02414   0.03173
 Alpha virt. eigenvalues --    0.03566   0.03879   0.04002   0.04307   0.04518

 Mulliken charges:
               1
     1  C    0.097930
     2  C    0.087135
     3  C   -0.160108
     4  C   -0.127726
     5  N   -0.230721
     6  C   -0.166608
     7  C   -0.031656
     8  C   -0.030819
     9  C    0.009488
    10  C    0.044327
    11  C    0.068445
    12  C   -0.079992
    13  C    0.198216
    14  O   -0.171273
    15  O   -0.357797
    16  N   -0.196710
    17  C    0.072595
    18  C   -0.097782
    19  C   -0.015912
    20  C    0.119364
    21  C    0.020338
    22  C   -0.013295
    23  C   -0.098756
    24  N   -0.207215
    25  C    0.098926
    26  C   -0.111644
    27  C   -0.091301
    28  C   -0.044672
    29  C    0.050334
    30  C    0.075623
    31  C   -0.017908
    32  N   -0.136850
    33  C    0.170986
    34  C   -0.093471
    35  C   -0.034533
    36  C    0.141770
    37  C   -0.030868
    38  C    0.091172
    39  O   -0.163597
    40  C   -0.126615
    41  C    0.231526
    42  O   -0.216821
    43  O   -0.281781
    44  C    0.163181
    45  C    0.264404
    46  C   -0.065312
    47  C   -0.157512
    48  C    0.031814
    49  C    0.196452
    50  C   -0.029834
    51  C    0.047399
    52  C   -0.115542
    53  C   -0.029023
    54  C   -0.056599
    55  C    0.016306
    56  C   -0.017310
    57  C   -0.073117
    58  C    0.104226
    59  C    0.028853
    60  C    0.047758
    61  C   -0.092574
    62  C   -0.052998
    63  C    0.058163
    64  C    0.031411
    65  H   -0.117873
    66  H    0.042582
    67  H    0.006162
    68  H    0.023917
    69  H    0.004957
    70  H    0.010712
    71  H    0.047257
    72  H    0.022130
    73  H   -0.009834
    74  H    0.044381
    75  H    0.057278
    76  H    0.063724
    77  H    0.054482
    78  H    0.019144
    79  H    0.040780
    80  H    0.037929
    81  H    0.074317
    82  H    0.045437
    83  H   -0.005405
    84  H    0.018687
    85  H    0.032085
    86  H    0.024256
    87  H   -0.024257
    88  H    0.047974
    89  H    0.002396
    90  H    0.001250
    91  H    0.052591
    92  H    0.045623
    93  H    0.087767
    94  H    0.093880
    95  H    0.009269
    96  H    0.034427
    97  H    0.038273
    98  H    0.011232
    99  H    0.010220
   100  H   -0.003441
   101  H    0.026973
   102  H    0.038043
   103  H    0.023141
   104  H   -0.010100
   105  H   -0.043404
   106  H    0.013244
   107  H   -0.010086
   108  H   -0.020227
   109  H   -0.006522
   110  H    0.029311
   111  H    0.029943
   112  H    0.026329
   113  H    0.024650
   114  H    0.003155
   115  H    0.004350
   116  H    0.045211
   117  H   -0.004525
   118  H    0.014754
   119  H    0.005528
   120  H   -0.027908
   121  H   -0.014814
   122  H   -0.045265
   123  H   -0.005019
   124  H   -0.010450
   125  H   -0.005376
   126  H   -0.018845
   127  H    0.014027
   128  H   -0.016693
   129  H   -0.000169
   130  H    0.018495
   131  H    0.008546
   132  H   -0.017736
   133  H    0.018463
   134  H   -0.002059
   135  H    0.004020
   136  H    0.027615
   137  H    0.194813
   138  H    0.202382
 Sum of Mulliken charges =   0.00000

 Dipole moment (field-independent basis, Debye):
    X=              2.0063    Y=              4.5128    Z=              0.4063  Tot=              4.9554
 Quadrupole moment (field-independent basis, Debye-Ang):
   XX=           -345.7331   YY=           -379.1175   ZZ=           -395.9809
   XY=            -27.0015   XZ=              7.8821   YZ=             -0.5471

 Normal termination of Gaussian 09 at Sat Aug  3 03:15:24 2019.
