 Gaussian 09, Revision D.01,
 Gaussian 09:  ES64L-G09RevD.01 24-Apr-2013

 --------------------------
 # td=(NStates=1) B3LYP/SVP
 --------------------------

 --
 TD
 --
 Symbolic Z-matrix:
 Charge =  0 Multiplicity = 1

                         Standard orientation:
 ---------------------------------------------------------------------
 Center     Atomic      Atomic             Coordinates (Angstroms)
 Number     Number       Type             X           Y           Z
 ---------------------------------------------------------------------
      1          6           0       -5.136164   -1.943468    0.406072
      2          6           0       -4.690972    2.662792    1.470479
      3          6           0       -9.391939    3.391689   -0.115016
      4          6           0       -9.844155   -1.344238   -0.992523
      5          7           0       -5.127013    0.477049    0.834701
      6          6           0       -4.550057   -0.726391    0.784961
      7          6           0       -3.098173   -0.629533    1.321404
      8          6           0       -3.090805    0.900660    1.852449
      9          6           0       -4.388359    1.352695    1.392924
     10          6           0       -2.912675    0.825361    3.369951
     11          6           0       -2.142161   -0.898873    0.148085
     12          6           0       -0.612886   -1.014327    0.515211
     13          6           0        0.422637   -1.205465   -0.539110
     14          8           0        0.097520   -1.434777   -1.671457
     15          8           0        1.671519   -1.064608   -0.114077
     16          7           0       -6.976595    2.728307    0.619299
     17          6           0       -5.889751    3.332779    1.080704
     18          6           0       -6.111967    4.778726    1.092721
     19          6           0       -7.417408    4.995622    0.539084
     20          6           0       -7.977386    3.635650    0.346059
     21          6           0       -5.062918    5.849320    1.517587
     22          6           0       -8.119104    6.248358    0.352242
     23          6           0       -8.928019    6.689756   -0.622515
     24          7           0       -9.183984    1.005082   -0.612616
     25          6           0       -9.762885    2.165300   -0.453861
     26          6           0      -11.232193    2.019933   -0.988219
     27          6           0      -11.384360    0.621466   -1.107551
     28          6           0      -10.129265    0.047499   -0.909908
     29          6           0      -12.258976    3.069411   -1.054480
     30          6           0      -12.615547   -0.107532   -1.704866
     31          6           0      -12.582095   -0.176339   -3.260787
     32          7           0       -7.530778   -1.199026   -0.178792
     33          6           0       -8.635807   -1.946854   -0.680876
     34          6           0       -8.250782   -3.353305   -0.627509
     35          6           0       -6.943158   -3.290812   -0.232185
     36          6           0       -6.542845   -1.989757    0.030866
     37          6           0       -9.057551   -4.524614   -0.991085
     38          6           0       -5.890634   -4.280668   -0.010206
     39          8           0       -5.709336   -5.474870   -0.094756
     40          6           0       -4.576000   -3.367405    0.318022
     41          6           0       -3.919562   -3.865077    1.548029
     42          8           0       -4.348667   -3.631372    2.596086
     43          8           0       -2.874250   -4.720153    1.248494
     44          6           0       -2.269947   -5.318186    2.439553
     45          6           0        2.687455   -1.139770   -1.099228
     46          6           0        3.977020   -0.896636   -0.576069
     47          6           0        4.985732   -0.164425   -0.993241
     48          6           0        5.045982    0.513050   -2.506191
     49          6           0        6.235020   -0.001118   -0.259904
     50          6           0        7.533135   -0.606006   -0.785993
     51          6           0        8.866989   -0.365067   -0.009490
     52          6           0       10.100762   -0.963326   -0.513417
     53          6           0       10.063356   -2.532290   -0.420534
     54          6           0       11.208588   -0.317375    0.202996
     55          6           0       12.704645   -0.751471   -0.333139
     56          6           0       13.756298    0.058529    0.312497
     57          6           0       15.158183   -0.187351   -0.253991
     58          6           0       15.489072   -1.658192   -0.223553
     59          6           0       16.191006    0.870767    0.327126
     60          6           0       17.596470    0.851748   -0.346559
     61          6           0       18.553377    1.751101    0.430940
     62          6           0       19.966897    1.882641   -0.094702
     63          6           0       20.013391    2.342430   -1.613018
     64          6           0       20.879699    2.859627    0.628791
     65          1           0       -3.848970    3.360853    1.467395
     66          1           0       -9.890598    4.235865   -0.261851
     67          1           0      -10.783255   -2.048256   -0.971337
     68          1           0       -3.005480   -1.204765    2.227502
     69          1           0       -2.198086    1.391784    1.503106
     70          1           0       -1.911972    0.497260    3.434381
     71          1           0       -3.299834    1.750054    4.124421
     72          1           0       -3.446770   -0.050018    3.769007
     73          1           0       -2.309456   -1.873129   -0.356035
     74          1           0       -2.296422   -0.035641   -0.531965
     75          1           0       -0.216195   -0.050213    0.954273
     76          1           0       -0.567428   -1.796585    1.306602
     77          1           0       -4.099006    5.702071    1.078798
     78          1           0       -5.659266    6.797908    1.549617
     79          1           0       -5.040357    5.727976    2.733240
     80          1           0       -7.678599    6.919210    1.199600
     81          1           0       -9.430627    6.101399   -1.443650
     82          1           0       -9.191066    7.787594   -0.782709
     83          1           0      -12.335746    3.783618   -0.250973
     84          1           0      -11.991087    3.749926   -1.974993
     85          1           0      -13.076949    2.564840   -1.544330
     86          1           0      -12.857484   -1.089474   -1.172874
     87          1           0      -13.581119    0.387061   -1.688803
     88          1           0      -12.593959    0.896709   -3.796617
     89          1           0      -11.864995   -0.809072   -3.521592
     90          1           0      -13.529364   -0.748193   -3.826574
     91          1           0       -9.871760   -4.674283   -0.243852
     92          1           0       -9.564057   -4.378466   -2.093737
     93          1           0       -8.288493   -5.353594   -0.977693
     94          1           0       -4.020282   -3.437798   -0.549717
     95          1           0       -1.630252   -6.011757    1.938666
     96          1           0       -1.480360   -4.641427    2.867167
     97          1           0       -3.156073   -5.824967    3.055538
     98          1           0        2.666545   -2.151824   -1.640587
     99          1           0        2.296484   -0.320598   -1.799159
    100          1           0        4.086499   -1.555032    0.270007
    101          1           0        5.871728    1.358310   -2.443664
    102          1           0        5.147917   -0.532074   -3.282932
    103          1           0        3.707350    0.898831   -2.529898
    104          1           0        6.260733    1.160149   -0.234847
    105          1           0        6.041522   -0.427679    0.845306
    106          1           0        7.354785   -1.617818   -1.103496
    107          1           0        7.978518   -0.255614   -1.852182
    108          1           0        8.821727    0.777989    0.156079
    109          1           0        8.764487   -0.685169    0.977724
    110          1           0       10.223122   -0.675770   -1.667079
    111          1           0        9.363843   -2.915511   -1.043210
    112          1           0       11.069983   -3.242236   -0.596177
    113          1           0        9.960475   -2.724394    0.705487
    114          1           0       11.055685    0.839134    0.114954
    115          1           0       11.214703   -0.520019    1.404443
    116          1           0       12.728748   -1.917783   -0.098674
    117          1           0       12.696975   -0.526192   -1.347557
    118          1           0       13.481039    1.113559    0.471706
    119          1           0       13.794807   -0.203087    1.361951
    120          1           0       15.070609   -0.036774   -1.401647
    121          1           0       14.822365   -2.129808   -1.005609
    122          1           0       16.576935   -1.592056   -0.574739
    123          1           0       15.447517   -1.897693    0.877169
    124          1           0       15.617936    1.795015    0.432999
    125          1           0       16.282895    0.486860    1.506653
    126          1           0       17.927907   -0.246578   -0.427874
    127          1           0       17.468283    1.373451   -1.323630
    128          1           0       18.127218    2.917727    0.533211
    129          1           0       18.627144    1.590037    1.605973
    130          1           0       20.233311    0.925591   -0.029076
    131          1           0       19.586482    3.178167   -1.631101
    132          1           0       21.086388    2.380232   -1.940531
    133          1           0       19.515796    1.630971   -2.326621
    134          1           0       20.895006    2.388202    1.670895
    135          1           0       22.014270    2.933525    0.086515
    136          1           0       20.376605    3.851055    0.782678
    137          1           0       -6.966695    1.745593    0.257264
    138          1           0       -7.663210   -0.177076    0.012636
 ---------------------------------------------------------------------

 SCF Done:  E(RB3LYP) =  -2733.01505966     A.U. after   17 cycles

 Excitation energies and oscillator strengths:

 Excited State   1:      Singlet-A      2.0081 eV  617.42 nm  f=0.1972  <S**2>=0.000
     235 -> 237       -0.17186
     235 -> 238       -0.25229
     236 -> 237        0.62474
     236 -> 238       -0.11160
 This state for optimization and/or second-order correction.
 Total Energy, E(TD-HF/TD-KS) =  -2732.94126382
 Copying the excited state density for this state as the 1-particle RhoCI density.

 The electronic state is 1-A.
 Alpha  occ. eigenvalues --  -19.18023 -19.16827 -19.13029 -19.12380 -19.11633
 Alpha  occ. eigenvalues --  -14.37530 -14.37437 -14.31705 -14.29781 -10.31020
 Alpha  occ. eigenvalues --  -10.30390 -10.28323 -10.25098 -10.24870 -10.24634
 Alpha  occ. eigenvalues --  -10.24230 -10.23553 -10.23487 -10.23330 -10.22853
 Alpha  occ. eigenvalues --  -10.21740 -10.21545 -10.21532 -10.21397 -10.21289
 Alpha  occ. eigenvalues --  -10.21122 -10.21062 -10.21007 -10.20975 -10.20906
 Alpha  occ. eigenvalues --  -10.20882 -10.20878 -10.20769 -10.20618 -10.20436
 Alpha  occ. eigenvalues --  -10.20092 -10.20037 -10.19996 -10.19955 -10.19871
 Alpha  occ. eigenvalues --  -10.19869 -10.19857 -10.19820 -10.19714 -10.19689
 Alpha  occ. eigenvalues --  -10.19639 -10.19531 -10.19487 -10.19469 -10.19403
 Alpha  occ. eigenvalues --  -10.19306 -10.19282 -10.18972 -10.18796 -10.18729
 Alpha  occ. eigenvalues --  -10.18523 -10.18495 -10.18480 -10.18461 -10.18438
 Alpha  occ. eigenvalues --  -10.17874 -10.17619 -10.17107 -10.16356  -1.10791
 Alpha  occ. eigenvalues --   -1.09421  -1.03367  -1.01461  -1.01233  -0.99995
 Alpha  occ. eigenvalues --   -0.98794  -0.96691  -0.93997  -0.84370  -0.83342
 Alpha  occ. eigenvalues --   -0.82418  -0.81847  -0.81520  -0.81404  -0.80731
 Alpha  occ. eigenvalues --   -0.80382  -0.80170  -0.79707  -0.78800  -0.78177
 Alpha  occ. eigenvalues --   -0.76785  -0.75930  -0.75804  -0.75254  -0.74385
 Alpha  occ. eigenvalues --   -0.73361  -0.73040  -0.72713  -0.71503  -0.70638
 Alpha  occ. eigenvalues --   -0.69921  -0.69519  -0.68736  -0.67563  -0.67465
 Alpha  occ. eigenvalues --   -0.67383  -0.66579  -0.66385  -0.65660  -0.65038
 Alpha  occ. eigenvalues --   -0.63493  -0.63335  -0.62988  -0.62334  -0.61412
 Alpha  occ. eigenvalues --   -0.60910  -0.59583  -0.58794  -0.58290  -0.57755
 Alpha  occ. eigenvalues --   -0.57229  -0.56007  -0.55581  -0.55257  -0.55215
 Alpha  occ. eigenvalues --   -0.55175  -0.54353  -0.53864  -0.53627  -0.53227
 Alpha  occ. eigenvalues --   -0.52947  -0.52098  -0.51826  -0.51540  -0.50984
 Alpha  occ. eigenvalues --   -0.50753  -0.49607  -0.49078  -0.48541  -0.48460
 Alpha  occ. eigenvalues --   -0.47805  -0.47584  -0.47363  -0.47144  -0.46934
 Alpha  occ. eigenvalues --   -0.46874  -0.46575  -0.46355  -0.46284  -0.46044
 Alpha  occ. eigenvalues --   -0.45735  -0.45447  -0.45184  -0.44915  -0.44659
 Alpha  occ. eigenvalues --   -0.44630  -0.44542  -0.44293  -0.44164  -0.43921
 Alpha  occ. eigenvalues --   -0.43852  -0.43330  -0.43135  -0.42990  -0.42748
 Alpha  occ. eigenvalues --   -0.42692  -0.42586  -0.42208  -0.42036  -0.41585
 Alpha  occ. eigenvalues --   -0.41465  -0.41252  -0.40898  -0.40768  -0.40658
 Alpha  occ. eigenvalues --   -0.40272  -0.39861  -0.39733  -0.39616  -0.39333
 Alpha  occ. eigenvalues --   -0.39263  -0.39121  -0.38915  -0.38700  -0.38617
 Alpha  occ. eigenvalues --   -0.38494  -0.38352  -0.38117  -0.37839  -0.37643
 Alpha  occ. eigenvalues --   -0.37308  -0.37166  -0.37047  -0.36904  -0.36422
 Alpha  occ. eigenvalues --   -0.36353  -0.36180  -0.35954  -0.35882  -0.35813
 Alpha  occ. eigenvalues --   -0.35685  -0.35373  -0.35296  -0.35179  -0.35014
 Alpha  occ. eigenvalues --   -0.34873  -0.34569  -0.34136  -0.33918  -0.33628
 Alpha  occ. eigenvalues --   -0.33309  -0.33132  -0.32780  -0.32128  -0.32011
 Alpha  occ. eigenvalues --   -0.31925  -0.31600  -0.31445  -0.31218  -0.31138
 Alpha  occ. eigenvalues --   -0.30724  -0.30438  -0.30333  -0.30228  -0.30011
 Alpha  occ. eigenvalues --   -0.29670  -0.29400  -0.28508  -0.28270  -0.27386
 Alpha  occ. eigenvalues --   -0.27282  -0.27186  -0.27032  -0.26648  -0.25464
 Alpha  occ. eigenvalues --   -0.24973  -0.24873  -0.24099  -0.22287  -0.19956
 Alpha  occ. eigenvalues --   -0.18745
 Alpha virt. eigenvalues --   -0.10604  -0.07442  -0.04116  -0.02348  -0.00251
 Alpha virt. eigenvalues --    0.00011   0.00734   0.01120   0.01549   0.02755
 Alpha virt. eigenvalues --    0.03860   0.03955   0.03971   0.04233   0.04281

 Mulliken charges:
               1
     1  C   -0.044040
     2  C   -0.064724
     3  C   -0.048998
     4  C   -0.110189
     5  N   -0.094518
     6  C   -0.095782
     7  C   -0.050867
     8  C   -0.048189
     9  C    0.026020
    10  C    0.035629
    11  C    0.070627
    12  C    0.005593
    13  C    0.161049
    14  O   -0.230035
    15  O   -0.297222
    16  N   -0.030901
    17  C    0.031308
    18  C   -0.169013
    19  C   -0.007864
    20  C    0.016495
    21  C    0.103023
    22  C   -0.040118
    23  C   -0.074762
    24  N   -0.217386
    25  C    0.180122
    26  C   -0.218764
    27  C   -0.056925
    28  C    0.050473
    29  C    0.157664
    30  C    0.038574
    31  C   -0.021387
    32  N    0.005128
    33  C    0.069032
    34  C   -0.111524
    35  C   -0.046552
    36  C    0.070951
    37  C    0.036839
    38  C    0.075682
    39  O   -0.158350
    40  C    0.030546
    41  C    0.188177
    42  O   -0.168772
    43  O   -0.345329
    44  C    0.160303
    45  C    0.252646
    46  C   -0.099050
    47  C   -0.114071
    48  C   -0.097441
    49  C    0.059410
    50  C    0.004795
    51  C    0.047196
    52  C   -0.031023
    53  C    0.008563
    54  C   -0.089455
    55  C    0.051196
    56  C    0.069858
    57  C   -0.126512
    58  C    0.034690
    59  C   -0.014715
    60  C    0.081057
    61  C   -0.087722
    62  C   -0.017060
    63  C    0.077955
    64  C   -0.015221
    65  H   -0.018033
    66  H   -0.098994
    67  H    0.022340
    68  H    0.004547
    69  H   -0.006874
    70  H   -0.003682
    71  H    0.044945
    72  H    0.015531
    73  H    0.034816
    74  H    0.012754
    75  H    0.020710
    76  H    0.031511
    77  H    0.051264
    78  H    0.010715
    79  H    0.032534
    80  H    0.028584
    81  H    0.045837
    82  H    0.041758
    83  H    0.036333
    84  H    0.003263
    85  H   -0.006285
    86  H    0.012655
    87  H   -0.000725
    88  H    0.039960
    89  H   -0.018039
    90  H    0.009647
    91  H    0.044092
    92  H    0.053729
    93  H    0.055665
    94  H    0.020491
    95  H    0.015584
    96  H    0.032214
    97  H    0.078516
    98  H    0.040922
    99  H    0.012002
   100  H   -0.019894
   101  H    0.065229
   102  H    0.083809
   103  H    0.054335
   104  H    0.020373
   105  H    0.019198
   106  H   -0.013727
   107  H   -0.007366
   108  H   -0.000780
   109  H   -0.039383
   110  H    0.000667
   111  H   -0.001147
   112  H    0.029353
   113  H    0.014846
   114  H    0.007390
   115  H    0.006551
   116  H    0.032798
   117  H   -0.024692
   118  H   -0.022619
   119  H   -0.038818
   120  H   -0.021645
   121  H    0.040877
   122  H    0.001995
   123  H    0.013265
   124  H    0.000792
   125  H   -0.004728
   126  H    0.028939
   127  H    0.018434
   128  H   -0.009880
   129  H    0.002593
   130  H   -0.043459
   131  H   -0.052216
   132  H    0.004785
   133  H    0.008250
   134  H    0.009906
   135  H    0.043458
   136  H    0.018205
   137  H    0.168094
   138  H    0.149807
 Sum of Mulliken charges =   0.00000

 Dipole moment (field-independent basis, Debye):
    X=              2.2116    Y=              3.7515    Z=              0.6927  Tot=              4.4096
 Quadrupole moment (field-independent basis, Debye-Ang):
   XX=           -360.8776   YY=           -385.0539   ZZ=           -401.0037
   XY=            -27.6402   XZ=              6.2650   YZ=             -1.2446

 Normal termination of Gaussian 09 at Sun Aug  4 15:50:53 2019.
