 Gaussian 09, Revision D.01,
 Gaussian 09:  ES64L-G09RevD.01 24-Apr-2013

 --------------------------
 # td=(NStates=1) B3LYP/SVP
 --------------------------

 --
 TD
 --
 Symbolic Z-matrix:
 Charge =  0 Multiplicity = 1

                         Standard orientation:
 ---------------------------------------------------------------------
 Center     Atomic      Atomic             Coordinates (Angstroms)
 Number     Number       Type             X           Y           Z
 ---------------------------------------------------------------------
      1          6           0       -5.112128   -1.961516    0.450694
      2          6           0       -4.771134    2.733558    1.547385
      3          6           0       -9.312793    3.358067   -0.227523
      4          6           0       -9.695030   -1.430788   -1.069316
      5          7           0       -5.197623    0.371557    0.838988
      6          6           0       -4.482696   -0.827992    0.909360
      7          6           0       -3.093204   -0.580050    1.298578
      8          6           0       -3.092231    0.790565    1.977093
      9          6           0       -4.473530    1.386345    1.399430
     10          6           0       -3.196646    0.813703    3.564092
     11          6           0       -2.060394   -0.653040    0.158818
     12          6           0       -0.591077   -0.564354    0.607304
     13          6           0        0.397398   -0.752300   -0.514803
     14          8           0        0.050367   -1.062707   -1.667264
     15          8           0        1.622053   -0.730354   -0.095735
     16          7           0       -6.908517    2.723163    0.385543
     17          6           0       -5.902117    3.341506    1.091016
     18          6           0       -6.254456    4.697389    1.138150
     19          6           0       -7.553540    4.895925    0.640302
     20          6           0       -8.006106    3.608324    0.235564
     21          6           0       -5.461869    5.760474    1.755401
     22          6           0       -8.330224    6.196680    0.594245
     23          6           0       -8.959451    6.569354   -0.513886
     24          7           0       -9.155444    0.890904   -0.574518
     25          6           0       -9.859047    2.036621   -0.561581
     26          6           0      -11.242738    1.838347   -1.092533
     27          6           0      -11.395115    0.524804   -1.362577
     28          6           0      -10.086688   -0.103147   -1.002900
     29          6           0      -12.252492    2.922003   -1.310083
     30          6           0      -12.597838   -0.202712   -1.943567
     31          6           0      -12.560737   -0.392682   -3.486336
     32          7           0       -7.441768   -1.209030   -0.266807
     33          6           0       -8.489060   -2.026037   -0.759362
     34          6           0       -8.081686   -3.402736   -0.832901
     35          6           0       -6.785267   -3.370484   -0.309266
     36          6           0       -6.388874   -2.046709    0.149169
     37          6           0       -8.881454   -4.527109   -1.318011
     38          6           0       -5.713001   -4.357874    0.053515
     39          8           0       -5.498114   -5.512531   -0.216260
     40          6           0       -4.534052   -3.376904    0.497558
     41          6           0       -4.075818   -3.850272    1.955191
     42          8           0       -4.457807   -3.398018    3.016209
     43          8           0       -3.328887   -4.910230    1.744613
     44          6           0       -2.957083   -5.599016    2.968836
     45          6           0        2.712905   -1.092961   -1.132425
     46          6           0        4.007033   -0.769653   -0.515100
     47          6           0        5.027635    0.131538   -0.973935
     48          6           0        4.959744    1.032228   -2.242129
     49          6           0        6.293551    0.237721   -0.231011
     50          6           0        7.549362   -0.394933   -0.843627
     51          6           0        8.892738   -0.200882   -0.049909
     52          6           0       10.063459   -0.681321   -0.791063
     53          6           0       10.068959   -2.172609   -1.048206
     54          6           0       11.310821   -0.242253   -0.034151
     55          6           0       12.813011   -0.538001   -0.706591
     56          6           0       13.908163   -0.033268    0.172572
     57          6           0       15.293661   -0.150580   -0.485325
     58          6           0       15.556404   -1.629448   -0.635394
     59          6           0       16.311489    0.552530    0.466489
     60          6           0       17.762358    0.774831   -0.281548
     61          6           0       18.648996    1.595011    0.568242
     62          6           0       20.143899    1.496059    0.093128
     63          6           0       20.356869    1.970678   -1.371524
     64          6           0       20.919006    2.486523    1.109904
     65          1           0       -4.014018    3.222027    1.953924
     66          1           0       -9.972705    4.108963   -0.294668
     67          1           0      -10.353402   -2.203872   -1.431639
     68          1           0       -2.628128   -1.407345    2.124994
     69          1           0       -2.252528    1.350190    1.489672
     70          1           0       -2.318662    0.231776    3.893573
     71          1           0       -3.197375    1.852669    4.146264
     72          1           0       -4.051685    0.268507    3.774154
     73          1           0       -2.256008   -1.631176   -0.409441
     74          1           0       -2.105629    0.176028   -0.581958
     75          1           0       -0.396028    0.266469    1.260435
     76          1           0       -0.258745   -1.342161    1.341852
     77          1           0       -4.613656    6.135429    1.116648
     78          1           0       -5.918623    6.737270    1.958270
     79          1           0       -5.041865    5.223572    2.697786
     80          1           0       -8.434171    6.848719    1.538554
     81          1           0       -8.994090    5.996926   -1.600984
     82          1           0       -9.475348    7.462377   -0.542019
     83          1           0      -12.530577    3.500142   -0.399662
     84          1           0      -11.973153    3.605794   -2.007994
     85          1           0      -13.199855    2.643556   -1.928090
     86          1           0      -12.902685   -1.153182   -1.548077
     87          1           0      -13.563603    0.338536   -1.846378
     88          1           0      -12.497097    0.587247   -4.195761
     89          1           0      -11.927614   -1.022212   -3.793692
     90          1           0      -13.520759   -0.815346   -4.038746
     91          1           0       -9.906018   -4.790571   -0.752848
     92          1           0       -9.438795   -4.114249   -2.283630
     93          1           0       -8.195368   -5.463082   -1.640059
     94          1           0       -3.785102   -3.546001   -0.239042
     95          1           0       -2.353501   -6.450722    2.641495
     96          1           0       -2.352889   -4.945465    3.664647
     97          1           0       -3.742445   -5.858076    3.528537
     98          1           0        2.625989   -2.214747   -1.460098
     99          1           0        2.223274   -0.488573   -1.982177
    100          1           0        4.243983   -1.459279    0.305673
    101          1           0        4.873826    2.411625   -1.778308
    102          1           0        5.889388    0.801068   -3.034090
    103          1           0        3.950479    0.731836   -2.880549
    104          1           0        6.195442    1.310521   -0.298848
    105          1           0        6.081384    0.095486    0.866646
    106          1           0        7.242936   -1.609671   -0.885750
    107          1           0        7.505319   -0.162965   -1.975811
    108          1           0        8.890652    0.874166    0.132283
    109          1           0        8.675463   -0.659227    0.953583
    110          1           0       10.189598   -0.292321   -1.793296
    111          1           0        9.135479   -2.373132   -1.689796
    112          1           0       10.925682   -2.518444   -1.480900
    113          1           0       10.050819   -2.955344   -0.222226
    114          1           0       11.100976    0.755249    0.172164
    115          1           0       11.254301   -0.725467    0.851650
    116          1           0       13.096336   -1.623114   -1.072919
    117          1           0       12.618936    0.105815   -1.513346
    118          1           0       13.567208    0.965072    0.463787
    119          1           0       13.788649   -0.607926    1.138038
    120          1           0       15.247653    0.256146   -1.370968
    121          1           0       14.903303   -2.196554   -1.431775
    122          1           0       16.602589   -1.753904   -1.156900
    123          1           0       15.339243   -2.380021    0.276563
    124          1           0       15.891645    1.552293    0.413518
    125          1           0       16.389608    0.227469    1.573426
    126          1           0       18.198092   -0.267603   -0.355458
    127          1           0       17.520365    1.169384   -1.257100
    128          1           0       18.206499    2.643859    0.479647
    129          1           0       18.700800    1.223390    1.558647
    130          1           0       20.582314    0.426056    0.362240
    131          1           0       19.702849    2.832901   -1.571353
    132          1           0       21.318372    1.995996   -1.716627
    133          1           0       20.133073    1.167524   -2.113921
    134          1           0       20.750349    1.971851    2.056027
    135          1           0       22.074053    2.471893    1.053004
    136          1           0       20.418953    3.492951    1.046859
    137          1           0       -7.076297    1.762110    0.279830
    138          1           0       -7.522179   -0.209493   -0.005126
 ---------------------------------------------------------------------

 SCF Done:  E(RB3LYP) =  -2733.08060703     A.U. after   17 cycles

 Excitation energies and oscillator strengths:

 Excited State   1:      Singlet-A      2.0888 eV  593.56 nm  f=0.1470  <S**2>=0.000
     235 -> 238       -0.32831
     236 -> 237        0.61562
 This state for optimization and/or second-order correction.
 Total Energy, E(TD-HF/TD-KS) =  -2733.00384426
 Copying the excited state density for this state as the 1-particle RhoCI density.

 The electronic state is 1-A.
 Alpha  occ. eigenvalues --  -19.18463 -19.17344 -19.12279 -19.12143 -19.10687
 Alpha  occ. eigenvalues --  -14.36001 -14.35972 -14.31907 -14.30174 -10.31417
 Alpha  occ. eigenvalues --  -10.30535 -10.27415 -10.26303 -10.25094 -10.23922
 Alpha  occ. eigenvalues --  -10.23401 -10.23229 -10.22767 -10.22598 -10.22498
 Alpha  occ. eigenvalues --  -10.22359 -10.22340 -10.21943 -10.21583 -10.21581
 Alpha  occ. eigenvalues --  -10.21529 -10.21288 -10.21200 -10.20865 -10.20446
 Alpha  occ. eigenvalues --  -10.20392 -10.20240 -10.20194 -10.20160 -10.20133
 Alpha  occ. eigenvalues --  -10.19920 -10.19751 -10.19743 -10.19645 -10.19540
 Alpha  occ. eigenvalues --  -10.19512 -10.19511 -10.19384 -10.19330 -10.19250
 Alpha  occ. eigenvalues --  -10.19245 -10.18933 -10.18925 -10.18844 -10.18731
 Alpha  occ. eigenvalues --  -10.18650 -10.18600 -10.18462 -10.18373 -10.18244
 Alpha  occ. eigenvalues --  -10.18230 -10.18102 -10.18082 -10.17982 -10.17968
 Alpha  occ. eigenvalues --  -10.17613 -10.17304 -10.17299 -10.16786  -1.10167
 Alpha  occ. eigenvalues --   -1.08753  -1.02773  -1.00520  -0.97916  -0.97405
 Alpha  occ. eigenvalues --   -0.95897  -0.92843  -0.91970  -0.84547  -0.83197
 Alpha  occ. eigenvalues --   -0.82128  -0.81624  -0.81384  -0.81031  -0.80468
 Alpha  occ. eigenvalues --   -0.79923  -0.79699  -0.78952  -0.78357  -0.77188
 Alpha  occ. eigenvalues --   -0.76655  -0.75473  -0.75123  -0.74662  -0.74312
 Alpha  occ. eigenvalues --   -0.73924  -0.72922  -0.72480  -0.71293  -0.70602
 Alpha  occ. eigenvalues --   -0.69883  -0.69166  -0.68520  -0.68027  -0.67792
 Alpha  occ. eigenvalues --   -0.67405  -0.66522  -0.65998  -0.65669  -0.64639
 Alpha  occ. eigenvalues --   -0.63921  -0.62299  -0.62108  -0.61455  -0.60838
 Alpha  occ. eigenvalues --   -0.60484  -0.59249  -0.58156  -0.57844  -0.56997
 Alpha  occ. eigenvalues --   -0.56882  -0.56789  -0.56298  -0.56213  -0.55172
 Alpha  occ. eigenvalues --   -0.54564  -0.54427  -0.54318  -0.53263  -0.52959
 Alpha  occ. eigenvalues --   -0.52619  -0.51366  -0.51221  -0.50600  -0.50227
 Alpha  occ. eigenvalues --   -0.49507  -0.49075  -0.48840  -0.48700  -0.48367
 Alpha  occ. eigenvalues --   -0.48250  -0.47498  -0.47371  -0.47283  -0.47139
 Alpha  occ. eigenvalues --   -0.46794  -0.46064  -0.45759  -0.45655  -0.45547
 Alpha  occ. eigenvalues --   -0.45177  -0.44857  -0.44529  -0.44459  -0.44395
 Alpha  occ. eigenvalues --   -0.44032  -0.43808  -0.43752  -0.43470  -0.43363
 Alpha  occ. eigenvalues --   -0.43114  -0.43000  -0.42939  -0.42421  -0.42288
 Alpha  occ. eigenvalues --   -0.42241  -0.41982  -0.41811  -0.41538  -0.41290
 Alpha  occ. eigenvalues --   -0.41058  -0.40950  -0.40724  -0.40296  -0.39979
 Alpha  occ. eigenvalues --   -0.39869  -0.39375  -0.39293  -0.39257  -0.39047
 Alpha  occ. eigenvalues --   -0.38999  -0.38806  -0.38777  -0.38482  -0.38251
 Alpha  occ. eigenvalues --   -0.38171  -0.37752  -0.37641  -0.37376  -0.37149
 Alpha  occ. eigenvalues --   -0.36955  -0.36866  -0.36625  -0.36461  -0.36419
 Alpha  occ. eigenvalues --   -0.35977  -0.35904  -0.35862  -0.35500  -0.35448
 Alpha  occ. eigenvalues --   -0.35408  -0.35271  -0.35078  -0.34976  -0.34720
 Alpha  occ. eigenvalues --   -0.34648  -0.34421  -0.34154  -0.33926  -0.33591
 Alpha  occ. eigenvalues --   -0.33560  -0.33386  -0.33129  -0.32889  -0.32574
 Alpha  occ. eigenvalues --   -0.32417  -0.32213  -0.31989  -0.31770  -0.31741
 Alpha  occ. eigenvalues --   -0.30788  -0.30749  -0.30549  -0.30100  -0.29882
 Alpha  occ. eigenvalues --   -0.29764  -0.29506  -0.28214  -0.27538  -0.27229
 Alpha  occ. eigenvalues --   -0.26799  -0.26726  -0.26368  -0.25963  -0.25455
 Alpha  occ. eigenvalues --   -0.24496  -0.24396  -0.24108  -0.23109  -0.19764
 Alpha  occ. eigenvalues --   -0.18542
 Alpha virt. eigenvalues --   -0.09635  -0.07636  -0.04369  -0.03549  -0.01184
 Alpha virt. eigenvalues --    0.00608   0.01012   0.01161   0.01518   0.02055
 Alpha virt. eigenvalues --    0.04061   0.04282   0.04505   0.04826   0.05094

 Mulliken charges:
               1
     1  C   -0.013974
     2  C   -0.012896
     3  C   -0.026786
     4  C   -0.056565
     5  N   -0.217062
     6  C    0.021733
     7  C   -0.094422
     8  C   -0.053218
     9  C   -0.054993
    10  C    0.086492
    11  C    0.063632
    12  C    0.023405
    13  C    0.181307
    14  O   -0.291169
    15  O   -0.305401
    16  N   -0.062787
    17  C    0.197695
    18  C   -0.116836
    19  C    0.012830
    20  C    0.124122
    21  C    0.063282
    22  C   -0.056836
    23  C   -0.041378
    24  N   -0.263705
    25  C    0.042969
    26  C   -0.135661
    27  C   -0.016254
    28  C    0.088969
    29  C    0.117233
    30  C    0.095586
    31  C   -0.006611
    32  N   -0.107602
    33  C    0.055896
    34  C   -0.052161
    35  C   -0.096305
    36  C    0.142218
    37  C   -0.017669
    38  C    0.101464
    39  O   -0.159084
    40  C   -0.044228
    41  C    0.195422
    42  O   -0.234824
    43  O   -0.270629
    44  C    0.229924
    45  C    0.181986
    46  C   -0.045255
    47  C   -0.148689
    48  C   -0.110791
    49  C    0.105673
    50  C   -0.054564
    51  C    0.082250
    52  C   -0.025772
    53  C    0.030577
    54  C    0.072914
    55  C    0.018174
    56  C    0.014516
    57  C    0.071989
    58  C   -0.066134
    59  C    0.016316
    60  C    0.020547
    61  C    0.060373
    62  C   -0.173186
    63  C    0.096178
    64  C    0.023664
    65  H   -0.096424
    66  H   -0.083719
    67  H   -0.054385
    68  H    0.026211
    69  H    0.002567
    70  H    0.009398
    71  H    0.038110
    72  H    0.014218
    73  H    0.028846
    74  H    0.018922
    75  H    0.004776
    76  H    0.015399
    77  H    0.023685
    78  H    0.008155
    79  H    0.038515
    80  H    0.043966
    81  H    0.064854
    82  H    0.001974
    83  H    0.028138
    84  H   -0.017988
    85  H    0.008605
    86  H   -0.003727
    87  H   -0.002955
    88  H    0.017213
    89  H   -0.042712
    90  H    0.001445
    91  H    0.054668
    92  H    0.030848
    93  H    0.078554
    94  H    0.037917
    95  H    0.036424
    96  H    0.024814
    97  H    0.001073
    98  H    0.060064
    99  H    0.054818
   100  H    0.006922
   101  H    0.060887
   102  H    0.075916
   103  H    0.051962
   104  H   -0.018167
   105  H    0.001125
   106  H    0.016437
   107  H    0.006099
   108  H   -0.007685
   109  H    0.009346
   110  H   -0.021684
   111  H    0.012549
   112  H   -0.025375
   113  H   -0.004645
   114  H   -0.034720
   115  H   -0.049535
   116  H    0.025902
   117  H   -0.022608
   118  H   -0.022595
   119  H   -0.007745
   120  H   -0.067539
   121  H    0.013492
   122  H    0.017421
   123  H    0.030130
   124  H   -0.019146
   125  H    0.018449
   126  H    0.000941
   127  H   -0.005053
   128  H    0.002698
   129  H   -0.017213
   130  H    0.011223
   131  H    0.013736
   132  H   -0.022385
   133  H   -0.010039
   134  H   -0.004945
   135  H    0.015446
   136  H    0.018581
   137  H    0.115039
   138  H    0.158621
 Sum of Mulliken charges =   0.00000

 Dipole moment (field-independent basis, Debye):
    X=              3.6542    Y=              3.9629    Z=              1.0881  Tot=              5.4992
 Quadrupole moment (field-independent basis, Debye-Ang):
   XX=           -343.5469   YY=           -375.0217   ZZ=           -392.5370
   XY=            -27.9768   XZ=              2.5610   YZ=             -3.4001

 Normal termination of Gaussian 09 at Fri Aug  2 01:44:03 2019.
