 Gaussian 09, Revision D.01,
 Gaussian 09:  ES64L-G09RevD.01 24-Apr-2013

 --------------------------
 # td=(NStates=1) B3LYP/SVP
 --------------------------

 --
 TD
 --
 Symbolic Z-matrix:
 Charge =  0 Multiplicity = 1

                         Standard orientation:
 ---------------------------------------------------------------------
 Center     Atomic      Atomic             Coordinates (Angstroms)
 Number     Number       Type             X           Y           Z
 ---------------------------------------------------------------------
      1          6           0       -5.113048   -1.898289    0.376626
      2          6           0       -4.669292    2.765388    1.163048
      3          6           0       -9.338560    3.285241   -0.199984
      4          6           0       -9.860167   -1.603837   -0.793540
      5          7           0       -5.072212    0.496730    0.594862
      6          6           0       -4.482931   -0.737274    0.758097
      7          6           0       -3.050072   -0.527810    1.216246
      8          6           0       -2.968924    0.925222    1.698392
      9          6           0       -4.300123    1.442116    1.158712
     10          6           0       -2.843452    1.059517    3.215352
     11          6           0       -2.093224   -0.708438    0.072216
     12          6           0       -0.614624   -0.786391    0.546830
     13          6           0        0.433581   -1.051983   -0.597834
     14          8           0        0.143563   -1.520037   -1.619898
     15          8           0        1.716827   -0.751389   -0.231436
     16          7           0       -7.011406    2.706461    0.391659
     17          6           0       -5.891455    3.434311    0.888179
     18          6           0       -6.266349    4.823549    0.966127
     19          6           0       -7.652712    5.006030    0.558605
     20          6           0       -8.123183    3.644891    0.281885
     21          6           0       -5.281929    5.840427    1.426598
     22          6           0       -8.229142    6.353240    0.392658
     23          6           0       -9.212761    6.592539   -0.555961
     24          7           0       -9.232614    0.837736   -0.482807
     25          6           0       -9.937270    2.078122   -0.616766
     26          6           0      -11.233713    1.842224   -0.959885
     27          6           0      -11.417870    0.500678   -1.127360
     28          6           0      -10.125960   -0.128049   -0.764874
     29          6           0      -12.272647    2.958983   -1.132215
     30          6           0      -12.646726   -0.307661   -1.516451
     31          6           0      -12.768012   -0.448038   -3.009505
     32          7           0       -7.550757   -1.329544   -0.276922
     33          6           0       -8.616384   -2.090587   -0.526537
     34          6           0       -8.325747   -3.505334   -0.445508
     35          6           0       -6.904434   -3.459096   -0.203479
     36          6           0       -6.449426   -2.075109    0.024712
     37          6           0       -9.040801   -4.716821   -0.801182
     38          6           0       -5.743923   -4.422806    0.089119
     39          8           0       -5.659907   -5.601768    0.183841
     40          6           0       -4.465781   -3.420432    0.374616
     41          6           0       -3.906342   -3.746027    1.743987
     42          8           0       -4.082479   -3.149147    2.812437
     43          8           0       -2.929466   -4.706679    1.586177
     44          6           0       -2.331309   -5.188700    2.877215
     45          6           0        2.644593   -0.995747   -1.095559
     46          6           0        4.027536   -0.586544   -0.639909
     47          6           0        5.003470    0.151423   -1.229352
     48          6           0        4.912248    0.724018   -2.534217
     49          6           0        6.263324    0.344042   -0.306375
     50          6           0        7.395589   -0.548643   -0.879093
     51          6           0        8.724948   -0.340052   -0.114217
     52          6           0       10.011634   -0.821189   -0.882210
     53          6           0        9.964684   -2.403860   -1.121861
     54          6           0       11.307444   -0.491317    0.018127
     55          6           0       12.674052   -0.641479   -0.794754
     56          6           0       13.899500   -0.231169    0.129577
     57          6           0       15.264413   -0.246658   -0.469991
     58          6           0       15.753450   -1.655696   -0.742995
     59          6           0       16.350777    0.532204    0.453919
     60          6           0       17.739574    0.643334   -0.131324
     61          6           0       18.511262    1.630549    0.681463
     62          6           0       19.975809    1.760606    0.309414
     63          6           0       20.161609    2.304261   -1.078673
     64          6           0       20.748549    2.784379    1.316145
     65          1           0       -4.004162    3.313295    1.985890
     66          1           0      -10.006129    4.126857   -0.174000
     67          1           0      -10.773302   -2.255669   -0.974870
     68          1           0       -2.874152   -1.339648    1.956048
     69          1           0       -2.171865    1.588839    1.173673
     70          1           0       -1.949786    0.479492    3.799907
     71          1           0       -2.773166    2.121965    3.513032
     72          1           0       -3.539395    0.599764    3.717228
     73          1           0       -2.217741   -1.599274   -0.509800
     74          1           0       -2.208741    0.068680   -0.717178
     75          1           0       -0.291722    0.229820    1.206706
     76          1           0       -0.246399   -1.433554    1.264655
     77          1           0       -4.387784    5.926333    0.798638
     78          1           0       -5.701568    6.901037    1.395405
     79          1           0       -4.992372    5.457031    2.427360
     80          1           0       -7.881847    7.269113    1.031231
     81          1           0       -9.642794    5.877562   -1.423987
     82          1           0       -9.586079    7.550653   -0.720460
     83          1           0      -12.389267    3.551676   -0.268881
     84          1           0      -12.010231    3.681566   -2.059665
     85          1           0      -13.480778    2.712948   -1.327039
     86          1           0      -12.717782   -1.190854   -0.964235
     87          1           0      -13.709526    0.117383   -1.212877
     88          1           0      -12.649050    0.512640   -3.500146
     89          1           0      -11.955615   -1.325816   -3.452049
     90          1           0      -13.536716   -1.013122   -3.430287
     91          1           0      -10.196597   -4.762885   -0.460533
     92          1           0       -8.868299   -4.830556   -2.100744
     93          1           0       -8.518896   -5.645349   -0.375425
     94          1           0       -3.643026   -3.389145   -0.249050
     95          1           0       -1.551423   -5.890189    2.697289
     96          1           0       -1.859753   -4.317486    3.324141
     97          1           0       -2.977422   -5.623428    3.616856
     98          1           0        2.648954   -2.037824   -1.477760
     99          1           0        2.261277   -0.388712   -2.092934
    100          1           0        4.315934   -0.927093    0.496653
    101          1           0        5.244242    1.852958   -2.690062
    102          1           0        5.391220   -0.001075   -3.344249
    103          1           0        3.849696    0.827544   -2.848286
    104          1           0        6.410219    1.462791   -0.283423
    105          1           0        6.115112   -0.037814    0.799150
    106          1           0        7.111015   -1.622320   -1.092091
    107          1           0        7.553939   -0.263759   -1.952780
    108          1           0        8.878734    0.924112    0.043099
    109          1           0        8.732393   -0.670463    0.863506
    110          1           0       10.087677   -0.241555   -1.845999
    111          1           0        9.043614   -2.729697   -1.590461
    112          1           0       10.666261   -2.860748   -1.767243
    113          1           0       10.127143   -2.743186   -0.009699
    114          1           0       11.372943    0.605197    0.462992
    115          1           0       11.484725   -0.897559    0.996312
    116          1           0       12.626490   -1.725468   -1.307400
    117          1           0       12.841349    0.165838   -1.827821
    118          1           0       13.703951    0.889042    0.425872
    119          1           0       13.660941   -0.754752    1.122019
    120          1           0       15.187805    0.245491   -1.461965
    121          1           0       15.152011   -2.072657   -1.589672
    122          1           0       16.829093   -1.620372   -1.337999
    123          1           0       15.645934   -2.402828    0.159959
    124          1           0       16.045504    1.616507    0.924074
    125          1           0       16.356997    0.055984    1.498710
    126          1           0       18.405855   -0.373959   -0.012220
    127          1           0       17.564661    0.790812   -1.245420
    128          1           0       18.094409    2.710619    0.496399
    129          1           0       18.337067    1.452150    1.786156
    130          1           0       20.281416    0.896706    0.664862
    131          1           0       20.044095    3.369197   -1.008767
    132          1           0       21.167759    1.829077   -1.361210
    133          1           0       19.493375    1.830982   -1.710839
    134          1           0       20.531639    2.602095    2.485857
    135          1           0       21.867955    2.700641    1.065229
    136          1           0       20.062230    3.689065    1.044938
    137          1           0       -7.286080    1.635426    0.451055
    138          1           0       -7.574060   -0.251120   -0.149407
 ---------------------------------------------------------------------

 SCF Done:  E(RB3LYP) =  -2733.04106265     A.U. after   17 cycles

 Excitation energies and oscillator strengths:

 Excited State   1:      Singlet-A      2.0222 eV  613.12 nm  f=0.1036  <S**2>=0.000
     235 -> 237       -0.23535
     235 -> 238       -0.27910
     236 -> 237        0.55935
     236 -> 238       -0.21979
 This state for optimization and/or second-order correction.
 Total Energy, E(TD-HF/TD-KS) =  -2732.96674914
 Copying the excited state density for this state as the 1-particle RhoCI density.

 The electronic state is 1-A.
 Alpha  occ. eigenvalues --  -19.18108 -19.17752 -19.14056 -19.13647 -19.12943
 Alpha  occ. eigenvalues --  -14.37566 -14.36580 -14.31742 -14.29925 -10.32149
 Alpha  occ. eigenvalues --  -10.31886 -10.29712 -10.24794 -10.24466 -10.24402
 Alpha  occ. eigenvalues --  -10.24356 -10.23741 -10.23491 -10.23325 -10.23093
 Alpha  occ. eigenvalues --  -10.22711 -10.22632 -10.22539 -10.22012 -10.21869
 Alpha  occ. eigenvalues --  -10.21540 -10.21394 -10.21286 -10.21189 -10.21092
 Alpha  occ. eigenvalues --  -10.20961 -10.20923 -10.20783 -10.20709 -10.20626
 Alpha  occ. eigenvalues --  -10.20535 -10.20535 -10.20243 -10.20144 -10.20097
 Alpha  occ. eigenvalues --  -10.20057 -10.19974 -10.19671 -10.19653 -10.19566
 Alpha  occ. eigenvalues --  -10.19505 -10.19437 -10.19430 -10.19403 -10.19369
 Alpha  occ. eigenvalues --  -10.19357 -10.19347 -10.19315 -10.19276 -10.19165
 Alpha  occ. eigenvalues --  -10.19112 -10.18789 -10.18590 -10.18512 -10.18293
 Alpha  occ. eigenvalues --  -10.18196 -10.18076 -10.17379 -10.17139  -1.13088
 Alpha  occ. eigenvalues --   -1.07614  -1.05476  -1.04894  -0.99392  -0.99160
 Alpha  occ. eigenvalues --   -0.94711  -0.93872  -0.92512  -0.83590  -0.81799
 Alpha  occ. eigenvalues --   -0.81725  -0.81392  -0.81049  -0.80673  -0.80075
 Alpha  occ. eigenvalues --   -0.80031  -0.78975  -0.78916  -0.78489  -0.77321
 Alpha  occ. eigenvalues --   -0.76407  -0.75780  -0.75370  -0.74586  -0.74135
 Alpha  occ. eigenvalues --   -0.73398  -0.73142  -0.71843  -0.71091  -0.70278
 Alpha  occ. eigenvalues --   -0.69879  -0.69221  -0.68406  -0.67342  -0.67140
 Alpha  occ. eigenvalues --   -0.66883  -0.66013  -0.65498  -0.65147  -0.64845
 Alpha  occ. eigenvalues --   -0.64801  -0.62817  -0.62330  -0.61432  -0.60992
 Alpha  occ. eigenvalues --   -0.60282  -0.58465  -0.58236  -0.58004  -0.56952
 Alpha  occ. eigenvalues --   -0.56718  -0.56097  -0.55658  -0.55465  -0.55426
 Alpha  occ. eigenvalues --   -0.55234  -0.54670  -0.54150  -0.53030  -0.52631
 Alpha  occ. eigenvalues --   -0.52392  -0.51468  -0.51278  -0.50942  -0.50486
 Alpha  occ. eigenvalues --   -0.50438  -0.49765  -0.48740  -0.48232  -0.48037
 Alpha  occ. eigenvalues --   -0.47665  -0.47628  -0.47323  -0.47130  -0.46794
 Alpha  occ. eigenvalues --   -0.46537  -0.45874  -0.45792  -0.45694  -0.45490
 Alpha  occ. eigenvalues --   -0.45218  -0.44897  -0.44570  -0.44526  -0.44429
 Alpha  occ. eigenvalues --   -0.44270  -0.44077  -0.43976  -0.43794  -0.43459
 Alpha  occ. eigenvalues --   -0.43372  -0.43095  -0.42835  -0.42637  -0.42387
 Alpha  occ. eigenvalues --   -0.42204  -0.41900  -0.41763  -0.41690  -0.41448
 Alpha  occ. eigenvalues --   -0.41036  -0.40803  -0.40703  -0.40477  -0.40389
 Alpha  occ. eigenvalues --   -0.40344  -0.39958  -0.39749  -0.39623  -0.39272
 Alpha  occ. eigenvalues --   -0.39230  -0.39076  -0.38822  -0.38670  -0.38571
 Alpha  occ. eigenvalues --   -0.38364  -0.37894  -0.37774  -0.37328  -0.37297
 Alpha  occ. eigenvalues --   -0.37038  -0.36978  -0.36912  -0.36737  -0.36534
 Alpha  occ. eigenvalues --   -0.36330  -0.36251  -0.36034  -0.35745  -0.35547
 Alpha  occ. eigenvalues --   -0.35509  -0.34892  -0.34781  -0.34747  -0.34639
 Alpha  occ. eigenvalues --   -0.34432  -0.34138  -0.34124  -0.33648  -0.33369
 Alpha  occ. eigenvalues --   -0.33213  -0.32863  -0.32575  -0.32418  -0.32280
 Alpha  occ. eigenvalues --   -0.32007  -0.31884  -0.31255  -0.30799  -0.30600
 Alpha  occ. eigenvalues --   -0.30510  -0.30327  -0.30176  -0.29727  -0.29291
 Alpha  occ. eigenvalues --   -0.29190  -0.29008  -0.28733  -0.28494  -0.28099
 Alpha  occ. eigenvalues --   -0.28093  -0.26889  -0.26485  -0.26136  -0.26050
 Alpha  occ. eigenvalues --   -0.25816  -0.23895  -0.23345  -0.22634  -0.19952
 Alpha  occ. eigenvalues --   -0.19042
 Alpha virt. eigenvalues --   -0.10354  -0.08553  -0.04910  -0.02227  -0.01356
 Alpha virt. eigenvalues --    0.00205   0.00429   0.00861   0.02334   0.03131
 Alpha virt. eigenvalues --    0.03748   0.03869   0.04133   0.04477   0.04539

 Mulliken charges:
               1
     1  C   -0.026078
     2  C   -0.047114
     3  C   -0.061631
     4  C   -0.103856
     5  N   -0.193708
     6  C   -0.054387
     7  C    0.007467
     8  C   -0.020382
     9  C   -0.054628
    10  C    0.098108
    11  C    0.088462
    12  C   -0.004555
    13  C    0.151412
    14  O   -0.171252
    15  O   -0.237747
    16  N   -0.188925
    17  C    0.109912
    18  C   -0.143006
    19  C    0.061046
    20  C    0.082864
    21  C    0.088965
    22  C   -0.066001
    23  C   -0.068184
    24  N   -0.296230
    25  C    0.085358
    26  C   -0.066581
    27  C   -0.080795
    28  C    0.004603
    29  C    0.010661
    30  C    0.070059
    31  C    0.003671
    32  N   -0.032565
    33  C    0.141078
    34  C   -0.088925
    35  C   -0.093024
    36  C    0.095679
    37  C   -0.040599
    38  C    0.136957
    39  O   -0.126830
    40  C   -0.016677
    41  C    0.224972
    42  O   -0.255582
    43  O   -0.341150
    44  C    0.219832
    45  C    0.187728
    46  C   -0.091682
    47  C   -0.163733
    48  C    0.028075
    49  C    0.049924
    50  C    0.010453
    51  C    0.024603
    52  C   -0.034286
    53  C    0.021635
    54  C    0.000432
    55  C   -0.079050
    56  C   -0.022079
    57  C    0.003709
    58  C   -0.024231
    59  C   -0.034291
    60  C    0.011990
    61  C   -0.047374
    62  C   -0.049014
    63  C    0.125159
    64  C   -0.067573
    65  H   -0.001255
    66  H   -0.033787
    67  H    0.010456
    68  H    0.014356
    69  H    0.033460
    70  H    0.014569
    71  H    0.016005
    72  H   -0.027428
    73  H    0.002218
    74  H    0.012626
    75  H    0.032209
    76  H    0.003668
    77  H    0.028008
    78  H    0.015528
    79  H    0.040181
    80  H    0.048576
    81  H    0.064632
    82  H    0.006470
    83  H    0.016325
    84  H    0.035853
    85  H    0.026752
    86  H   -0.020525
    87  H    0.004661
    88  H    0.028352
    89  H   -0.006143
    90  H   -0.007254
    91  H    0.056070
    92  H    0.076232
    93  H    0.065952
    94  H    0.027548
    95  H    0.021865
    96  H    0.020512
    97  H    0.034912
    98  H    0.010591
    99  H   -0.000789
   100  H    0.012798
   101  H    0.032188
   102  H    0.048075
   103  H    0.009350
   104  H    0.016516
   105  H    0.015854
   106  H    0.012267
   107  H   -0.012486
   108  H    0.008640
   109  H   -0.020849
   110  H    0.009281
   111  H    0.003106
   112  H    0.006861
   113  H    0.025475
   114  H   -0.011423
   115  H   -0.015084
   116  H    0.029698
   117  H    0.006601
   118  H    0.009740
   119  H    0.001248
   120  H   -0.007865
   121  H    0.006505
   122  H    0.022363
   123  H    0.031897
   124  H    0.005265
   125  H   -0.006399
   126  H    0.015586
   127  H    0.021343
   128  H   -0.016953
   129  H    0.003803
   130  H   -0.053597
   131  H    0.011024
   132  H    0.014697
   133  H   -0.020282
   134  H    0.020912
   135  H    0.039799
   136  H    0.020042
   137  H    0.197651
   138  H    0.183861
 Sum of Mulliken charges =   0.00000

 Dipole moment (field-independent basis, Debye):
    X=              0.3587    Y=              2.2076    Z=              1.3098  Tot=              2.5919
 Quadrupole moment (field-independent basis, Debye-Ang):
   XX=           -371.5057   YY=           -377.7043   ZZ=           -393.4710
   XY=            -23.1809   XZ=              2.7390   YZ=             -2.1389

 Normal termination of Gaussian 09 at Fri Aug  2 07:34:27 2019.
