 Gaussian 09, Revision D.01,
 Gaussian 09:  ES64L-G09RevD.01 24-Apr-2013

 --------------------------
 # td=(NStates=1) B3LYP/SVP
 --------------------------

 --
 TD
 --
 Symbolic Z-matrix:
 Charge =  0 Multiplicity = 1

                         Standard orientation:
 ---------------------------------------------------------------------
 Center     Atomic      Atomic             Coordinates (Angstroms)
 Number     Number       Type             X           Y           Z
 ---------------------------------------------------------------------
      1          6           0       -5.046276   -1.938341    0.341300
      2          6           0       -4.826748    2.749710    1.372104
      3          6           0       -9.371060    3.165608   -0.152741
      4          6           0       -9.853726   -1.606799   -0.981114
      5          7           0       -5.124355    0.385943    0.676692
      6          6           0       -4.444868   -0.757091    0.602876
      7          6           0       -2.892294   -0.547180    1.095334
      8          6           0       -3.037626    0.912586    1.585559
      9          6           0       -4.428772    1.379287    1.181476
     10          6           0       -2.870445    1.148849    3.180025
     11          6           0       -1.975191   -0.820591   -0.103005
     12          6           0       -0.590271   -0.749281    0.401281
     13          6           0        0.424939   -0.999614   -0.674588
     14          8           0        0.181272   -1.632385   -1.640524
     15          8           0        1.696127   -0.396895   -0.407771
     16          7           0       -7.141720    2.722408    0.526052
     17          6           0       -6.073397    3.335705    0.965429
     18          6           0       -6.426719    4.782736    1.120725
     19          6           0       -7.709579    4.870309    0.638311
     20          6           0       -8.159476    3.566055    0.279708
     21          6           0       -5.598081    5.891856    1.623023
     22          6           0       -8.414303    6.190498    0.505857
     23          6           0       -9.231846    6.496844   -0.562302
     24          7           0       -9.316127    0.727117   -0.341390
     25          6           0       -9.934996    1.842390   -0.400562
     26          6           0      -11.321991    1.736622   -0.927092
     27          6           0      -11.494321    0.382448   -1.109247
     28          6           0      -10.156341   -0.205078   -0.805585
     29          6           0      -12.250626    2.879105   -1.158668
     30          6           0      -12.697873   -0.354493   -1.747247
     31          6           0      -12.662651   -0.432206   -3.155809
     32          7           0       -7.472368   -1.347172   -0.268343
     33          6           0       -8.636446   -2.157109   -0.546856
     34          6           0       -8.167657   -3.519818   -0.558085
     35          6           0       -6.834430   -3.427604   -0.221867
     36          6           0       -6.449476   -2.130470   -0.040415
     37          6           0       -8.972025   -4.740172   -0.878011
     38          6           0       -5.688858   -4.335266    0.113720
     39          8           0       -5.531549   -5.603341    0.143768
     40          6           0       -4.516892   -3.385788    0.425912
     41          6           0       -3.945401   -3.719642    1.737217
     42          8           0       -4.433889   -3.337472    2.867797
     43          8           0       -2.834741   -4.660312    1.737678
     44          6           0       -2.533423   -5.127054    2.937469
     45          6           0        2.762323   -0.700693   -1.304874
     46          6           0        4.106185   -0.407842   -0.607969
     47          6           0        5.048570    0.472113   -1.034751
     48          6           0        5.031107    1.070385   -2.400200
     49          6           0        6.427075    0.619822   -0.331989
     50          6           0        7.543848   -0.229632   -0.944711
     51          6           0        8.844003    0.029375   -0.172047
     52          6           0       10.100234   -0.582131   -0.845069
     53          6           0        9.982691   -2.142969   -0.913547
     54          6           0       11.370641   -0.113519    0.013802
     55          6           0       12.596499   -0.613664   -0.657680
     56          6           0       13.806778   -0.088945    0.210068
     57          6           0       15.312828   -0.377783   -0.417412
     58          6           0       15.540285   -1.869068   -0.513540
     59          6           0       16.357976    0.487867    0.483156
     60          6           0       17.747895    0.610953   -0.130818
     61          6           0       18.680805    1.324203    0.669712
     62          6           0       20.057976    1.538600    0.205288
     63          6           0       20.078202    2.129134   -1.178009
     64          6           0       21.102252    2.207226    1.224805
     65          1           0       -3.993097    3.348655    1.909113
     66          1           0      -10.263731    4.046805   -0.362250
     67          1           0      -10.669537   -2.242650   -1.215336
     68          1           0       -2.681464   -1.307518    1.959738
     69          1           0       -2.300340    1.646640    1.116356
     70          1           0       -1.839099    0.468478    3.268653
     71          1           0       -2.950652    2.145607    3.577580
     72          1           0       -3.745815    0.599498    3.494723
     73          1           0       -2.063753   -1.627603   -0.732778
     74          1           0       -2.024443   -0.174969   -0.930380
     75          1           0       -0.325128    0.247950    0.794615
     76          1           0       -0.349089   -1.338601    1.154295
     77          1           0       -4.688758    5.974780    0.835212
     78          1           0       -6.119877    6.806888    1.465810
     79          1           0       -5.301844    5.531004    2.623834
     80          1           0       -8.055782    6.992238    1.318792
     81          1           0       -9.438670    5.856176   -1.420124
     82          1           0       -9.894967    7.399916   -0.555247
     83          1           0      -12.436327    3.536059   -0.352242
     84          1           0      -11.907425    3.308645   -2.076333
     85          1           0      -13.056428    2.177391   -1.274451
     86          1           0      -12.742615   -1.512069   -1.388568
     87          1           0      -13.614651    0.247201   -1.376300
     88          1           0      -12.738408    0.665449   -3.612523
     89          1           0      -11.759893   -0.844788   -3.369354
     90          1           0      -13.505219   -1.049964   -3.488656
     91          1           0       -9.726349   -5.080316   -0.205865
     92          1           0       -9.395346   -4.664536   -1.829840
     93          1           0       -8.076824   -5.663727   -1.155146
     94          1           0       -3.721699   -3.661233   -0.177094
     95          1           0       -1.758548   -5.848057    2.942002
     96          1           0       -2.065280   -4.281848    3.495436
     97          1           0       -3.180491   -5.582376    3.462448
     98          1           0        2.860846   -1.741487   -1.507881
     99          1           0        2.534864   -0.113573   -2.198495
    100          1           0        4.124928   -0.808042    0.401989
    101          1           0        5.610393    2.182459   -2.366317
    102          1           0        5.838821    0.743284   -3.071658
    103          1           0        3.947910    1.065226   -2.687041
    104          1           0        6.659786    1.612541   -0.398013
    105          1           0        6.335842    0.267793    0.650334
    106          1           0        7.178962   -1.363372   -0.671298
    107          1           0        7.689680   -0.092206   -1.971457
    108          1           0        8.830757    1.012141    0.159003
    109          1           0        8.589523   -0.381453    0.775909
    110          1           0       10.156061   -0.085098   -1.854658
    111          1           0        9.062364   -2.388904   -1.532517
    112          1           0       10.757613   -2.539417   -1.543872
    113          1           0        9.813463   -2.619506   -0.001019
    114          1           0       11.396495    0.884390    0.201617
    115          1           0       11.309432   -0.464681    0.889288
    116          1           0       12.621400   -1.648616   -0.878960
    117          1           0       12.688576   -0.164717   -1.780769
    118          1           0       13.506608    0.981915    0.372902
    119          1           0       13.798797   -0.418503    1.244550
    120          1           0       15.315886    0.140074   -1.320174
    121          1           0       15.065570   -2.458482   -1.596863
    122          1           0       16.696096   -2.144831   -0.546006
    123          1           0       14.969878   -1.972932    0.541291
    124          1           0       16.103972    1.632375    0.526504
    125          1           0       16.536065   -0.039252    1.459776
    126          1           0       18.041034   -0.558469   -0.412864
    127          1           0       17.711815    1.112012   -1.079385
    128          1           0       18.042608    2.303684    0.640813
    129          1           0       18.802034    1.104532    1.627586
    130          1           0       20.581306    0.412474    0.092172
    131          1           0       19.899510    3.189405   -1.176763
    132          1           0       21.073850    2.069573   -1.659094
    133          1           0       19.394867    1.759339   -1.997544
    134          1           0       21.266853    1.592812    2.156393
    135          1           0       22.286750    2.483402    0.919174
    136          1           0       20.439840    3.147599    1.548502
    137          1           0       -7.268691    1.655724    0.210364
    138          1           0       -7.370761   -0.285811   -0.450386
 ---------------------------------------------------------------------

 SCF Done:  E(RB3LYP) =  -2732.98058468     A.U. after   17 cycles

 Excitation energies and oscillator strengths:

 Excited State   1:      Singlet-A      2.1940 eV  565.11 nm  f=0.1446  <S**2>=0.000
     235 -> 237       -0.18030
     235 -> 238        0.30379
     236 -> 237        0.59244
     236 -> 238        0.13726
 This state for optimization and/or second-order correction.
 Total Energy, E(TD-HF/TD-KS) =  -2732.89995773
 Copying the excited state density for this state as the 1-particle RhoCI density.

 The electronic state is 1-A.
 Alpha  occ. eigenvalues --  -19.17131 -19.16494 -19.13410 -19.12594 -19.12301
 Alpha  occ. eigenvalues --  -14.38315 -14.37768 -14.31910 -14.30360 -10.32264
 Alpha  occ. eigenvalues --  -10.31383 -10.28640 -10.25357 -10.24037 -10.23841
 Alpha  occ. eigenvalues --  -10.23596 -10.23346 -10.23342 -10.23057 -10.22810
 Alpha  occ. eigenvalues --  -10.22104 -10.21948 -10.21552 -10.21540 -10.21399
 Alpha  occ. eigenvalues --  -10.21363 -10.21333 -10.21193 -10.21167 -10.21096
 Alpha  occ. eigenvalues --  -10.21070 -10.20948 -10.20877 -10.20820 -10.20803
 Alpha  occ. eigenvalues --  -10.20732 -10.20725 -10.20688 -10.20419 -10.20405
 Alpha  occ. eigenvalues --  -10.20394 -10.20142 -10.19724 -10.19659 -10.19417
 Alpha  occ. eigenvalues --  -10.19291 -10.18920 -10.18895 -10.18882 -10.18676
 Alpha  occ. eigenvalues --  -10.18604 -10.18591 -10.18514 -10.18453 -10.18420
 Alpha  occ. eigenvalues --  -10.18205 -10.18081 -10.17982 -10.17690 -10.17518
 Alpha  occ. eigenvalues --  -10.17397 -10.17042 -10.16771 -10.15582  -1.08501
 Alpha  occ. eigenvalues --   -1.07650  -1.01184  -1.01019  -0.99754  -0.98717
 Alpha  occ. eigenvalues --   -0.97840  -0.96169  -0.95288  -0.84917  -0.82858
 Alpha  occ. eigenvalues --   -0.82684  -0.82542  -0.82234  -0.81572  -0.81100
 Alpha  occ. eigenvalues --   -0.80894  -0.80675  -0.79238  -0.78822  -0.77915
 Alpha  occ. eigenvalues --   -0.77150  -0.77078  -0.76039  -0.75445  -0.74656
 Alpha  occ. eigenvalues --   -0.73952  -0.73212  -0.72973  -0.71762  -0.71521
 Alpha  occ. eigenvalues --   -0.70315  -0.69938  -0.69203  -0.68293  -0.67736
 Alpha  occ. eigenvalues --   -0.67447  -0.66371  -0.66234  -0.65890  -0.65239
 Alpha  occ. eigenvalues --   -0.64353  -0.63327  -0.62465  -0.62002  -0.60747
 Alpha  occ. eigenvalues --   -0.60720  -0.59095  -0.58924  -0.58681  -0.58041
 Alpha  occ. eigenvalues --   -0.57562  -0.57151  -0.56710  -0.56217  -0.55989
 Alpha  occ. eigenvalues --   -0.55669  -0.55132  -0.54061  -0.53845  -0.53308
 Alpha  occ. eigenvalues --   -0.52834  -0.52537  -0.51867  -0.51382  -0.50816
 Alpha  occ. eigenvalues --   -0.50143  -0.49750  -0.48990  -0.48725  -0.48435
 Alpha  occ. eigenvalues --   -0.48293  -0.48098  -0.47993  -0.47767  -0.47412
 Alpha  occ. eigenvalues --   -0.47284  -0.47015  -0.46576  -0.46412  -0.46258
 Alpha  occ. eigenvalues --   -0.46023  -0.45600  -0.45330  -0.45260  -0.45198
 Alpha  occ. eigenvalues --   -0.45046  -0.45019  -0.44779  -0.44349  -0.44282
 Alpha  occ. eigenvalues --   -0.43802  -0.43521  -0.43398  -0.43152  -0.42902
 Alpha  occ. eigenvalues --   -0.42647  -0.42553  -0.42254  -0.41811  -0.41769
 Alpha  occ. eigenvalues --   -0.41582  -0.41380  -0.41237  -0.41072  -0.40819
 Alpha  occ. eigenvalues --   -0.40386  -0.40311  -0.40064  -0.39882  -0.39776
 Alpha  occ. eigenvalues --   -0.39624  -0.39337  -0.39252  -0.38873  -0.38826
 Alpha  occ. eigenvalues --   -0.38400  -0.38275  -0.38155  -0.37637  -0.37590
 Alpha  occ. eigenvalues --   -0.37391  -0.37314  -0.37111  -0.36900  -0.36801
 Alpha  occ. eigenvalues --   -0.36595  -0.36396  -0.36169  -0.35528  -0.35454
 Alpha  occ. eigenvalues --   -0.35412  -0.35241  -0.35108  -0.34625  -0.34446
 Alpha  occ. eigenvalues --   -0.34322  -0.34260  -0.33833  -0.33676  -0.33569
 Alpha  occ. eigenvalues --   -0.33203  -0.33133  -0.32952  -0.32828  -0.32683
 Alpha  occ. eigenvalues --   -0.32398  -0.32138  -0.32129  -0.31845  -0.31119
 Alpha  occ. eigenvalues --   -0.30863  -0.30819  -0.30658  -0.30205  -0.29591
 Alpha  occ. eigenvalues --   -0.28762  -0.28646  -0.28455  -0.28226  -0.27272
 Alpha  occ. eigenvalues --   -0.27228  -0.27166  -0.26634  -0.26568  -0.25956
 Alpha  occ. eigenvalues --   -0.25156  -0.24581  -0.24131  -0.23790  -0.20144
 Alpha  occ. eigenvalues --   -0.19631
 Alpha virt. eigenvalues --   -0.10325  -0.07873  -0.04842  -0.02991  -0.02414
 Alpha virt. eigenvalues --   -0.00040  -0.00017   0.00736   0.02391   0.03223
 Alpha virt. eigenvalues --    0.03575   0.03744   0.04170   0.04401   0.04695

 Mulliken charges:
               1
     1  C    0.111941
     2  C   -0.108704
     3  C   -0.173141
     4  C   -0.037663
     5  N   -0.133027
     6  C   -0.160390
     7  C   -0.052719
     8  C   -0.071237
     9  C   -0.040026
    10  C    0.009683
    11  C    0.136685
    12  C    0.130479
    13  C    0.148955
    14  O   -0.193983
    15  O   -0.371083
    16  N   -0.030852
    17  C    0.101964
    18  C   -0.181683
    19  C    0.028638
    20  C    0.097549
    21  C    0.115921
    22  C   -0.069379
    23  C   -0.048266
    24  N   -0.130437
    25  C   -0.009182
    26  C   -0.222153
    27  C   -0.099648
    28  C   -0.008641
    29  C    0.194102
    30  C   -0.022668
    31  C    0.092514
    32  N   -0.060811
    33  C    0.102633
    34  C   -0.126058
    35  C   -0.012562
    36  C    0.032063
    37  C    0.061304
    38  C    0.115690
    39  O   -0.227433
    40  C    0.104619
    41  C    0.194822
    42  O   -0.285850
    43  O   -0.310316
    44  C    0.298533
    45  C    0.295200
    46  C   -0.094214
    47  C   -0.119495
    48  C    0.022173
    49  C    0.130595
    50  C   -0.017303
    51  C    0.082250
    52  C   -0.069222
    53  C    0.063538
    54  C    0.181200
    55  C    0.037022
    56  C   -0.027530
    57  C    0.015688
    58  C   -0.077044
    59  C   -0.011511
    60  C    0.000127
    61  C    0.133428
    62  C   -0.104749
    63  C    0.030277
    64  C   -0.058377
    65  H    0.002647
    66  H    0.029350
    67  H   -0.032984
    68  H    0.050090
    69  H    0.017067
    70  H    0.043944
    71  H    0.029784
    72  H    0.033191
    73  H   -0.013161
    74  H   -0.033986
    75  H    0.011490
    76  H   -0.022140
    77  H    0.047839
    78  H    0.004512
    79  H    0.051795
    80  H    0.047997
    81  H    0.039403
    82  H    0.034905
    83  H    0.025010
    84  H    0.022732
    85  H   -0.010659
    86  H    0.013498
    87  H    0.021181
    88  H    0.012083
    89  H   -0.019388
    90  H    0.015951
    91  H    0.039708
    92  H    0.006540
    93  H    0.061404
    94  H    0.006977
    95  H   -0.015267
    96  H   -0.014080
    97  H   -0.040643
    98  H    0.012018
    99  H    0.008184
   100  H   -0.010975
   101  H    0.001487
   102  H    0.028487
   103  H    0.038801
   104  H   -0.029363
   105  H   -0.026874
   106  H    0.016840
   107  H   -0.018812
   108  H   -0.045857
   109  H   -0.045152
   110  H   -0.003458
   111  H    0.003519
   112  H    0.008590
   113  H    0.003205
   114  H   -0.048480
   115  H   -0.085429
   116  H   -0.014334
   117  H   -0.007881
   118  H   -0.014026
   119  H   -0.012112
   120  H   -0.036102
   121  H    0.050460
   122  H    0.043864
   123  H    0.041929
   124  H    0.011923
   125  H    0.001206
   126  H   -0.015736
   127  H   -0.015308
   128  H   -0.023058
   129  H   -0.059734
   130  H    0.001975
   131  H   -0.014177
   132  H   -0.005552
   133  H    0.020974
   134  H    0.024735
   135  H    0.048063
   136  H    0.022615
   137  H    0.195885
   138  H    0.178635
 Sum of Mulliken charges =   0.00000

 Dipole moment (field-independent basis, Debye):
    X=              0.4110    Y=              6.6091    Z=             -0.9799  Tot=              6.6940
 Quadrupole moment (field-independent basis, Debye-Ang):
   XX=           -345.5507   YY=           -392.6466   ZZ=           -395.4222
   XY=            -28.4192   XZ=             21.2471   YZ=              4.4537

 Normal termination of Gaussian 09 at Wed Jul 31 13:02:33 2019.
