 Gaussian 09, Revision D.01,
 Gaussian 09:  ES64L-G09RevD.01 24-Apr-2013

 --------------------------
 # td=(NStates=1) B3LYP/SVP
 --------------------------

 --
 TD
 --
 Symbolic Z-matrix:
 Charge =  0 Multiplicity = 1

                         Standard orientation:
 ---------------------------------------------------------------------
 Center     Atomic      Atomic             Coordinates (Angstroms)
 Number     Number       Type             X           Y           Z
 ---------------------------------------------------------------------
      1          6           0       -5.128475   -1.888243    0.381505
      2          6           0       -4.751353    2.734219    1.413045
      3          6           0       -9.367681    3.388570   -0.116204
      4          6           0       -9.871950   -1.448146   -0.969141
      5          7           0       -5.228667    0.423789    0.713909
      6          6           0       -4.476329   -0.734836    0.746489
      7          6           0       -3.055591   -0.614432    1.180914
      8          6           0       -3.032250    0.745081    1.792229
      9          6           0       -4.418958    1.464719    1.232073
     10          6           0       -3.200587    0.773839    3.351264
     11          6           0       -2.030667   -0.791788    0.004872
     12          6           0       -0.599375   -0.698363    0.466722
     13          6           0        0.431238   -0.995836   -0.524681
     14          8           0        0.143903   -1.403684   -1.520830
     15          8           0        1.695623   -0.733540   -0.124011
     16          7           0       -7.119786    2.709639    0.518041
     17          6           0       -5.958791    3.327889    1.036550
     18          6           0       -6.244196    4.711346    1.100794
     19          6           0       -7.563907    4.942936    0.595206
     20          6           0       -8.040935    3.629359    0.213446
     21          6           0       -5.233426    5.736537    1.704074
     22          6           0       -8.173530    6.257690    0.364837
     23          6           0       -9.016884    6.613343   -0.580373
     24          7           0       -9.157335    0.920337   -0.528171
     25          6           0       -9.879900    2.091265   -0.600511
     26          6           0      -11.150629    1.908674   -0.918350
     27          6           0      -11.393757    0.633262   -1.109266
     28          6           0      -10.040642   -0.123136   -0.949519
     29          6           0      -12.215536    2.966218   -0.994918
     30          6           0      -12.672805   -0.199783   -1.616636
     31          6           0      -12.706918   -0.195887   -3.225715
     32          7           0       -7.473857   -1.300639   -0.297707
     33          6           0       -8.612977   -1.938400   -0.711208
     34          6           0       -8.213102   -3.392870   -0.692841
     35          6           0       -6.843818   -3.464746   -0.270129
     36          6           0       -6.426606   -2.167033    0.047714
     37          6           0       -8.975253   -4.540454   -1.053206
     38          6           0       -5.679603   -4.357829   -0.071598
     39          8           0       -5.519711   -5.544753   -0.231155
     40          6           0       -4.454355   -3.350893    0.326678
     41          6           0       -3.936213   -3.819250    1.675037
     42          8           0       -4.346542   -3.507972    2.824824
     43          8           0       -3.096497   -4.838467    1.558048
     44          6           0       -2.620850   -5.474327    2.752851
     45          6           0        2.673899   -1.110199   -1.113718
     46          6           0        4.023904   -0.800649   -0.510389
     47          6           0        4.942923   -0.031434   -1.074411
     48          6           0        4.889336    0.693093   -2.382031
     49          6           0        6.229298    0.166083   -0.269290
     50          6           0        7.538092   -0.430643   -0.831400
     51          6           0        8.752234   -0.201644    0.026656
     52          6           0       10.057591   -0.654083   -0.780334
     53          6           0        9.973767   -2.217375   -1.019033
     54          6           0       11.318592   -0.162134    0.013788
     55          6           0       12.711262   -0.670020   -0.463144
     56          6           0       13.810961    0.147151    0.334487
     57          6           0       15.193634   -0.068260   -0.249597
     58          6           0       15.586162   -1.559689   -0.192929
     59          6           0       16.223463    0.765908    0.486124
     60          6           0       17.667007    0.736375   -0.192788
     61          6           0       18.653000    1.732675    0.540294
     62          6           0       20.071903    1.607512    0.008460
     63          6           0       20.214505    1.913622   -1.510453
     64          6           0       21.018397    2.522780    0.908618
     65          1           0       -3.998304    3.493179    1.947054
     66          1           0      -10.041099    4.251948   -0.193105
     67          1           0      -10.647264   -2.196755   -1.037173
     68          1           0       -2.929094   -1.444868    1.937594
     69          1           0       -2.209334    1.197759    1.375811
     70          1           0       -2.339516    0.498079    3.879360
     71          1           0       -3.469242    1.751339    3.676418
     72          1           0       -4.006025    0.124477    3.641744
     73          1           0       -2.120486   -1.845544   -0.518195
     74          1           0       -2.109370   -0.070245   -0.820619
     75          1           0       -0.520676    0.345191    0.952015
     76          1           0       -0.544890   -1.322093    1.424421
     77          1           0       -4.260122    5.865243    0.931457
     78          1           0       -5.731401    6.741516    1.683187
     79          1           0       -4.763398    5.574584    2.558192
     80          1           0       -7.662386    7.052390    0.894548
     81          1           0       -9.292013    6.056591   -1.512271
     82          1           0       -9.305951    7.736577   -0.721650
     83          1           0      -12.172234    3.666294   -0.090023
     84          1           0      -12.052628    3.625752   -1.735811
     85          1           0      -13.181324    2.552611   -1.285300
     86          1           0      -12.548210   -1.082706   -1.198803
     87          1           0      -13.623087    0.405573   -1.272540
     88          1           0      -12.221402    0.961815   -3.350313
     89          1           0      -11.896237   -0.918258   -3.530305
     90          1           0      -13.750036   -0.385001   -3.764140
     91          1           0       -9.860453   -4.413498   -0.548006
     92          1           0       -9.010594   -4.636965   -2.298356
     93          1           0       -8.497164   -5.671794   -0.702660
     94          1           0       -3.764827   -3.290421   -0.389673
     95          1           0       -2.213789   -6.515964    2.368897
     96          1           0       -1.964377   -4.904003    3.141105
     97          1           0       -3.461279   -5.846518    3.486596
     98          1           0        2.631640   -2.172825   -1.461988
     99          1           0        2.600654   -0.412874   -2.112243
    100          1           0        4.204136   -0.994803    0.428438
    101          1           0        5.370224    1.780220   -2.090966
    102          1           0        5.581237    0.242326   -3.186091
    103          1           0        3.849180    0.686145   -2.919887
    104          1           0        6.487678    1.114789   -0.201363
    105          1           0        5.959426   -0.206909    0.696399
    106          1           0        7.284028   -1.474126   -1.078194
    107          1           0        7.433373    0.052257   -1.836215
    108          1           0        8.728669    0.776010    0.371826
    109          1           0        8.652891   -0.761390    0.964739
    110          1           0       10.033415   -0.363721   -1.795372
    111          1           0        9.210227   -2.519096   -1.735274
    112          1           0       10.946749   -2.329761   -1.366969
    113          1           0        9.735312   -2.719142   -0.123299
    114          1           0       11.157162    0.939799   -0.065089
    115          1           0       11.039373   -0.535762    1.120117
    116          1           0       12.758497   -1.816260   -0.285115
    117          1           0       12.867050   -0.601597   -1.721573
    118          1           0       13.704467    1.293639    0.291654
    119          1           0       13.766567   -0.146042    1.323868
    120          1           0       15.132824    0.105296   -1.328108
    121          1           0       14.935869   -2.281987   -0.688572
    122          1           0       16.600153   -1.762914   -0.700184
    123          1           0       15.829069   -1.966876    0.741209
    124          1           0       15.822386    1.888925    0.752363
    125          1           0       16.409709    0.319633    1.653653
    126          1           0       18.076512   -0.246534   -0.187856
    127          1           0       17.572044    1.018171   -1.312424
    128          1           0       17.988668    2.751922    0.370381
    129          1           0       18.866461    1.360817    1.644619
    130          1           0       20.418951    0.487215   -0.035344
    131          1           0       20.071594    3.001620   -1.657407
    132          1           0       21.281263    1.629296   -1.747598
    133          1           0       19.823057    1.209066   -2.203717
    134          1           0       21.022510    2.102949    1.961546
    135          1           0       22.059118    2.410201    0.547425
    136          1           0       20.715554    3.672248    0.859431
    137          1           0       -7.138096    1.752428    0.325049
    138          1           0       -7.437974   -0.329774   -0.304323
 ---------------------------------------------------------------------

 SCF Done:  E(RB3LYP) =  -2733.05550889     A.U. after   17 cycles

 Excitation energies and oscillator strengths:

 Excited State   1:      Singlet-A      2.0068 eV  617.83 nm  f=0.2147  <S**2>=0.000
     235 -> 237       -0.15338
     235 -> 238       -0.28232
     236 -> 237        0.62009
     236 -> 238       -0.10746
 This state for optimization and/or second-order correction.
 Total Energy, E(TD-HF/TD-KS) =  -2732.98176172
 Copying the excited state density for this state as the 1-particle RhoCI density.

 The electronic state is 1-A.
 Alpha  occ. eigenvalues --  -19.17627 -19.17388 -19.12919 -19.12742 -19.11137
 Alpha  occ. eigenvalues --  -14.36715 -14.36296 -14.32690 -14.29846 -10.31389
 Alpha  occ. eigenvalues --  -10.30519 -10.28770 -10.25540 -10.24430 -10.23888
 Alpha  occ. eigenvalues --  -10.23771 -10.23516 -10.23128 -10.22871 -10.22856
 Alpha  occ. eigenvalues --  -10.21869 -10.21364 -10.21312 -10.21139 -10.21053
 Alpha  occ. eigenvalues --  -10.21020 -10.20990 -10.20978 -10.20961 -10.20935
 Alpha  occ. eigenvalues --  -10.20820 -10.20743 -10.20601 -10.20513 -10.20426
 Alpha  occ. eigenvalues --  -10.20367 -10.20344 -10.20294 -10.20197 -10.20196
 Alpha  occ. eigenvalues --  -10.20145 -10.20009 -10.19938 -10.19803 -10.19734
 Alpha  occ. eigenvalues --  -10.19551 -10.19356 -10.19320 -10.19264 -10.18669
 Alpha  occ. eigenvalues --  -10.18621 -10.18582 -10.18398 -10.18171 -10.18048
 Alpha  occ. eigenvalues --  -10.18020 -10.17892 -10.17838 -10.17613 -10.17171
 Alpha  occ. eigenvalues --  -10.16914 -10.16764 -10.16610 -10.16380  -1.12819
 Alpha  occ. eigenvalues --   -1.09247  -1.03636  -1.03309  -0.98441  -0.97661
 Alpha  occ. eigenvalues --   -0.97397  -0.92734  -0.92323  -0.84700  -0.82849
 Alpha  occ. eigenvalues --   -0.81970  -0.81729  -0.81395  -0.81325  -0.80524
 Alpha  occ. eigenvalues --   -0.80086  -0.79984  -0.79183  -0.78266  -0.77495
 Alpha  occ. eigenvalues --   -0.76809  -0.76113  -0.75909  -0.74809  -0.74071
 Alpha  occ. eigenvalues --   -0.73829  -0.72798  -0.72278  -0.71082  -0.70851
 Alpha  occ. eigenvalues --   -0.70418  -0.69498  -0.68345  -0.68075  -0.67974
 Alpha  occ. eigenvalues --   -0.67239  -0.67167  -0.66287  -0.65885  -0.65154
 Alpha  occ. eigenvalues --   -0.64640  -0.63012  -0.62441  -0.62003  -0.61019
 Alpha  occ. eigenvalues --   -0.60571  -0.59179  -0.58656  -0.58121  -0.57355
 Alpha  occ. eigenvalues --   -0.57269  -0.56204  -0.55899  -0.55731  -0.55499
 Alpha  occ. eigenvalues --   -0.55196  -0.54514  -0.54278  -0.53906  -0.53321
 Alpha  occ. eigenvalues --   -0.52895  -0.51909  -0.51755  -0.51298  -0.50806
 Alpha  occ. eigenvalues --   -0.50401  -0.49486  -0.49313  -0.48850  -0.48581
 Alpha  occ. eigenvalues --   -0.48066  -0.47747  -0.47478  -0.47093  -0.46848
 Alpha  occ. eigenvalues --   -0.46691  -0.46494  -0.46395  -0.46203  -0.45820
 Alpha  occ. eigenvalues --   -0.45619  -0.45356  -0.45105  -0.44768  -0.44568
 Alpha  occ. eigenvalues --   -0.44465  -0.44163  -0.44074  -0.43893  -0.43763
 Alpha  occ. eigenvalues --   -0.43462  -0.43169  -0.43024  -0.42846  -0.42776
 Alpha  occ. eigenvalues --   -0.42636  -0.42031  -0.41679  -0.41506  -0.41348
 Alpha  occ. eigenvalues --   -0.41183  -0.40956  -0.40775  -0.40246  -0.39989
 Alpha  occ. eigenvalues --   -0.39831  -0.39707  -0.39522  -0.39476  -0.39139
 Alpha  occ. eigenvalues --   -0.38993  -0.38788  -0.38732  -0.38555  -0.38453
 Alpha  occ. eigenvalues --   -0.38402  -0.38314  -0.38174  -0.37943  -0.37757
 Alpha  occ. eigenvalues --   -0.37314  -0.37261  -0.37101  -0.36918  -0.36549
 Alpha  occ. eigenvalues --   -0.36312  -0.36185  -0.36073  -0.35717  -0.35476
 Alpha  occ. eigenvalues --   -0.35140  -0.35029  -0.34867  -0.34816  -0.34718
 Alpha  occ. eigenvalues --   -0.34467  -0.34284  -0.33855  -0.33807  -0.33620
 Alpha  occ. eigenvalues --   -0.33479  -0.33041  -0.32703  -0.32651  -0.32467
 Alpha  occ. eigenvalues --   -0.32358  -0.32177  -0.32014  -0.31701  -0.31527
 Alpha  occ. eigenvalues --   -0.31493  -0.31116  -0.30733  -0.30576  -0.30227
 Alpha  occ. eigenvalues --   -0.29851  -0.29580  -0.29025  -0.28790  -0.28189
 Alpha  occ. eigenvalues --   -0.27295  -0.27098  -0.26769  -0.25625  -0.25296
 Alpha  occ. eigenvalues --   -0.25176  -0.24702  -0.24093  -0.22846  -0.20166
 Alpha  occ. eigenvalues --   -0.18854
 Alpha virt. eigenvalues --   -0.10610  -0.07946  -0.04607  -0.02023  -0.00311
 Alpha virt. eigenvalues --    0.00866   0.01089   0.01281   0.01984   0.03940
 Alpha virt. eigenvalues --    0.04029   0.04157   0.04193   0.04576   0.04759

 Mulliken charges:
               1
     1  C    0.041241
     2  C   -0.105440
     3  C   -0.098699
     4  C   -0.099946
     5  N   -0.235799
     6  C   -0.078325
     7  C   -0.014119
     8  C    0.020825
     9  C    0.018861
    10  C    0.140048
    11  C    0.010962
    12  C   -0.019150
    13  C    0.169878
    14  O   -0.132622
    15  O   -0.315708
    16  N   -0.009762
    17  C    0.100828
    18  C   -0.129803
    19  C    0.001242
    20  C    0.092459
    21  C    0.096068
    22  C    0.014902
    23  C   -0.091170
    24  N   -0.306942
    25  C    0.074926
    26  C   -0.120288
    27  C   -0.162819
    28  C    0.123803
    29  C    0.188868
    30  C    0.108234
    31  C   -0.079715
    32  N   -0.030075
    33  C    0.088819
    34  C   -0.150314
    35  C    0.034022
    36  C    0.068798
    37  C   -0.015503
    38  C    0.075108
    39  O   -0.151203
    40  C    0.018411
    41  C    0.208295
    42  O   -0.292191
    43  O   -0.280900
    44  C    0.211126
    45  C    0.240219
    46  C   -0.013639
    47  C   -0.157044
    48  C   -0.004828
    49  C    0.136658
    50  C   -0.011948
    51  C    0.116902
    52  C   -0.098220
    53  C    0.060233
    54  C    0.023720
    55  C   -0.066083
    56  C    0.091834
    57  C   -0.018045
    58  C    0.014671
    59  C   -0.053700
    60  C    0.004549
    61  C    0.005849
    62  C   -0.148572
    63  C    0.037013
    64  C    0.009309
    65  H    0.019936
    66  H   -0.013039
    67  H   -0.009703
    68  H    0.023167
    69  H   -0.046447
    70  H   -0.003184
    71  H   -0.008732
    72  H    0.021322
    73  H    0.035672
    74  H    0.008962
    75  H    0.027444
    76  H    0.026786
    77  H    0.030672
    78  H    0.018029
    79  H    0.000052
    80  H   -0.007202
    81  H    0.045704
    82  H    0.036011
    83  H    0.024667
    84  H   -0.033898
    85  H   -0.003267
    86  H   -0.030181
    87  H    0.021234
    88  H    0.042752
    89  H    0.026570
    90  H    0.051845
    91  H    0.021638
    92  H    0.068289
    93  H    0.069613
    94  H   -0.001448
    95  H    0.043196
    96  H   -0.017437
    97  H    0.054742
    98  H    0.038469
    99  H    0.026780
   100  H   -0.079644
   101  H    0.040997
   102  H    0.046732
   103  H    0.031378
   104  H   -0.055968
   105  H   -0.030323
   106  H   -0.010310
   107  H   -0.019128
   108  H   -0.038191
   109  H   -0.011292
   110  H   -0.021218
   111  H    0.011123
   112  H   -0.011058
   113  H   -0.011562
   114  H    0.011166
   115  H    0.013679
   116  H    0.038955
   117  H    0.019229
   118  H    0.005497
   119  H   -0.025022
   120  H   -0.010922
   121  H    0.003018
   122  H   -0.004587
   123  H   -0.018742
   124  H    0.013176
   125  H    0.008793
   126  H   -0.010972
   127  H    0.012868
   128  H    0.028265
   129  H    0.013506
   130  H    0.006074
   131  H    0.015232
   132  H   -0.010879
   133  H    0.004188
   134  H    0.020950
   135  H    0.006614
   136  H    0.033978
   137  H    0.115163
   138  H    0.104111
 Sum of Mulliken charges =   0.00000

 Dipole moment (field-independent basis, Debye):
    X=              2.9347    Y=              3.7316    Z=             -0.0546  Tot=              4.7476
 Quadrupole moment (field-independent basis, Debye-Ang):
   XX=           -354.3672   YY=           -380.9699   ZZ=           -395.1679
   XY=            -25.5425   XZ=              9.3929   YZ=             -0.9490

 Normal termination of Gaussian 09 at Thu Jul 25 03:10:04 2019.
