 Gaussian 09, Revision D.01,
 Gaussian 09:  ES64L-G09RevD.01 24-Apr-2013

 --------------------------
 # td=(NStates=1) B3LYP/SVP
 --------------------------

 --
 TD
 --
 Symbolic Z-matrix:
 Charge =  0 Multiplicity = 1

                         Standard orientation:
 ---------------------------------------------------------------------
 Center     Atomic      Atomic             Coordinates (Angstroms)
 Number     Number       Type             X           Y           Z
 ---------------------------------------------------------------------
      1          6           0       -5.014362   -1.967373    0.380200
      2          6           0       -4.692299    2.785863    1.171336
      3          6           0       -9.457496    3.351281   -0.174308
      4          6           0       -9.780609   -1.429130   -0.898445
      5          7           0       -5.186016    0.464607    0.707254
      6          6           0       -4.473497   -0.704440    0.725956
      7          6           0       -3.071970   -0.497435    1.188677
      8          6           0       -3.091726    0.918761    1.786207
      9          6           0       -4.416703    1.520453    1.241812
     10          6           0       -3.103517    0.979837    3.400234
     11          6           0       -2.029174   -0.623052   -0.023814
     12          6           0       -0.594979   -0.666610    0.539867
     13          6           0        0.365086   -1.163929   -0.582996
     14          8           0        0.044648   -1.484061   -1.703738
     15          8           0        1.649153   -0.979150   -0.137040
     16          7           0       -7.076943    2.746377    0.497018
     17          6           0       -5.921802    3.477891    0.960481
     18          6           0       -6.230298    4.809708    0.997043
     19          6           0       -7.518410    4.987489    0.443281
     20          6           0       -8.079240    3.643695    0.282211
     21          6           0       -5.196633    5.898361    1.203437
     22          6           0       -8.228246    6.309773    0.297835
     23          6           0       -9.238635    6.535756   -0.657012
     24          7           0       -9.238529    0.874342   -0.351290
     25          6           0       -9.898335    2.059362   -0.383725
     26          6           0      -11.397651    1.861442   -0.795986
     27          6           0      -11.439856    0.516530   -1.057791
     28          6           0      -10.048206   -0.092865   -0.820023
     29          6           0      -12.334779    3.004823   -1.028660
     30          6           0      -12.646371   -0.307821   -1.412430
     31          6           0      -12.741265   -0.613751   -2.952889
     32          7           0       -7.470028   -1.236451   -0.254348
     33          6           0       -8.524591   -2.050025   -0.670370
     34          6           0       -8.195822   -3.386392   -0.736515
     35          6           0       -6.789909   -3.405453   -0.253236
     36          6           0       -6.403178   -2.018944   -0.037316
     37          6           0       -9.026460   -4.554261   -1.072472
     38          6           0       -5.636463   -4.217751    0.050744
     39          8           0       -5.420431   -5.433778   -0.111466
     40          6           0       -4.520734   -3.311984    0.481565
     41          6           0       -3.934143   -3.893536    1.797669
     42          8           0       -4.161208   -3.500270    2.863748
     43          8           0       -2.860328   -4.751263    1.506339
     44          6           0       -2.463369   -5.357664    2.698492
     45          6           0        2.771987   -1.285361   -1.123725
     46          6           0        3.998578   -0.970997   -0.538787
     47          6           0        4.929176   -0.149269   -1.016881
     48          6           0        4.780244    0.516278   -2.430893
     49          6           0        6.212859    0.168526   -0.403216
     50          6           0        7.511299   -0.516878   -0.919790
     51          6           0        8.772128   -0.167799   -0.229550
     52          6           0       10.097542   -0.863304   -0.701247
     53          6           0        9.965506   -2.425266   -0.753354
     54          6           0       11.327103   -0.405784   -0.043219
     55          6           0       12.720001   -0.483402   -0.749226
     56          6           0       13.841163    0.119819    0.028536
     57          6           0       15.170552   -0.084436   -0.489522
     58          6           0       15.727299   -1.615256   -0.182520
     59          6           0       16.066878    0.933036    0.203101
     60          6           0       17.655319    0.980300   -0.250021
     61          6           0       18.500292    1.873481    0.604005
     62          6           0       20.038357    1.672380    0.265280
     63          6           0       20.479503    2.134518   -1.166096
     64          6           0       20.955153    2.430129    1.333645
     65          1           0       -3.910346    3.538314    1.668589
     66          1           0      -10.206730    4.281187   -0.095382
     67          1           0      -10.505136   -1.958199   -1.266186
     68          1           0       -2.847767   -1.342871    1.942529
     69          1           0       -2.308487    1.555117    1.425892
     70          1           0       -2.120635    0.773637    3.887669
     71          1           0       -3.274730    1.903228    3.963154
     72          1           0       -3.853147    0.356623    3.897864
     73          1           0       -2.155910   -1.488167   -0.436084
     74          1           0       -2.055540    0.381500   -0.522754
     75          1           0       -0.341364    0.324845    0.921984
     76          1           0       -0.612681   -1.544679    1.123400
     77          1           0       -4.381194    5.488750    0.452855
     78          1           0       -5.746440    6.933339    0.835533
     79          1           0       -4.699020    5.953460    2.224854
     80          1           0       -8.206429    7.037291    1.002120
     81          1           0       -9.324905    5.728828   -1.534874
     82          1           0       -9.423289    7.613494   -0.758795
     83          1           0      -12.442010    3.743555   -0.219061
     84          1           0      -12.008123    3.503515   -1.955182
     85          1           0      -13.310915    2.367106   -1.053210
     86          1           0      -12.700692   -1.200541   -0.748089
     87          1           0      -13.533068    0.562988   -1.447579
     88          1           0      -12.721090    0.471000   -3.357101
     89          1           0      -11.943035   -1.300052   -3.345313
     90          1           0      -13.665055   -1.186355   -3.162241
     91          1           0      -10.006993   -4.531598   -0.541219
     92          1           0       -9.247064   -4.466026   -1.903868
     93          1           0       -8.292591   -5.498736   -1.026378
     94          1           0       -3.809391   -3.422877   -0.016512
     95          1           0       -1.800082   -6.056751    2.507295
     96          1           0       -1.930706   -4.600086    3.394299
     97          1           0       -3.472544   -5.833236    3.259379
     98          1           0        2.823605   -2.450744   -1.096862
     99          1           0        2.447842   -0.792660   -1.968121
    100          1           0        4.168987   -1.453396    0.443644
    101          1           0        4.948750    1.645176   -2.654874
    102          1           0        5.535133   -0.081492   -3.161961
    103          1           0        3.685123    0.195284   -2.884566
    104          1           0        6.309918    1.293083   -0.536246
    105          1           0        6.127975   -0.020094    0.669378
    106          1           0        7.306651   -1.611376   -0.894473
    107          1           0        7.515313   -0.406647   -2.107548
    108          1           0        8.668865    0.835692   -0.413761
    109          1           0        8.555966   -0.373824    0.858812
    110          1           0        9.942177   -0.592464   -1.775289
    111          1           0        9.297395   -2.644183   -1.503860
    112          1           0       10.984929   -2.851108   -0.711969
    113          1           0        9.579480   -2.764284    0.256363
    114          1           0       11.105421    0.692126    0.410945
    115          1           0       11.360947   -1.205158    0.993692
    116          1           0       12.956507   -1.477676   -1.069660
    117          1           0       12.676232   -0.007156   -1.906959
    118          1           0       13.689628    1.157252    0.033431
    119          1           0       13.674538   -0.317245    0.983681
    120          1           0       15.072686   -0.144957   -1.586685
    121          1           0       15.186548   -2.428044   -0.667983
    122          1           0       16.771754   -1.881385   -0.689284
    123          1           0       15.940374   -1.670946    0.742535
    124          1           0       15.623064    2.056877   -0.239867
    125          1           0       16.018160    0.995361    1.354644
    126          1           0       17.943073   -0.119134    0.096980
    127          1           0       17.885693    1.010545   -1.471686
    128          1           0       18.129513    2.846882    0.353545
    129          1           0       18.625186    1.502682    1.745650
    130          1           0       20.074016    0.475024    0.184004
    131          1           0       20.431567    3.246277   -1.408230
    132          1           0       21.488810    1.687991   -1.270512
    133          1           0       19.806677    1.903214   -2.053379
    134          1           0       20.688898    2.144253    2.351373
    135          1           0       22.120629    2.278841    1.179189
    136          1           0       20.665877    3.426191    1.250531
    137          1           0       -7.198735    1.751084    0.524732
    138          1           0       -7.463904   -0.247351   -0.163599
 ---------------------------------------------------------------------

 SCF Done:  E(RB3LYP) =  -2732.91354007     A.U. after   17 cycles

 Excitation energies and oscillator strengths:

 Excited State   1:      Singlet-A      1.9464 eV  636.98 nm  f=0.2417  <S**2>=0.000
     235 -> 237       -0.36694
     235 -> 238       -0.20564
     236 -> 237        0.55121
     236 -> 238       -0.13080
 This state for optimization and/or second-order correction.
 Total Energy, E(TD-HF/TD-KS) =  -2732.84200949
 Copying the excited state density for this state as the 1-particle RhoCI density.

 The electronic state is 1-A.
 Alpha  occ. eigenvalues --  -19.17466 -19.16542 -19.13793 -19.12468 -19.10941
 Alpha  occ. eigenvalues --  -14.37109 -14.36854 -14.32355 -14.30624 -10.31722
 Alpha  occ. eigenvalues --  -10.31139 -10.26885 -10.24509 -10.24414 -10.23993
 Alpha  occ. eigenvalues --  -10.23693 -10.23614 -10.23559 -10.23104 -10.22382
 Alpha  occ. eigenvalues --  -10.22152 -10.21959 -10.21881 -10.21873 -10.21796
 Alpha  occ. eigenvalues --  -10.21254 -10.21234 -10.21215 -10.21179 -10.21028
 Alpha  occ. eigenvalues --  -10.20962 -10.20933 -10.20907 -10.20791 -10.20649
 Alpha  occ. eigenvalues --  -10.20580 -10.20368 -10.20335 -10.20246 -10.20109
 Alpha  occ. eigenvalues --  -10.19958 -10.19675 -10.19655 -10.19577 -10.19527
 Alpha  occ. eigenvalues --  -10.19407 -10.19406 -10.19367 -10.19340 -10.19307
 Alpha  occ. eigenvalues --  -10.19074 -10.19034 -10.19027 -10.18991 -10.18764
 Alpha  occ. eigenvalues --  -10.18728 -10.18726 -10.18562 -10.18526 -10.18388
 Alpha  occ. eigenvalues --  -10.18106 -10.17905 -10.17435 -10.16474  -1.10835
 Alpha  occ. eigenvalues --   -1.07177  -1.02756  -1.00434  -0.99574  -0.98670
 Alpha  occ. eigenvalues --   -0.97180  -0.93354  -0.92910  -0.86146  -0.83697
 Alpha  occ. eigenvalues --   -0.82706  -0.81945  -0.81537  -0.81412  -0.80952
 Alpha  occ. eigenvalues --   -0.80215  -0.79530  -0.79452  -0.79354  -0.77838
 Alpha  occ. eigenvalues --   -0.77314  -0.75903  -0.75693  -0.74689  -0.74271
 Alpha  occ. eigenvalues --   -0.73973  -0.73159  -0.72660  -0.71569  -0.71326
 Alpha  occ. eigenvalues --   -0.69883  -0.69149  -0.68618  -0.68097  -0.67913
 Alpha  occ. eigenvalues --   -0.67451  -0.67002  -0.66968  -0.66271  -0.65330
 Alpha  occ. eigenvalues --   -0.63729  -0.63092  -0.62608  -0.61760  -0.61090
 Alpha  occ. eigenvalues --   -0.60697  -0.58587  -0.58256  -0.58219  -0.57612
 Alpha  occ. eigenvalues --   -0.56882  -0.56272  -0.55929  -0.55214  -0.55028
 Alpha  occ. eigenvalues --   -0.54717  -0.54614  -0.54278  -0.54028  -0.53694
 Alpha  occ. eigenvalues --   -0.53235  -0.52437  -0.51915  -0.51758  -0.50922
 Alpha  occ. eigenvalues --   -0.50092  -0.49520  -0.49051  -0.48956  -0.48454
 Alpha  occ. eigenvalues --   -0.48051  -0.47991  -0.47701  -0.47492  -0.47013
 Alpha  occ. eigenvalues --   -0.46580  -0.46482  -0.46392  -0.46246  -0.46187
 Alpha  occ. eigenvalues --   -0.45785  -0.45766  -0.45522  -0.45379  -0.44868
 Alpha  occ. eigenvalues --   -0.44468  -0.44256  -0.44197  -0.44081  -0.43909
 Alpha  occ. eigenvalues --   -0.43670  -0.43541  -0.43087  -0.43074  -0.42850
 Alpha  occ. eigenvalues --   -0.42693  -0.41973  -0.41886  -0.41807  -0.41660
 Alpha  occ. eigenvalues --   -0.41107  -0.40676  -0.40327  -0.40135  -0.40117
 Alpha  occ. eigenvalues --   -0.40008  -0.39779  -0.39685  -0.39630  -0.39532
 Alpha  occ. eigenvalues --   -0.39323  -0.38995  -0.38836  -0.38678  -0.38616
 Alpha  occ. eigenvalues --   -0.38546  -0.38422  -0.38266  -0.38150  -0.37682
 Alpha  occ. eigenvalues --   -0.37354  -0.37283  -0.37104  -0.37063  -0.36816
 Alpha  occ. eigenvalues --   -0.36661  -0.36518  -0.36475  -0.36246  -0.35796
 Alpha  occ. eigenvalues --   -0.35714  -0.35646  -0.35407  -0.35340  -0.34880
 Alpha  occ. eigenvalues --   -0.34664  -0.34483  -0.34386  -0.34150  -0.33766
 Alpha  occ. eigenvalues --   -0.33529  -0.33294  -0.32917  -0.32805  -0.32611
 Alpha  occ. eigenvalues --   -0.32046  -0.31693  -0.31319  -0.31090  -0.31016
 Alpha  occ. eigenvalues --   -0.30640  -0.30325  -0.30055  -0.30018  -0.29833
 Alpha  occ. eigenvalues --   -0.29491  -0.29268  -0.28995  -0.28248  -0.27891
 Alpha  occ. eigenvalues --   -0.27742  -0.26969  -0.26323  -0.25990  -0.25814
 Alpha  occ. eigenvalues --   -0.25099  -0.24440  -0.24152  -0.23404  -0.19758
 Alpha  occ. eigenvalues --   -0.19358
 Alpha virt. eigenvalues --   -0.11668  -0.06896  -0.04374  -0.03193  -0.01045
 Alpha virt. eigenvalues --   -0.00394   0.00119   0.00822   0.01940   0.03007
 Alpha virt. eigenvalues --    0.03681   0.03795   0.03970   0.04343   0.04444

 Mulliken charges:
               1
     1  C   -0.007601
     2  C   -0.059804
     3  C   -0.150548
     4  C   -0.035337
     5  N   -0.222554
     6  C   -0.033605
     7  C   -0.098021
     8  C    0.029379
     9  C    0.029067
    10  C    0.039305
    11  C    0.143261
    12  C    0.073577
    13  C    0.170871
    14  O   -0.231458
    15  O   -0.372807
    16  N   -0.082015
    17  C    0.082698
    18  C   -0.107517
    19  C   -0.008997
    20  C    0.068475
    21  C   -0.004632
    22  C   -0.045103
    23  C   -0.076865
    24  N   -0.213656
    25  C    0.089589
    26  C   -0.164352
    27  C   -0.100906
    28  C    0.090392
    29  C    0.091158
    30  C   -0.003822
    31  C   -0.024689
    32  N    0.002421
    33  C    0.119332
    34  C   -0.179811
    35  C   -0.022548
    36  C    0.025307
    37  C    0.306917
    38  C   -0.003707
    39  O   -0.213672
    40  C    0.310142
    41  C    0.134643
    42  O   -0.149783
    43  O   -0.316657
    44  C    0.183892
    45  C    0.347304
    46  C   -0.103774
    47  C   -0.115717
    48  C   -0.063630
    49  C    0.095300
    50  C   -0.060228
    51  C    0.099880
    52  C   -0.064771
    53  C    0.062046
    54  C   -0.027987
    55  C    0.001093
    56  C    0.153719
    57  C   -0.047786
    58  C    0.035237
    59  C   -0.051702
    60  C   -0.065124
    61  C    0.040448
    62  C   -0.145143
    63  C   -0.016237
    64  C    0.057615
    65  H    0.003098
    66  H    0.052972
    67  H   -0.118123
    68  H    0.024346
    69  H   -0.017998
    70  H    0.008134
    71  H   -0.003757
    72  H    0.021064
    73  H   -0.045580
    74  H    0.018337
    75  H    0.040726
    76  H    0.000978
    77  H    0.054339
    78  H    0.051010
    79  H    0.046627
    80  H   -0.005419
    81  H    0.065649
    82  H    0.035330
    83  H    0.029589
    84  H    0.045079
    85  H    0.026173
    86  H    0.028673
    87  H    0.020414
    88  H    0.034756
    89  H    0.019118
    90  H    0.019134
    91  H    0.023703
    92  H   -0.113905
    93  H    0.064162
    94  H   -0.131133
    95  H   -0.016980
    96  H    0.026113
    97  H    0.047716
    98  H    0.035518
    99  H   -0.002987
   100  H   -0.006876
   101  H    0.053070
   102  H    0.045864
   103  H    0.025054
   104  H    0.004659
   105  H   -0.010867
   106  H   -0.013486
   107  H   -0.002767
   108  H   -0.028420
   109  H   -0.006917
   110  H   -0.014058
   111  H    0.006732
   112  H    0.011029
   113  H   -0.000262
   114  H    0.019284
   115  H    0.005105
   116  H   -0.023826
   117  H   -0.008480
   118  H   -0.024938
   119  H   -0.022313
   120  H   -0.007026
   121  H    0.010484
   122  H    0.009118
   123  H   -0.037550
   124  H    0.009954
   125  H    0.029297
   126  H    0.003146
   127  H    0.039701
   128  H   -0.004745
   129  H    0.025456
   130  H    0.011135
   131  H    0.004564
   132  H    0.024375
   133  H    0.004557
   134  H    0.001889
   135  H    0.031252
   136  H   -0.003137
   137  H    0.139945
   138  H    0.122618
 Sum of Mulliken charges =   0.00000

 Dipole moment (field-independent basis, Debye):
    X=              2.1102    Y=              4.8000    Z=              0.7565  Tot=              5.2977
 Quadrupole moment (field-independent basis, Debye-Ang):
   XX=           -344.3647   YY=           -386.9855   ZZ=           -396.6592
   XY=            -25.9662   XZ=              9.4207   YZ=             -0.0041

 Normal termination of Gaussian 09 at Wed Jul 31 04:21:32 2019.
