 Gaussian 09, Revision D.01,
 Gaussian 09:  ES64L-G09RevD.01 24-Apr-2013

 --------------------------
 # td=(NStates=1) B3LYP/SVP
 --------------------------

 --
 TD
 --
 Symbolic Z-matrix:
 Charge =  0 Multiplicity = 1

                         Standard orientation:
 ---------------------------------------------------------------------
 Center     Atomic      Atomic             Coordinates (Angstroms)
 Number     Number       Type             X           Y           Z
 ---------------------------------------------------------------------
      1          6           0       -4.963928   -1.869781    0.482062
      2          6           0       -4.956647    2.796535    1.450453
      3          6           0       -9.619958    3.089986   -0.192040
      4          6           0       -9.844156   -1.756472   -0.875195
      5          7           0       -5.183979    0.443339    0.796341
      6          6           0       -4.462995   -0.702675    0.835957
      7          6           0       -3.003677   -0.360587    1.274345
      8          6           0       -3.122950    0.946036    1.857132
      9          6           0       -4.494532    1.384000    1.255070
     10          6           0       -3.016109    1.083419    3.347813
     11          6           0       -2.089650   -0.546310    0.105935
     12          6           0       -0.611306   -0.387676    0.567233
     13          6           0        0.389738   -0.582491   -0.752068
     14          8           0        0.063649   -0.904052   -1.823109
     15          8           0        1.592340   -0.269652   -0.418606
     16          7           0       -7.279590    2.615190    0.650999
     17          6           0       -6.129341    3.309544    0.985679
     18          6           0       -6.542024    4.732319    1.053595
     19          6           0       -7.798731    4.838837    0.517122
     20          6           0       -8.339557    3.505348    0.232462
     21          6           0       -5.598945    5.855484    1.420727
     22          6           0       -8.473053    6.112716    0.342644
     23          6           0       -9.387044    6.292712   -0.608868
     24          7           0       -9.276362    0.631573   -0.462875
     25          6           0      -10.045686    1.812325   -0.448219
     26          6           0      -11.400301    1.510229   -0.898882
     27          6           0      -11.447735    0.211496   -1.053722
     28          6           0      -10.077116   -0.301246   -0.865931
     29          6           0      -12.495894    2.612493   -1.242664
     30          6           0      -12.573428   -0.699567   -1.497319
     31          6           0      -12.623619   -1.094297   -2.987281
     32          7           0       -7.480630   -1.369624   -0.124789
     33          6           0       -8.505942   -2.178440   -0.667679
     34          6           0       -7.979355   -3.524261   -0.589749
     35          6           0       -6.581044   -3.489276   -0.209791
     36          6           0       -6.319577   -2.095132    0.043776
     37          6           0       -8.722635   -4.802583   -0.816322
     38          6           0       -5.472724   -4.322629    0.061208
     39          8           0       -5.377402   -5.546022   -0.014970
     40          6           0       -4.301108   -3.374743    0.411418
     41          6           0       -3.696586   -3.676551    1.829438
     42          8           0       -4.159634   -3.284962    2.893992
     43          8           0       -2.808380   -4.609139    1.692451
     44          6           0       -2.219465   -5.150189    2.880222
     45          6           0        2.655564   -0.528884   -1.435594
     46          6           0        3.929961   -0.295236   -0.782529
     47          6           0        4.866544    0.650385   -1.177026
     48          6           0        4.773452    1.540522   -2.389797
     49          6           0        6.252119    0.624968   -0.424451
     50          6           0        7.497406   -0.020867   -1.264621
     51          6           0        8.753727    0.074111   -0.359413
     52          6           0        9.991847   -0.495963   -1.000792
     53          6           0        9.983927   -1.958136   -1.429031
     54          6           0       11.247317   -0.229516   -0.154399
     55          6           0       12.691011   -0.604718   -0.687407
     56          6           0       13.826764    0.013029    0.212068
     57          6           0       15.234723   -0.292543   -0.420176
     58          6           0       15.517948   -1.658372   -0.676215
     59          6           0       16.359037    0.358671    0.343570
     60          6           0       17.774855    0.425346   -0.176466
     61          6           0       18.834414    1.097711    0.879717
     62          6           0       20.264198    1.235702    0.435210
     63          6           0       20.348576    2.099607   -0.836186
     64          6           0       21.176334    1.770414    1.588726
     65          1           0       -4.156830    3.625347    1.734288
     66          1           0      -10.318595    3.902116   -0.350124
     67          1           0      -10.288125   -2.689120   -1.505556
     68          1           0       -2.713207   -1.154398    2.107356
     69          1           0       -2.414508    1.427993    1.434854
     70          1           0       -1.913154    0.935064    3.792056
     71          1           0       -3.104427    2.144180    3.687876
     72          1           0       -3.939189    0.418387    3.705875
     73          1           0       -2.246067   -1.513802   -0.216094
     74          1           0       -2.287360    0.048044   -0.788905
     75          1           0       -0.273782    0.419311    0.907385
     76          1           0       -0.393420   -1.270750    1.339225
     77          1           0       -4.917057    6.105508    0.308180
     78          1           0       -6.292140    6.926049    1.520854
     79          1           0       -4.806757    5.669324    2.366215
     80          1           0       -8.299609    6.937650    0.980404
     81          1           0       -9.577359    5.893513   -1.652144
     82          1           0      -10.007126    7.234156   -0.464729
     83          1           0      -12.585207    2.977700   -0.197970
     84          1           0      -11.980111    3.462144   -1.931005
     85          1           0      -13.408096    2.232038   -1.803660
     86          1           0      -12.299091   -1.546733   -0.749087
     87          1           0      -13.418321   -0.092142   -1.088482
     88          1           0      -12.785774   -0.277380   -3.587150
     89          1           0      -11.647200   -1.506677   -3.263582
     90          1           0      -13.330467   -1.901390   -2.969004
     91          1           0       -9.746272   -4.779929   -0.280509
     92          1           0       -9.217740   -4.628487   -1.714957
     93          1           0       -8.298093   -5.770060   -0.569373
     94          1           0       -3.482311   -3.335206   -0.200228
     95          1           0       -1.604457   -6.165401    2.520465
     96          1           0       -1.368252   -4.626110    3.324471
     97          1           0       -2.838679   -5.536603    3.618848
     98          1           0        2.592334   -1.664651   -1.652374
     99          1           0        2.317334    0.010446   -2.443638
    100          1           0        4.031728   -0.788606    0.285527
    101          1           0        5.066334    2.725210   -2.213946
    102          1           0        5.609051    1.442315   -3.172976
    103          1           0        4.007383    1.450762   -3.051405
    104          1           0        6.556207    1.692601   -0.315247
    105          1           0        6.154393    0.171436    0.433140
    106          1           0        7.263712   -1.033584   -1.655110
    107          1           0        7.662070    0.610339   -2.130029
    108          1           0        9.152869    1.134842   -0.131427
    109          1           0        8.711112   -0.564973    0.551643
    110          1           0       10.300201   -0.024284   -1.855817
    111          1           0        9.027725   -1.978240   -2.329342
    112          1           0       10.895481   -2.349189   -1.892907
    113          1           0        9.672561   -2.667765   -0.550605
    114          1           0       11.280106    0.799909    0.222187
    115          1           0       11.158308   -0.981856    0.702112
    116          1           0       12.637286   -1.698939   -0.648096
    117          1           0       12.549780   -0.196126   -1.709928
    118          1           0       13.787592    1.091539    0.248179
    119          1           0       13.806103   -0.624169    1.248621
    120          1           0       15.260684    0.173851   -1.471670
    121          1           0       15.046221   -2.199005   -1.632997
    122          1           0       16.576124   -1.752097   -0.940339
    123          1           0       15.435927   -2.480888    0.257544
    124          1           0       15.940550    1.364823    0.516248
    125          1           0       16.564428   -0.000001    1.385712
    126          1           0       18.248597   -0.582030   -0.265120
    127          1           0       17.898738    1.011531   -1.110723
    128          1           0       18.308960    2.174914    1.115751
    129          1           0       18.488881    0.540113    1.935065
    130          1           0       20.571100    0.143768    0.265985
    131          1           0       20.087650    3.127320   -0.748942
    132          1           0       21.368932    2.257339   -1.255678
    133          1           0       19.926109    1.722120   -1.666028
    134          1           0       21.153663    1.199322    2.543560
    135          1           0       22.072023    1.835845    1.335213
    136          1           0       20.983883    2.768582    1.891704
    137          1           0       -7.454936    1.681016    0.534960
    138          1           0       -7.414916   -0.349468   -0.262891
 ---------------------------------------------------------------------

 SCF Done:  E(RB3LYP) =  -2732.98658924     A.U. after   17 cycles

 Excitation energies and oscillator strengths:

 Excited State   1:      Singlet-A      1.9796 eV  626.30 nm  f=0.2828  <S**2>=0.000
     235 -> 237       -0.10971
     235 -> 238       -0.19662
     236 -> 237        0.66358
     236 -> 238       -0.11893
     236 <- 237       -0.10141
 This state for optimization and/or second-order correction.
 Total Energy, E(TD-HF/TD-KS) =  -2732.91383953
 Copying the excited state density for this state as the 1-particle RhoCI density.

 The electronic state is 1-A.
 Alpha  occ. eigenvalues --  -19.19499 -19.17565 -19.11864 -19.11799 -19.11277
 Alpha  occ. eigenvalues --  -14.36716 -14.36212 -14.31971 -14.29769 -10.31636
 Alpha  occ. eigenvalues --  -10.30485 -10.27193 -10.26354 -10.25654 -10.24785
 Alpha  occ. eigenvalues --  -10.24302 -10.23919 -10.23554 -10.23226 -10.23138
 Alpha  occ. eigenvalues --  -10.21887 -10.21778 -10.21641 -10.21492 -10.21264
 Alpha  occ. eigenvalues --  -10.21248 -10.21241 -10.20902 -10.20782 -10.20622
 Alpha  occ. eigenvalues --  -10.20515 -10.20407 -10.20361 -10.20327 -10.20310
 Alpha  occ. eigenvalues --  -10.20309 -10.20265 -10.20208 -10.20157 -10.20028
 Alpha  occ. eigenvalues --  -10.19945 -10.19816 -10.19797 -10.19653 -10.19507
 Alpha  occ. eigenvalues --  -10.19335 -10.19092 -10.18986 -10.18894 -10.18854
 Alpha  occ. eigenvalues --  -10.18763 -10.18697 -10.18630 -10.18570 -10.18449
 Alpha  occ. eigenvalues --  -10.17952 -10.17894 -10.17857 -10.17602 -10.17567
 Alpha  occ. eigenvalues --  -10.17446 -10.17232 -10.16522 -10.16148  -1.11518
 Alpha  occ. eigenvalues --   -1.11260  -1.01760  -1.01136  -1.00073  -0.97540
 Alpha  occ. eigenvalues --   -0.96486  -0.96259  -0.93995  -0.83826  -0.82655
 Alpha  occ. eigenvalues --   -0.82591  -0.82207  -0.82003  -0.81224  -0.80505
 Alpha  occ. eigenvalues --   -0.79958  -0.79619  -0.79097  -0.78386  -0.77300
 Alpha  occ. eigenvalues --   -0.76682  -0.76017  -0.75796  -0.74962  -0.74229
 Alpha  occ. eigenvalues --   -0.73594  -0.73391  -0.72922  -0.71816  -0.70093
 Alpha  occ. eigenvalues --   -0.69688  -0.69574  -0.69240  -0.68280  -0.68073
 Alpha  occ. eigenvalues --   -0.67100  -0.66743  -0.66103  -0.65328  -0.65219
 Alpha  occ. eigenvalues --   -0.64083  -0.63386  -0.62408  -0.61832  -0.61711
 Alpha  occ. eigenvalues --   -0.60703  -0.59995  -0.58249  -0.57986  -0.57307
 Alpha  occ. eigenvalues --   -0.57185  -0.56255  -0.55755  -0.55037  -0.55003
 Alpha  occ. eigenvalues --   -0.54879  -0.54612  -0.53953  -0.53794  -0.53778
 Alpha  occ. eigenvalues --   -0.52542  -0.52293  -0.51376  -0.50949  -0.50305
 Alpha  occ. eigenvalues --   -0.50105  -0.49468  -0.49234  -0.48947  -0.48556
 Alpha  occ. eigenvalues --   -0.48405  -0.47695  -0.47588  -0.47400  -0.46926
 Alpha  occ. eigenvalues --   -0.46725  -0.46641  -0.46159  -0.45826  -0.45627
 Alpha  occ. eigenvalues --   -0.45347  -0.45183  -0.45008  -0.44555  -0.44237
 Alpha  occ. eigenvalues --   -0.43954  -0.43855  -0.43772  -0.43594  -0.43512
 Alpha  occ. eigenvalues --   -0.43306  -0.43186  -0.42684  -0.42443  -0.42330
 Alpha  occ. eigenvalues --   -0.42132  -0.41751  -0.41687  -0.41263  -0.41232
 Alpha  occ. eigenvalues --   -0.41154  -0.40966  -0.40841  -0.40392  -0.40133
 Alpha  occ. eigenvalues --   -0.39984  -0.39875  -0.39568  -0.39432  -0.39329
 Alpha  occ. eigenvalues --   -0.39164  -0.38854  -0.38667  -0.38519  -0.38487
 Alpha  occ. eigenvalues --   -0.38300  -0.37765  -0.37631  -0.37447  -0.37245
 Alpha  occ. eigenvalues --   -0.37047  -0.36852  -0.36780  -0.36380  -0.36285
 Alpha  occ. eigenvalues --   -0.36183  -0.36115  -0.35933  -0.35909  -0.35752
 Alpha  occ. eigenvalues --   -0.35592  -0.35460  -0.35315  -0.35080  -0.35007
 Alpha  occ. eigenvalues --   -0.34855  -0.34544  -0.34210  -0.34061  -0.33882
 Alpha  occ. eigenvalues --   -0.33663  -0.33517  -0.33320  -0.33180  -0.32448
 Alpha  occ. eigenvalues --   -0.32181  -0.31953  -0.31942  -0.31767  -0.31466
 Alpha  occ. eigenvalues --   -0.31094  -0.30996  -0.30831  -0.30444  -0.30206
 Alpha  occ. eigenvalues --   -0.29365  -0.29225  -0.28887  -0.28109  -0.27625
 Alpha  occ. eigenvalues --   -0.27371  -0.26701  -0.26652  -0.25834  -0.25112
 Alpha  occ. eigenvalues --   -0.24753  -0.24476  -0.23711  -0.22948  -0.20892
 Alpha  occ. eigenvalues --   -0.17881
 Alpha virt. eigenvalues --   -0.10401  -0.07130  -0.04676  -0.02110  -0.01985
 Alpha virt. eigenvalues --   -0.00119   0.00540   0.02193   0.02734   0.03074
 Alpha virt. eigenvalues --    0.03564   0.04001   0.04351   0.04505   0.04581

 Mulliken charges:
               1
     1  C   -0.003829
     2  C   -0.094979
     3  C   -0.099438
     4  C   -0.086383
     5  N   -0.069295
     6  C   -0.121474
     7  C   -0.137486
     8  C    0.182201
     9  C   -0.108583
    10  C    0.023547
    11  C    0.161523
    12  C    0.051551
    13  C    0.118695
    14  O   -0.202010
    15  O   -0.281031
    16  N   -0.076485
    17  C    0.145808
    18  C   -0.088813
    19  C    0.071852
    20  C    0.085682
    21  C   -0.101719
    22  C   -0.037769
    23  C   -0.081912
    24  N   -0.218160
    25  C    0.098568
    26  C   -0.137842
    27  C   -0.130135
    28  C    0.024703
    29  C    0.037465
    30  C   -0.007629
    31  C    0.118019
    32  N   -0.071959
    33  C    0.046008
    34  C   -0.153507
    35  C    0.002305
    36  C    0.072564
    37  C    0.163733
    38  C    0.077264
    39  O   -0.191358
    40  C    0.029480
    41  C    0.169444
    42  O   -0.245495
    43  O   -0.237743
    44  C    0.163044
    45  C    0.197816
    46  C   -0.101300
    47  C   -0.095990
    48  C    0.046148
    49  C    0.129957
    50  C    0.025506
    51  C    0.037609
    52  C   -0.002904
    53  C   -0.068787
    54  C   -0.046581
    55  C    0.009780
    56  C    0.049067
    57  C   -0.036709
    58  C   -0.027219
    59  C    0.043568
    60  C    0.019399
    61  C   -0.113960
    62  C   -0.042718
    63  C    0.083049
    64  C    0.153256
    65  H    0.015829
    66  H   -0.030904
    67  H    0.046787
    68  H    0.022007
    69  H   -0.109820
    70  H    0.025734
    71  H    0.006169
    72  H    0.057533
    73  H   -0.037402
    74  H    0.006372
    75  H   -0.042552
    76  H    0.035779
    77  H    0.063509
    78  H    0.052291
    79  H    0.077805
    80  H   -0.001581
    81  H    0.053746
    82  H    0.017609
    83  H    0.044935
    84  H    0.042897
    85  H    0.039913
    86  H    0.026855
    87  H    0.003023
    88  H   -0.003265
    89  H   -0.002107
    90  H    0.014423
    91  H    0.004015
    92  H   -0.014173
    93  H    0.050184
    94  H    0.014460
    95  H    0.032619
    96  H    0.034774
    97  H    0.034194
    98  H    0.036980
    99  H    0.062427
   100  H    0.033432
   101  H    0.033251
   102  H    0.015509
   103  H   -0.018946
   104  H   -0.000980
   105  H   -0.047415
   106  H    0.019325
   107  H   -0.007822
   108  H    0.014919
   109  H    0.002003
   110  H   -0.048536
   111  H    0.018805
   112  H    0.030604
   113  H    0.018727
   114  H   -0.011282
   115  H   -0.020061
   116  H    0.017799
   117  H   -0.004393
   118  H   -0.001409
   119  H    0.023316
   120  H   -0.008426
   121  H    0.017356
   122  H   -0.009124
   123  H    0.007375
   124  H   -0.023275
   125  H   -0.015962
   126  H    0.009648
   127  H    0.002607
   128  H   -0.003232
   129  H    0.013464
   130  H    0.005312
   131  H   -0.004224
   132  H   -0.013528
   133  H   -0.019592
   134  H    0.002628
   135  H   -0.068862
   136  H   -0.018901
   137  H    0.093288
   138  H    0.168128
 Sum of Mulliken charges =   0.00000

 Dipole moment (field-independent basis, Debye):
    X=              4.9666    Y=              5.1238    Z=             -0.8730  Tot=              7.1891
 Quadrupole moment (field-independent basis, Debye-Ang):
   XX=           -341.5127   YY=           -382.9752   ZZ=           -394.1543
   XY=            -17.8527   XZ=              7.1286   YZ=             -5.5343

 Normal termination of Gaussian 09 at Sat Aug  3 03:53:13 2019.
