 Gaussian 09, Revision D.01,
 Gaussian 09:  ES64L-G09RevD.01 24-Apr-2013

 --------------------------
 # td=(NStates=1) B3LYP/SVP
 --------------------------

 --
 TD
 --
 Symbolic Z-matrix:
 Charge =  0 Multiplicity = 1

                         Standard orientation:
 ---------------------------------------------------------------------
 Center     Atomic      Atomic             Coordinates (Angstroms)
 Number     Number       Type             X           Y           Z
 ---------------------------------------------------------------------
      1          6           0       -5.134285   -1.933412    0.421210
      2          6           0       -4.745032    2.818610    1.249214
      3          6           0       -9.358110    3.259297   -0.279434
      4          6           0       -9.834483   -1.557520   -0.904893
      5          7           0       -5.165993    0.437239    0.817967
      6          6           0       -4.419758   -0.734027    0.789221
      7          6           0       -3.025226   -0.584213    1.264759
      8          6           0       -2.968661    0.899616    1.808147
      9          6           0       -4.366329    1.454939    1.251578
     10          6           0       -2.810332    1.139042    3.258456
     11          6           0       -2.092102   -0.780357    0.000787
     12          6           0       -0.612943   -0.822298    0.489379
     13          6           0        0.370507   -0.952836   -0.706677
     14          8           0        0.121232   -1.311346   -1.855681
     15          8           0        1.636462   -0.818410   -0.235164
     16          7           0       -7.086973    2.741544    0.418977
     17          6           0       -6.003856    3.426428    0.898174
     18          6           0       -6.421485    4.870833    1.113541
     19          6           0       -7.679064    4.998465    0.605523
     20          6           0       -8.118220    3.645352    0.235654
     21          6           0       -5.573199    6.062449    1.453364
     22          6           0       -8.463342    6.199614    0.455916
     23          6           0       -9.221210    6.607043   -0.624012
     24          7           0       -9.243130    0.841513   -0.443700
     25          6           0       -9.888464    1.954984   -0.491119
     26          6           0      -11.267318    1.744444   -0.995717
     27          6           0      -11.403477    0.343752   -1.035173
     28          6           0      -10.147443   -0.264619   -0.818980
     29          6           0      -12.270538    2.862972   -1.227516
     30          6           0      -12.611687   -0.398068   -1.630208
     31          6           0      -12.531370   -0.772168   -3.080268
     32          7           0       -7.563637   -1.211674   -0.139292
     33          6           0       -8.579536   -2.090642   -0.516974
     34          6           0       -8.187868   -3.447805   -0.474370
     35          6           0       -6.859275   -3.446478   -0.175551
     36          6           0       -6.468832   -2.108331    0.037695
     37          6           0       -9.064430   -4.701499   -0.768838
     38          6           0       -5.651574   -4.267406    0.035724
     39          8           0       -5.602018   -5.454132    0.124031
     40          6           0       -4.493642   -3.402297    0.498530
     41          6           0       -3.811123   -3.773674    1.869986
     42          8           0       -4.213865   -3.375330    2.876453
     43          8           0       -2.884093   -4.809684    1.609396
     44          6           0       -2.368879   -5.414354    2.790929
     45          6           0        2.622759   -0.983785   -1.291381
     46          6           0        3.920708   -0.593321   -0.738579
     47          6           0        4.932380    0.156440   -1.262589
     48          6           0        4.846414    0.754090   -2.626129
     49          6           0        6.282023    0.481824   -0.469267
     50          6           0        7.552552   -0.235798   -1.059681
     51          6           0        8.783806    0.018745   -0.268876
     52          6           0       10.043077   -0.708870   -0.830818
     53          6           0       10.065151   -2.183552   -0.966479
     54          6           0       11.338141   -0.098682   -0.017539
     55          6           0       12.674371   -0.467047   -0.656210
     56          6           0       13.789058   -0.022699    0.260947
     57          6           0       15.177987   -0.064175   -0.565619
     58          6           0       15.656742   -1.476465   -0.736782
     59          6           0       16.249476    0.634741    0.309206
     60          6           0       17.657225    0.614946   -0.024391
     61          6           0       18.592704    1.539279    0.785064
     62          6           0       20.111180    1.513849    0.430074
     63          6           0       20.411764    1.873035   -1.014678
     64          6           0       21.029327    2.134094    1.379156
     65          1           0       -3.963260    3.648244    1.692087
     66          1           0      -10.032101    4.148573   -0.357263
     67          1           0      -10.707365   -2.183007   -1.088284
     68          1           0       -2.757992   -1.419281    1.880874
     69          1           0       -2.123920    1.223709    1.167845
     70          1           0       -1.671983    0.930301    3.800229
     71          1           0       -2.775333    2.304024    3.627159
     72          1           0       -3.759174    0.781356    3.804574
     73          1           0       -2.122948   -1.760681   -0.341267
     74          1           0       -2.274359   -0.046816   -0.580936
     75          1           0       -0.268484    0.133782    1.007972
     76          1           0       -0.365293   -1.574187    1.392316
     77          1           0       -4.791404    6.423230    0.658662
     78          1           0       -6.151173    7.095220    1.815668
     79          1           0       -4.955030    6.061643    2.342960
     80          1           0       -8.134333    6.908733    1.206458
     81          1           0       -9.451230    5.784809   -1.234669
     82          1           0       -9.490920    7.642651   -0.650958
     83          1           0      -12.273389    3.190799   -0.245837
     84          1           0      -12.080579    3.698798   -2.024763
     85          1           0      -13.153554    2.513071   -1.436936
     86          1           0      -12.875630   -1.362756   -1.092071
     87          1           0      -13.445878    0.197496   -1.438484
     88          1           0      -12.503340    0.231381   -3.681363
     89          1           0      -11.757405   -1.420342   -3.242902
     90          1           0      -13.474430   -1.386051   -3.398720
     91          1           0       -9.804729   -4.882572   -0.063332
     92          1           0       -9.557224   -4.621302   -1.899639
     93          1           0       -8.512029   -5.670926   -0.834999
     94          1           0       -3.747821   -3.352454   -0.301529
     95          1           0       -1.983873   -6.526455    2.552806
     96          1           0       -1.532923   -4.721434    3.043068
     97          1           0       -3.131491   -5.619078    3.602236
     98          1           0        2.534833   -2.062690   -1.544846
     99          1           0        2.422428   -0.380419   -2.207848
    100          1           0        4.136680   -1.052635    0.139108
    101          1           0        5.151403    1.873440   -2.730496
    102          1           0        5.751071    0.263006   -3.243392
    103          1           0        3.960661    0.583175   -3.191584
    104          1           0        6.375509    1.477105   -0.393219
    105          1           0        5.961652    0.155120    0.430495
    106          1           0        7.374076   -1.307821   -1.006364
    107          1           0        7.772045    0.185147   -2.189536
    108          1           0        9.059914    1.138190   -0.273166
    109          1           0        8.736592   -0.214020    0.780728
    110          1           0       10.169745   -0.381263   -1.793232
    111          1           0        8.885716   -2.399138   -1.272098
    112          1           0       10.906237   -2.549677   -1.566431
    113          1           0       10.158771   -2.715256    0.054755
    114          1           0       11.132091    0.998221    0.129102
    115          1           0       11.237055   -0.620751    0.925486
    116          1           0       12.861456   -1.576172   -0.698866
    117          1           0       12.707408    0.092993   -1.607809
    118          1           0       13.788628    1.088582    0.585002
    119          1           0       13.771912   -0.689158    1.289202
    120          1           0       15.055205    0.478503   -1.664607
    121          1           0       14.683070   -2.103642   -1.105990
    122          1           0       16.510493   -1.315381   -1.544363
    123          1           0       16.005344   -1.831989    0.296867
    124          1           0       15.775282    1.564763    0.736195
    125          1           0       16.283843   -0.006152    1.354380
    126          1           0       18.016786   -0.366698   -0.126524
    127          1           0       17.823848    0.925614   -1.217870
    128          1           0       18.174277    2.664389    0.585501
    129          1           0       18.275043    1.090966    1.853050
    130          1           0       20.375696    0.365293    0.452581
    131          1           0       19.931482    3.056046   -1.252363
    132          1           0       21.560729    1.973701   -1.442840
    133          1           0       20.095108    1.116166   -1.657960
    134          1           0       21.014938    1.779944    2.289521
    135          1           0       22.024605    1.874909    0.878481
    136          1           0       20.965009    3.206273    1.582414
    137          1           0       -6.908715    1.628237    0.517879
    138          1           0       -7.856486   -0.221456   -0.161146
 ---------------------------------------------------------------------

 SCF Done:  E(RB3LYP) =  -2733.04392398     A.U. after   17 cycles

 Excitation energies and oscillator strengths:

 Excited State   1:      Singlet-A      2.0384 eV  608.25 nm  f=0.1942  <S**2>=0.000
     235 -> 237       -0.12569
     235 -> 238        0.26377
     236 -> 237        0.63695
 This state for optimization and/or second-order correction.
 Total Energy, E(TD-HF/TD-KS) =  -2732.96901472
 Copying the excited state density for this state as the 1-particle RhoCI density.

 The electronic state is 1-A.
 Alpha  occ. eigenvalues --  -19.17894 -19.17734 -19.14577 -19.12917 -19.11414
 Alpha  occ. eigenvalues --  -14.37601 -14.35804 -14.33043 -14.29560 -10.32556
 Alpha  occ. eigenvalues --  -10.31961 -10.27167 -10.25561 -10.24978 -10.24614
 Alpha  occ. eigenvalues --  -10.24154 -10.23862 -10.23292 -10.23199 -10.22547
 Alpha  occ. eigenvalues --  -10.22121 -10.21990 -10.21773 -10.21698 -10.21633
 Alpha  occ. eigenvalues --  -10.21244 -10.21137 -10.21060 -10.20925 -10.20774
 Alpha  occ. eigenvalues --  -10.20747 -10.20743 -10.20597 -10.20542 -10.20513
 Alpha  occ. eigenvalues --  -10.20433 -10.20243 -10.20201 -10.20094 -10.20027
 Alpha  occ. eigenvalues --  -10.20019 -10.19990 -10.19882 -10.19824 -10.19735
 Alpha  occ. eigenvalues --  -10.19722 -10.19524 -10.19350 -10.18974 -10.18927
 Alpha  occ. eigenvalues --  -10.18750 -10.18713 -10.18594 -10.18500 -10.18404
 Alpha  occ. eigenvalues --  -10.18373 -10.18296 -10.18258 -10.18207 -10.18152
 Alpha  occ. eigenvalues --  -10.18028 -10.17837 -10.17788 -10.16519  -1.10313
 Alpha  occ. eigenvalues --   -1.09124  -1.03600  -1.03016  -1.00000  -0.97673
 Alpha  occ. eigenvalues --   -0.96551  -0.93510  -0.92758  -0.84205  -0.82712
 Alpha  occ. eigenvalues --   -0.82451  -0.82074  -0.81764  -0.80965  -0.80524
 Alpha  occ. eigenvalues --   -0.80094  -0.79510  -0.78764  -0.78303  -0.77703
 Alpha  occ. eigenvalues --   -0.76947  -0.76199  -0.75496  -0.75162  -0.74593
 Alpha  occ. eigenvalues --   -0.73579  -0.72980  -0.72307  -0.71667  -0.70042
 Alpha  occ. eigenvalues --   -0.69649  -0.69205  -0.68439  -0.68165  -0.68077
 Alpha  occ. eigenvalues --   -0.67178  -0.66029  -0.65618  -0.65343  -0.65044
 Alpha  occ. eigenvalues --   -0.63726  -0.62807  -0.62468  -0.61537  -0.61241
 Alpha  occ. eigenvalues --   -0.61115  -0.58846  -0.58460  -0.58127  -0.56723
 Alpha  occ. eigenvalues --   -0.56254  -0.55939  -0.55910  -0.55589  -0.55201
 Alpha  occ. eigenvalues --   -0.54349  -0.54114  -0.53845  -0.53286  -0.53068
 Alpha  occ. eigenvalues --   -0.52740  -0.51794  -0.51250  -0.50845  -0.50531
 Alpha  occ. eigenvalues --   -0.49876  -0.49426  -0.49052  -0.48842  -0.48654
 Alpha  occ. eigenvalues --   -0.48507  -0.47996  -0.47816  -0.47544  -0.47243
 Alpha  occ. eigenvalues --   -0.46911  -0.46683  -0.46394  -0.46290  -0.45656
 Alpha  occ. eigenvalues --   -0.45378  -0.45201  -0.45073  -0.44884  -0.44740
 Alpha  occ. eigenvalues --   -0.44709  -0.44147  -0.43844  -0.43681  -0.43537
 Alpha  occ. eigenvalues --   -0.43461  -0.43234  -0.43041  -0.42867  -0.42622
 Alpha  occ. eigenvalues --   -0.42267  -0.42083  -0.41833  -0.41521  -0.41308
 Alpha  occ. eigenvalues --   -0.41232  -0.40984  -0.40905  -0.40498  -0.40446
 Alpha  occ. eigenvalues --   -0.40164  -0.40107  -0.39893  -0.39509  -0.39359
 Alpha  occ. eigenvalues --   -0.39296  -0.39095  -0.38933  -0.38637  -0.38549
 Alpha  occ. eigenvalues --   -0.38251  -0.37910  -0.37906  -0.37740  -0.37561
 Alpha  occ. eigenvalues --   -0.37468  -0.37282  -0.37116  -0.36966  -0.36603
 Alpha  occ. eigenvalues --   -0.36578  -0.36277  -0.36118  -0.35811  -0.35693
 Alpha  occ. eigenvalues --   -0.35543  -0.35371  -0.35184  -0.35113  -0.35007
 Alpha  occ. eigenvalues --   -0.34925  -0.34797  -0.34572  -0.33806  -0.33763
 Alpha  occ. eigenvalues --   -0.33585  -0.33421  -0.33331  -0.33011  -0.32490
 Alpha  occ. eigenvalues --   -0.32329  -0.32162  -0.31995  -0.31547  -0.31359
 Alpha  occ. eigenvalues --   -0.31029  -0.30816  -0.30740  -0.30619  -0.30091
 Alpha  occ. eigenvalues --   -0.29551  -0.29364  -0.28414  -0.28265  -0.27826
 Alpha  occ. eigenvalues --   -0.27424  -0.27330  -0.26675  -0.26223  -0.25716
 Alpha  occ. eigenvalues --   -0.24578  -0.24563  -0.24487  -0.22046  -0.20172
 Alpha  occ. eigenvalues --   -0.18155
 Alpha virt. eigenvalues --   -0.09795  -0.07684  -0.04324  -0.02514  -0.01275
 Alpha virt. eigenvalues --   -0.00610  -0.00238   0.00211   0.01667   0.03247
 Alpha virt. eigenvalues --    0.03532   0.03787   0.03831   0.04346   0.04409

 Mulliken charges:
               1
     1  C   -0.058627
     2  C   -0.055164
     3  C   -0.098585
     4  C   -0.076055
     5  N   -0.208867
     6  C   -0.049280
     7  C   -0.050215
     8  C    0.068728
     9  C   -0.022488
    10  C   -0.024013
    11  C    0.178619
    12  C   -0.075532
    13  C    0.207877
    14  O   -0.249895
    15  O   -0.322584
    16  N   -0.116836
    17  C    0.015644
    18  C   -0.051246
    19  C    0.054835
    20  C    0.069738
    21  C   -0.021660
    22  C   -0.075354
    23  C    0.042827
    24  N   -0.252198
    25  C    0.063593
    26  C   -0.186269
    27  C   -0.075399
    28  C    0.084813
    29  C    0.190218
    30  C    0.068264
    31  C    0.029367
    32  N   -0.086856
    33  C    0.075268
    34  C   -0.173952
    35  C    0.035193
    36  C    0.147261
    37  C    0.073361
    38  C    0.048734
    39  O   -0.147794
    40  C    0.006034
    41  C    0.212981
    42  O   -0.137441
    43  O   -0.334262
    44  C    0.127242
    45  C    0.295729
    46  C   -0.060662
    47  C   -0.174056
    48  C    0.030321
    49  C    0.211544
    50  C   -0.000966
    51  C    0.028616
    52  C   -0.042714
    53  C   -0.010684
    54  C    0.010115
    55  C    0.072300
    56  C   -0.061939
    57  C   -0.122776
    58  C   -0.017038
    59  C   -0.001383
    60  C    0.018844
    61  C   -0.013265
    62  C   -0.088883
    63  C   -0.042911
    64  C    0.136232
    65  H    0.019592
    66  H   -0.013421
    67  H   -0.019778
    68  H   -0.021542
    69  H   -0.006043
    70  H    0.039120
    71  H    0.023580
    72  H    0.049587
    73  H    0.014535
    74  H   -0.047348
    75  H    0.029594
    76  H    0.059737
    77  H    0.051288
    78  H    0.030196
    79  H    0.011034
    80  H   -0.013155
    81  H    0.016799
    82  H    0.030689
    83  H    0.013421
    84  H    0.039671
    85  H   -0.056929
    86  H   -0.007405
    87  H   -0.027226
    88  H    0.025790
    89  H   -0.011141
    90  H    0.012774
    91  H    0.016218
    92  H    0.036780
    93  H    0.033769
    94  H    0.043355
    95  H    0.053440
    96  H    0.033379
    97  H    0.050746
    98  H    0.023233
    99  H    0.023108
   100  H   -0.053771
   101  H    0.024370
   102  H    0.028947
   103  H    0.003786
   104  H   -0.031662
   105  H   -0.047293
   106  H    0.010074
   107  H    0.026573
   108  H   -0.007186
   109  H   -0.017577
   110  H   -0.047303
   111  H    0.022440
   112  H    0.031507
   113  H    0.000957
   114  H    0.001397
   115  H   -0.019993
   116  H    0.015478
   117  H    0.000116
   118  H    0.005540
   119  H    0.020185
   120  H    0.022613
   121  H    0.023270
   122  H    0.039960
   123  H    0.026008
   124  H   -0.007020
   125  H   -0.011088
   126  H   -0.017315
   127  H   -0.014704
   128  H    0.019361
   129  H    0.014077
   130  H   -0.005231
   131  H    0.022372
   132  H    0.023103
   133  H    0.009095
   134  H   -0.044525
   135  H    0.007877
   136  H   -0.003901
   137  H    0.224390
   138  H    0.131183
 Sum of Mulliken charges =   0.00000

 Dipole moment (field-independent basis, Debye):
    X=              2.8303    Y=              4.4759    Z=              1.5201  Tot=              5.5095
 Quadrupole moment (field-independent basis, Debye-Ang):
   XX=           -359.4638   YY=           -379.5630   ZZ=           -397.0800
   XY=            -30.6172   XZ=              5.8311   YZ=             -2.2081

 Normal termination of Gaussian 09 at Sat Aug  3 01:13:43 2019.
