 Gaussian 09, Revision D.01,
 Gaussian 09:  ES64L-G09RevD.01 24-Apr-2013

 --------------------------
 # td=(NStates=1) B3LYP/SVP
 --------------------------

 --
 TD
 --
 Symbolic Z-matrix:
 Charge =  0 Multiplicity = 1

                         Standard orientation:
 ---------------------------------------------------------------------
 Center     Atomic      Atomic             Coordinates (Angstroms)
 Number     Number       Type             X           Y           Z
 ---------------------------------------------------------------------
      1          6           0       -5.094636   -1.991590    0.447423
      2          6           0       -4.832063    2.752162    1.649158
      3          6           0       -9.237109    3.285980   -0.309695
      4          6           0       -9.790468   -1.455878   -1.054064
      5          7           0       -5.113094    0.448239    0.851506
      6          6           0       -4.542161   -0.748945    0.888510
      7          6           0       -3.034273   -0.625759    1.314037
      8          6           0       -3.003781    0.796124    1.917969
      9          6           0       -4.387087    1.403797    1.391391
     10          6           0       -2.935008    0.867182    3.458991
     11          6           0       -2.008934   -0.773554    0.187906
     12          6           0       -0.586295   -0.511249    0.579025
     13          6           0        0.388868   -0.929560   -0.629293
     14          8           0        0.089096   -1.279333   -1.753309
     15          8           0        1.665365   -0.864529   -0.150324
     16          7           0       -7.121998    2.700734    0.512564
     17          6           0       -5.990254    3.334973    1.180178
     18          6           0       -6.254611    4.740226    1.142697
     19          6           0       -7.533545    4.994950    0.626048
     20          6           0       -8.055778    3.657766    0.232046
     21          6           0       -5.279704    5.812412    1.601528
     22          6           0       -8.084637    6.265376    0.432277
     23          6           0       -9.026953    6.751074   -0.515267
     24          7           0       -9.190586    0.922754   -0.575323
     25          6           0       -9.835546    2.183051   -0.622039
     26          6           0      -11.316695    1.931852   -1.033507
     27          6           0      -11.403977    0.601970   -1.279293
     28          6           0      -10.140065    0.004189   -0.878619
     29          6           0      -12.368264    2.987309   -1.281895
     30          6           0      -12.644318   -0.256039   -1.794840
     31          6           0      -12.581367   -0.644552   -3.273060
     32          7           0       -7.457789   -1.267986   -0.232328
     33          6           0       -8.555519   -2.073657   -0.630852
     34          6           0       -8.220598   -3.422855   -0.752557
     35          6           0       -6.805246   -3.454266   -0.273234
     36          6           0       -6.426474   -2.194023    0.040430
     37          6           0       -8.979723   -4.589667   -1.228113
     38          6           0       -5.680642   -4.352480   -0.079741
     39          8           0       -5.579874   -5.512432   -0.178680
     40          6           0       -4.421572   -3.378841    0.522972
     41          6           0       -3.965539   -3.862237    1.887708
     42          8           0       -4.378182   -3.473297    2.955711
     43          8           0       -2.952940   -4.842572    1.588015
     44          6           0       -2.492922   -5.492244    2.781658
     45          6           0        2.640260   -1.183097   -1.226733
     46          6           0        3.970634   -0.675691   -0.632282
     47          6           0        4.942295    0.157218   -1.280815
     48          6           0        4.839820    0.718394   -2.502736
     49          6           0        6.229101    0.357545   -0.397800
     50          6           0        7.484399   -0.396954   -0.957310
     51          6           0        8.703254   -0.036307   -0.120599
     52          6           0       10.032116   -0.735867   -0.700460
     53          6           0        9.991086   -2.196474   -0.689818
     54          6           0       11.214359   -0.171934    0.138308
     55          6           0       12.532901   -0.406841   -0.505327
     56          6           0       13.773171    0.112280    0.305996
     57          6           0       15.210286   -0.196869   -0.274806
     58          6           0       15.682576   -1.665236   -0.220601
     59          6           0       16.219279    0.740808    0.482806
     60          6           0       17.586885    0.695070   -0.327437
     61          6           0       18.616943    1.493639    0.427648
     62          6           0       20.160542    1.572250   -0.130656
     63          6           0       20.242029    2.043220   -1.469145
     64          6           0       20.895894    2.350635    0.894646
     65          1           0       -4.396033    3.536194    2.259357
     66          1           0       -9.895181    4.048849   -0.713727
     67          1           0      -10.628336   -2.152165   -1.240153
     68          1           0       -3.018479   -1.350250    2.171817
     69          1           0       -2.225403    1.477136    1.285053
     70          1           0       -1.822404    0.608307    3.857638
     71          1           0       -3.034787    1.931919    3.909658
     72          1           0       -3.745533    0.110388    3.871066
     73          1           0       -1.780357   -1.913428   -0.062897
     74          1           0       -2.135321   -0.008334   -0.660198
     75          1           0       -0.362710    0.595018    1.141172
     76          1           0       -0.215756   -1.009158    1.449024
     77          1           0       -4.281670    5.774043    1.051556
     78          1           0       -5.617291    6.813656    1.325692
     79          1           0       -5.209541    5.832034    2.830646
     80          1           0       -7.869262    7.084432    1.135825
     81          1           0       -9.329033    6.090887   -1.352460
     82          1           0       -9.372780    7.896320   -0.378575
     83          1           0      -12.457745    3.583323   -0.286587
     84          1           0      -12.029235    3.434874   -2.161849
     85          1           0      -13.246700    2.404495   -1.356135
     86          1           0      -12.788780   -1.173706   -1.065635
     87          1           0      -13.585837    0.455044   -1.622393
     88          1           0      -12.899409    0.235014   -3.923895
     89          1           0      -11.433877   -1.008781   -3.537615
     90          1           0      -13.231744   -1.320534   -3.524846
     91          1           0      -10.070077   -4.772524   -0.839329
     92          1           0       -9.001468   -4.461604   -2.420885
     93          1           0       -8.497079   -5.635366   -1.125461
     94          1           0       -3.657997   -3.618887   -0.316762
     95          1           0       -1.540806   -6.046198    2.480832
     96          1           0       -2.270587   -4.745256    3.660233
     97          1           0       -3.452666   -6.111494    3.044797
     98          1           0        2.738507   -2.352005   -1.285890
     99          1           0        2.374926   -0.922400   -2.274041
    100          1           0        4.252831   -1.150889    0.330816
    101          1           0        5.152098    1.822366   -2.711806
    102          1           0        5.513810    0.372481   -3.154069
    103          1           0        3.810786    0.680830   -2.869720
    104          1           0        6.353299    1.467444   -0.121998
    105          1           0        5.740833    0.011486    0.777851
    106          1           0        7.181151   -1.350404   -0.900880
    107          1           0        7.756734   -0.065194   -1.915375
    108          1           0        9.155730    1.069373   -0.249438
    109          1           0        8.676592   -0.404689    0.878093
    110          1           0       10.311678   -0.543840   -1.595108
    111          1           0        9.093362   -2.762178   -1.466542
    112          1           0       11.123225   -2.820359   -0.866509
    113          1           0        9.693337   -2.671415    0.329420
    114          1           0       11.143450    0.924523    0.329567
    115          1           0       11.324128   -0.784104    1.072421
    116          1           0       12.844515   -1.559688   -0.594178
    117          1           0       12.688462    0.035541   -1.610078
    118          1           0       13.777973    1.222708    0.588010
    119          1           0       13.763638   -0.418105    1.293553
    120          1           0       15.266932    0.150858   -1.219707
    121          1           0       14.960026   -2.508494   -0.682158
    122          1           0       16.649738   -1.908809   -0.735349
    123          1           0       15.926533   -1.721262    0.965538
    124          1           0       16.036934    1.857470    0.315631
    125          1           0       16.353975    0.369727    1.627781
    126          1           0       17.980841   -0.587667   -0.165457
    127          1           0       17.565329    0.793838   -1.475358
    128          1           0       18.285608    2.519467    0.296188
    129          1           0       18.559113    1.139291    1.556079
    130          1           0       20.340539    0.413777   -0.153490
    131          1           0       19.971320    3.214764   -1.463588
    132          1           0       21.152785    1.914579   -1.789053
    133          1           0       19.529706    1.576843   -2.398828
    134          1           0       21.044671    1.980062    2.061998
    135          1           0       22.024891    2.645416    0.594693
    136          1           0       20.240171    3.423441    0.967571
    137          1           0       -7.171355    1.752854    0.551909
    138          1           0       -7.693984   -0.393491   -0.062268
 ---------------------------------------------------------------------

 SCF Done:  E(RB3LYP) =  -2732.92330694     A.U. after   17 cycles

 Excitation energies and oscillator strengths:

 Excited State   1:      Singlet-A      1.9367 eV  640.18 nm  f=0.1667  <S**2>=0.000
     235 -> 237       -0.19904
     235 -> 238       -0.26541
     236 -> 237        0.59787
     236 -> 238       -0.17651
 This state for optimization and/or second-order correction.
 Total Energy, E(TD-HF/TD-KS) =  -2732.85213430
 Copying the excited state density for this state as the 1-particle RhoCI density.

 The electronic state is 1-A.
 Alpha  occ. eigenvalues --  -19.17854 -19.17039 -19.13969 -19.13123 -19.12935
 Alpha  occ. eigenvalues --  -14.36395 -14.35556 -14.32142 -14.29879 -10.32085
 Alpha  occ. eigenvalues --  -10.31896 -10.28114 -10.25455 -10.25197 -10.24201
 Alpha  occ. eigenvalues --  -10.23665 -10.23627 -10.23440 -10.23407 -10.23128
 Alpha  occ. eigenvalues --  -10.22188 -10.22052 -10.21673 -10.21586 -10.21548
 Alpha  occ. eigenvalues --  -10.21527 -10.21380 -10.21369 -10.21353 -10.21225
 Alpha  occ. eigenvalues --  -10.21212 -10.21188 -10.21119 -10.21114 -10.21029
 Alpha  occ. eigenvalues --  -10.21008 -10.20944 -10.20887 -10.20608 -10.20546
 Alpha  occ. eigenvalues --  -10.20332 -10.20244 -10.20234 -10.20151 -10.20035
 Alpha  occ. eigenvalues --  -10.19892 -10.19660 -10.19616 -10.19519 -10.19430
 Alpha  occ. eigenvalues --  -10.19407 -10.19197 -10.19116 -10.18822 -10.18755
 Alpha  occ. eigenvalues --  -10.18683 -10.18654 -10.18649 -10.18571 -10.18448
 Alpha  occ. eigenvalues --  -10.18282 -10.18182 -10.18130 -10.17608  -1.08452
 Alpha  occ. eigenvalues --   -1.07190  -1.05555  -1.00880  -1.00256  -0.97148
 Alpha  occ. eigenvalues --   -0.96918  -0.95001  -0.92011  -0.84330  -0.82789
 Alpha  occ. eigenvalues --   -0.82401  -0.81832  -0.81473  -0.81395  -0.80658
 Alpha  occ. eigenvalues --   -0.80154  -0.79835  -0.78830  -0.78394  -0.76977
 Alpha  occ. eigenvalues --   -0.76091  -0.75475  -0.75061  -0.74648  -0.74340
 Alpha  occ. eigenvalues --   -0.73421  -0.72482  -0.71980  -0.71887  -0.70495
 Alpha  occ. eigenvalues --   -0.69376  -0.69117  -0.67990  -0.67231  -0.67107
 Alpha  occ. eigenvalues --   -0.66692  -0.65914  -0.65873  -0.64805  -0.64487
 Alpha  occ. eigenvalues --   -0.63718  -0.63001  -0.61561  -0.61124  -0.60692
 Alpha  occ. eigenvalues --   -0.59261  -0.58048  -0.57936  -0.56990  -0.56852
 Alpha  occ. eigenvalues --   -0.56670  -0.55454  -0.55292  -0.55131  -0.54910
 Alpha  occ. eigenvalues --   -0.54840  -0.54476  -0.53632  -0.53571  -0.53102
 Alpha  occ. eigenvalues --   -0.51814  -0.51708  -0.50843  -0.50601  -0.49802
 Alpha  occ. eigenvalues --   -0.49423  -0.48625  -0.48393  -0.48206  -0.47925
 Alpha  occ. eigenvalues --   -0.47885  -0.47723  -0.47222  -0.47085  -0.46778
 Alpha  occ. eigenvalues --   -0.46660  -0.46304  -0.46032  -0.45947  -0.45761
 Alpha  occ. eigenvalues --   -0.45564  -0.45297  -0.44954  -0.44220  -0.44165
 Alpha  occ. eigenvalues --   -0.44095  -0.43976  -0.43831  -0.43677  -0.43451
 Alpha  occ. eigenvalues --   -0.43229  -0.42983  -0.42870  -0.42576  -0.42374
 Alpha  occ. eigenvalues --   -0.42237  -0.41922  -0.41720  -0.41410  -0.41348
 Alpha  occ. eigenvalues --   -0.41138  -0.40866  -0.40493  -0.40342  -0.40273
 Alpha  occ. eigenvalues --   -0.40169  -0.39951  -0.39551  -0.39490  -0.39352
 Alpha  occ. eigenvalues --   -0.39004  -0.38697  -0.38566  -0.38554  -0.38200
 Alpha  occ. eigenvalues --   -0.37962  -0.37604  -0.37586  -0.37190  -0.37092
 Alpha  occ. eigenvalues --   -0.37003  -0.36857  -0.36697  -0.36566  -0.36529
 Alpha  occ. eigenvalues --   -0.36317  -0.36216  -0.36157  -0.35928  -0.35630
 Alpha  occ. eigenvalues --   -0.35551  -0.35087  -0.34915  -0.34740  -0.34738
 Alpha  occ. eigenvalues --   -0.34393  -0.34151  -0.33871  -0.33846  -0.33490
 Alpha  occ. eigenvalues --   -0.33329  -0.32894  -0.32722  -0.32561  -0.32095
 Alpha  occ. eigenvalues --   -0.31832  -0.31803  -0.31334  -0.31107  -0.31049
 Alpha  occ. eigenvalues --   -0.30850  -0.30813  -0.30022  -0.29878  -0.29449
 Alpha  occ. eigenvalues --   -0.29371  -0.29198  -0.28572  -0.28359  -0.28291
 Alpha  occ. eigenvalues --   -0.26772  -0.26662  -0.26369  -0.25537  -0.25471
 Alpha  occ. eigenvalues --   -0.24649  -0.23567  -0.23233  -0.23096  -0.19940
 Alpha  occ. eigenvalues --   -0.18668
 Alpha virt. eigenvalues --   -0.10786  -0.07950  -0.04712  -0.02245  -0.01326
 Alpha virt. eigenvalues --   -0.01142  -0.00120   0.00526   0.02637   0.02849
 Alpha virt. eigenvalues --    0.03677   0.03999   0.04067   0.04260   0.04639

 Mulliken charges:
               1
     1  C    0.032745
     2  C   -0.025565
     3  C   -0.032022
     4  C   -0.038779
     5  N   -0.099341
     6  C   -0.114806
     7  C   -0.007882
     8  C   -0.094954
     9  C   -0.001194
    10  C   -0.011955
    11  C    0.085165
    12  C   -0.071271
    13  C    0.209523
    14  O   -0.231150
    15  O   -0.317592
    16  N   -0.053295
    17  C    0.053552
    18  C   -0.124397
    19  C    0.162166
    20  C    0.117797
    21  C    0.037450
    22  C   -0.145554
    23  C   -0.077616
    24  N   -0.271797
    25  C   -0.012081
    26  C   -0.178873
    27  C   -0.068765
    28  C    0.027229
    29  C    0.174258
    30  C   -0.028148
    31  C    0.046949
    32  N   -0.017266
    33  C    0.046068
    34  C   -0.069298
    35  C   -0.003303
    36  C    0.134647
    37  C   -0.015146
    38  C    0.006121
    39  O   -0.108626
    40  C   -0.118651
    41  C    0.265262
    42  O   -0.203879
    43  O   -0.357965
    44  C    0.123351
    45  C    0.209653
    46  C   -0.083910
    47  C   -0.138854
    48  C    0.139409
    49  C   -0.064167
    50  C    0.176246
    51  C    0.019341
    52  C    0.058610
    53  C   -0.139064
    54  C    0.058049
    55  C   -0.065415
    56  C    0.022021
    57  C    0.018448
    58  C   -0.045881
    59  C   -0.049030
    60  C   -0.101485
    61  C    0.011639
    62  C   -0.050545
    63  C    0.036825
    64  C   -0.069303
    65  H   -0.024943
    66  H   -0.050136
    67  H   -0.006213
    68  H    0.013809
    69  H    0.030964
    70  H    0.028377
    71  H    0.032455
    72  H    0.060862
    73  H    0.046783
    74  H    0.041023
    75  H    0.037725
    76  H    0.008678
    77  H    0.045305
    78  H    0.008367
    79  H    0.056193
    80  H    0.012161
    81  H    0.039161
    82  H    0.054964
    83  H    0.038969
    84  H    0.032339
    85  H   -0.014206
    86  H    0.032877
    87  H    0.014726
    88  H    0.014905
    89  H    0.043525
    90  H   -0.026757
    91  H    0.050797
    92  H    0.051267
    93  H    0.052744
    94  H    0.076738
    95  H    0.051689
    96  H    0.046454
    97  H    0.049322
    98  H    0.031732
    99  H    0.045365
   100  H    0.010695
   101  H    0.005681
   102  H   -0.018818
   103  H    0.012456
   104  H    0.016435
   105  H    0.014425
   106  H   -0.023914
   107  H   -0.009749
   108  H    0.023109
   109  H   -0.004177
   110  H   -0.069827
   111  H    0.031696
   112  H    0.035000
   113  H    0.012047
   114  H    0.004042
   115  H   -0.002139
   116  H    0.015182
   117  H    0.004719
   118  H   -0.002508
   119  H   -0.018280
   120  H   -0.052221
   121  H    0.036845
   122  H    0.029197
   123  H    0.018439
   124  H    0.018263
   125  H    0.034460
   126  H   -0.008011
   127  H    0.030040
   128  H   -0.021420
   129  H    0.020738
   130  H    0.005863
   131  H    0.008528
   132  H   -0.026646
   133  H    0.031454
   134  H    0.044149
   135  H    0.024441
   136  H    0.022931
   137  H    0.097223
   138  H    0.057932
 Sum of Mulliken charges =   0.00000

 Dipole moment (field-independent basis, Debye):
    X=              1.4924    Y=              4.4208    Z=             -0.0970  Tot=              4.6669
 Quadrupole moment (field-independent basis, Debye-Ang):
   XX=           -338.9956   YY=           -382.7764   ZZ=           -393.1989
   XY=            -16.9907   XZ=              1.4306   YZ=              1.1817

 Normal termination of Gaussian 09 at Sun Aug  4 00:40:21 2019.
