 Gaussian 09, Revision D.01,
 Gaussian 09:  ES64L-G09RevD.01 24-Apr-2013

 --------------------------
 # td=(NStates=1) B3LYP/SVP
 --------------------------

 --
 TD
 --
 Symbolic Z-matrix:
 Charge =  0 Multiplicity = 1

                         Standard orientation:
 ---------------------------------------------------------------------
 Center     Atomic      Atomic             Coordinates (Angstroms)
 Number     Number       Type             X           Y           Z
 ---------------------------------------------------------------------
      1          6           0       -5.156666   -1.952215    0.441823
      2          6           0       -4.718763    2.797321    1.224357
      3          6           0       -9.357496    3.366412   -0.097580
      4          6           0       -9.823443   -1.372988   -0.945346
      5          7           0       -5.152769    0.450442    0.743691
      6          6           0       -4.493127   -0.741849    0.745297
      7          6           0       -3.065106   -0.615230    1.148439
      8          6           0       -3.029237    0.928571    1.628488
      9          6           0       -4.307715    1.453477    1.184342
     10          6           0       -2.840556    0.788722    3.231674
     11          6           0       -2.060254   -0.830000    0.006138
     12          6           0       -0.626951   -0.762118    0.459631
     13          6           0        0.345570   -1.014510   -0.664287
     14          8           0        0.035709   -1.207569   -1.811207
     15          8           0        1.568827   -0.989852   -0.194931
     16          7           0       -7.069133    2.747376    0.374614
     17          6           0       -5.913581    3.374261    0.885581
     18          6           0       -6.256903    4.744436    1.044049
     19          6           0       -7.531006    5.009581    0.662781
     20          6           0       -8.024307    3.697150    0.209672
     21          6           0       -5.156015    5.744416    1.643222
     22          6           0       -8.257173    6.308818    0.630327
     23          6           0       -9.045917    6.723193   -0.421233
     24          7           0       -9.176293    1.023746   -0.559383
     25          6           0       -9.860401    2.119549   -0.529919
     26          6           0      -11.216996    1.861018   -0.960005
     27          6           0      -11.345103    0.569032   -1.163950
     28          6           0      -10.039365   -0.033345   -0.818885
     29          6           0      -12.209648    3.002885   -1.157116
     30          6           0      -12.690043   -0.085910   -1.642125
     31          6           0      -12.652521   -0.567847   -3.110015
     32          7           0       -7.557314   -1.241034   -0.191675
     33          6           0       -8.613650   -1.991870   -0.735009
     34          6           0       -8.208031   -3.339038   -0.651620
     35          6           0       -6.911535   -3.394632   -0.145945
     36          6           0       -6.478932   -2.089731    0.023985
     37          6           0       -9.142000   -4.550603   -1.002751
     38          6           0       -5.779804   -4.333547    0.125609
     39          8           0       -5.806228   -5.525530    0.122377
     40          6           0       -4.521004   -3.303698    0.403442
     41          6           0       -3.909360   -3.759332    1.753789
     42          8           0       -4.216842   -3.522856    2.912996
     43          8           0       -2.954805   -4.772480    1.446135
     44          6           0       -2.405009   -5.416192    2.583620
     45          6           0        2.643031   -1.157532   -1.201874
     46          6           0        3.937480   -0.810293   -0.564910
     47          6           0        5.027840   -0.119474   -1.027162
     48          6           0        4.875316    0.486994   -2.505541
     49          6           0        6.246311    0.108920   -0.243121
     50          6           0        7.460030   -0.472900   -0.893030
     51          6           0        8.752374   -0.278661   -0.045802
     52          6           0       10.059731   -0.850458   -0.681699
     53          6           0       10.044203   -2.305197   -0.760996
     54          6           0       11.355691   -0.241250    0.138724
     55          6           0       12.670538   -0.658277   -0.410476
     56          6           0       13.857118   -0.015518    0.239502
     57          6           0       15.289852   -0.288955   -0.427378
     58          6           0       15.667245   -1.788441   -0.151682
     59          6           0       16.267500    0.614169    0.382994
     60          6           0       17.639637    0.783205   -0.301403
     61          6           0       18.652488    1.728724    0.447195
     62          6           0       20.082330    1.776589   -0.084363
     63          6           0       20.113259    2.607186   -1.377701
     64          6           0       20.922038    2.534051    1.019251
     65          1           0       -3.904887    3.342965    1.432775
     66          1           0      -10.071273    4.323609   -0.138958
     67          1           0      -10.686549   -2.130959   -1.130979
     68          1           0       -2.719733   -1.136085    1.899672
     69          1           0       -2.191915    1.383703    1.264394
     70          1           0       -1.882319    0.425238    3.441331
     71          1           0       -2.953233    1.751337    3.742645
     72          1           0       -3.657727    0.157987    3.618200
     73          1           0       -2.157564   -1.852537   -0.592508
     74          1           0       -2.060559   -0.044146   -0.956949
     75          1           0       -0.126181    0.120647    1.133291
     76          1           0       -0.502342   -1.647610    0.973293
     77          1           0       -4.142700    5.941968    1.156577
     78          1           0       -5.632486    6.676741    1.447534
     79          1           0       -5.147212    5.661055    2.839030
     80          1           0       -7.891820    7.040017    1.439867
     81          1           0       -9.239566    6.272067   -1.345967
     82          1           0       -9.330963    7.736603   -0.270004
     83          1           0      -12.365791    3.668068   -0.118075
     84          1           0      -12.044991    3.786841   -1.845092
     85          1           0      -13.098506    2.599646   -1.153144
     86          1           0      -12.989623   -1.088511   -1.209134
     87          1           0      -13.450509    0.647155   -1.436470
     88          1           0      -13.122064    0.427016   -3.683072
     89          1           0      -11.678154   -1.091399   -3.505561
     90          1           0      -13.487041   -1.142039   -3.154970
     91          1           0       -9.916050   -4.361570   -0.343243
     92          1           0       -9.410361   -4.703488   -2.270557
     93          1           0       -8.701846   -5.541560   -0.882243
     94          1           0       -3.752810   -3.577551   -0.404915
     95          1           0       -1.603042   -6.237019    2.508453
     96          1           0       -1.756216   -4.596242    3.150120
     97          1           0       -3.130249   -5.779897    3.499986
     98          1           0        2.485165   -2.255339   -1.605893
     99          1           0        2.357240   -0.602634   -1.951197
    100          1           0        3.838122   -1.153112    0.416190
    101          1           0        5.258100    1.422750   -2.545135
    102          1           0        5.444569   -0.074262   -3.300552
    103          1           0        3.917953    0.578314   -2.843050
    104          1           0        6.516547    1.338945    0.091407
    105          1           0        6.099218   -0.544561    0.635565
    106          1           0        7.228809   -1.696295   -0.901292
    107          1           0        7.606618   -0.125329   -1.948546
    108          1           0        8.971410    0.749099    0.195969
    109          1           0        8.682083   -0.950815    0.927035
    110          1           0        9.908880   -0.546567   -1.718252
    111          1           0        8.872209   -2.794171   -1.012018
    112          1           0       10.703898   -2.876491   -1.762151
    113          1           0       10.227524   -2.788428    0.352272
    114          1           0       11.300307    0.872233    0.257827
    115          1           0       11.230752   -0.469205    1.236524
    116          1           0       12.918367   -1.806183   -0.694602
    117          1           0       12.589105   -0.139166   -1.369579
    118          1           0       13.659782    1.174160    0.073933
    119          1           0       13.694340   -0.275791    1.246068
    120          1           0       15.194232   -0.021946   -1.413902
    121          1           0       14.956290   -2.349347   -0.765757
    122          1           0       16.651237   -1.898597   -0.730540
    123          1           0       15.863219   -2.107921    0.897115
    124          1           0       15.910254    1.664448    0.669563
    125          1           0       16.455609    0.270395    1.339526
    126          1           0       17.891421   -0.245523   -0.104080
    127          1           0       17.599677    1.150508   -1.263422
    128          1           0       18.363283    2.680156    0.556205
    129          1           0       18.822747    1.376970    1.503215
    130          1           0       20.713443    0.841129   -0.035084
    131          1           0       19.473871    3.555278   -1.183730
    132          1           0       21.109927    2.735151   -1.777198
    133          1           0       19.647383    1.850171   -2.000631
    134          1           0       20.951194    1.935510    1.864384
    135          1           0       22.028381    2.556564    0.742633
    136          1           0       20.596632    3.580005    1.197736
    137          1           0       -7.125753    1.801274    0.148523
    138          1           0       -7.704264   -0.083246   -0.150117
 ---------------------------------------------------------------------

 SCF Done:  E(RB3LYP) =  -2733.01860071     A.U. after   17 cycles

 Excitation energies and oscillator strengths:

 Excited State   1:      Singlet-A      2.1153 eV  586.13 nm  f=0.1700  <S**2>=0.000
     235 -> 237       -0.13313
     235 -> 238       -0.30390
     236 -> 237        0.61633
 This state for optimization and/or second-order correction.
 Total Energy, E(TD-HF/TD-KS) =  -2732.94086448
 Copying the excited state density for this state as the 1-particle RhoCI density.

 The electronic state is 1-A.
 Alpha  occ. eigenvalues --  -19.17906 -19.17502 -19.13397 -19.13147 -19.11891
 Alpha  occ. eigenvalues --  -14.36815 -14.35998 -14.32094 -14.30452 -10.32239
 Alpha  occ. eigenvalues --  -10.30840 -10.28629 -10.25456 -10.24775 -10.24157
 Alpha  occ. eigenvalues --  -10.23690 -10.22801 -10.22689 -10.22643 -10.22597
 Alpha  occ. eigenvalues --  -10.22579 -10.22196 -10.21944 -10.21637 -10.21497
 Alpha  occ. eigenvalues --  -10.21266 -10.21125 -10.21057 -10.21029 -10.20990
 Alpha  occ. eigenvalues --  -10.20942 -10.20918 -10.20585 -10.20441 -10.20368
 Alpha  occ. eigenvalues --  -10.20300 -10.20271 -10.20171 -10.20145 -10.19854
 Alpha  occ. eigenvalues --  -10.19720 -10.19569 -10.19556 -10.19439 -10.19388
 Alpha  occ. eigenvalues --  -10.19330 -10.19277 -10.19176 -10.18897 -10.18826
 Alpha  occ. eigenvalues --  -10.18758 -10.18597 -10.18530 -10.18346 -10.18345
 Alpha  occ. eigenvalues --  -10.18279 -10.18181 -10.18175 -10.17821 -10.17630
 Alpha  occ. eigenvalues --  -10.17452 -10.17112 -10.17079 -10.16938  -1.10344
 Alpha  occ. eigenvalues --   -1.07516  -1.04273  -1.00809  -0.99840  -0.98396
 Alpha  occ. eigenvalues --   -0.96641  -0.95067  -0.93711  -0.84816  -0.83031
 Alpha  occ. eigenvalues --   -0.82158  -0.81883  -0.81533  -0.80936  -0.80777
 Alpha  occ. eigenvalues --   -0.79762  -0.79672  -0.79265  -0.78676  -0.78174
 Alpha  occ. eigenvalues --   -0.76995  -0.76426  -0.75604  -0.75254  -0.74670
 Alpha  occ. eigenvalues --   -0.73529  -0.72919  -0.72442  -0.72128  -0.70333
 Alpha  occ. eigenvalues --   -0.69818  -0.69202  -0.68642  -0.67892  -0.67582
 Alpha  occ. eigenvalues --   -0.67024  -0.66668  -0.66023  -0.65803  -0.65244
 Alpha  occ. eigenvalues --   -0.64605  -0.63627  -0.61817  -0.61253  -0.61041
 Alpha  occ. eigenvalues --   -0.60863  -0.59034  -0.58575  -0.58444  -0.57382
 Alpha  occ. eigenvalues --   -0.57299  -0.56868  -0.56310  -0.55925  -0.55347
 Alpha  occ. eigenvalues --   -0.54708  -0.54535  -0.54308  -0.53628  -0.52961
 Alpha  occ. eigenvalues --   -0.52915  -0.52368  -0.51756  -0.50558  -0.50334
 Alpha  occ. eigenvalues --   -0.49794  -0.49551  -0.48944  -0.48234  -0.47969
 Alpha  occ. eigenvalues --   -0.47773  -0.47651  -0.47310  -0.47159  -0.47044
 Alpha  occ. eigenvalues --   -0.46903  -0.46606  -0.46486  -0.46231  -0.46021
 Alpha  occ. eigenvalues --   -0.45538  -0.45375  -0.44970  -0.44689  -0.44605
 Alpha  occ. eigenvalues --   -0.44270  -0.44152  -0.44000  -0.43937  -0.43776
 Alpha  occ. eigenvalues --   -0.43704  -0.43016  -0.42917  -0.42705  -0.42584
 Alpha  occ. eigenvalues --   -0.42289  -0.42076  -0.41883  -0.41641  -0.41480
 Alpha  occ. eigenvalues --   -0.41301  -0.40933  -0.40842  -0.40579  -0.40335
 Alpha  occ. eigenvalues --   -0.40229  -0.40164  -0.39870  -0.39694  -0.39499
 Alpha  occ. eigenvalues --   -0.39306  -0.39126  -0.39021  -0.38721  -0.38595
 Alpha  occ. eigenvalues --   -0.38530  -0.38361  -0.38345  -0.38047  -0.37823
 Alpha  occ. eigenvalues --   -0.37750  -0.37490  -0.37215  -0.37206  -0.37047
 Alpha  occ. eigenvalues --   -0.36799  -0.36556  -0.36308  -0.36086  -0.35774
 Alpha  occ. eigenvalues --   -0.35632  -0.35403  -0.35198  -0.35071  -0.34551
 Alpha  occ. eigenvalues --   -0.34322  -0.34299  -0.33992  -0.33930  -0.33708
 Alpha  occ. eigenvalues --   -0.33517  -0.33202  -0.33185  -0.32766  -0.32415
 Alpha  occ. eigenvalues --   -0.32316  -0.31684  -0.31545  -0.31386  -0.31203
 Alpha  occ. eigenvalues --   -0.31105  -0.30458  -0.30171  -0.29955  -0.29456
 Alpha  occ. eigenvalues --   -0.29019  -0.29008  -0.28729  -0.28311  -0.27808
 Alpha  occ. eigenvalues --   -0.27664  -0.27099  -0.26763  -0.26383  -0.25579
 Alpha  occ. eigenvalues --   -0.25230  -0.25158  -0.25010  -0.23512  -0.19947
 Alpha  occ. eigenvalues --   -0.18957
 Alpha virt. eigenvalues --   -0.10074  -0.07545  -0.04203  -0.02841  -0.01814
 Alpha virt. eigenvalues --   -0.01059   0.00488   0.01367   0.02115   0.02801
 Alpha virt. eigenvalues --    0.03809   0.04370   0.04674   0.04734   0.04985

 Mulliken charges:
               1
     1  C    0.041785
     2  C   -0.020052
     3  C   -0.117228
     4  C   -0.167388
     5  N   -0.186891
     6  C   -0.024165
     7  C    0.079585
     8  C    0.002249
     9  C   -0.018748
    10  C    0.067757
    11  C   -0.067086
    12  C    0.050284
    13  C    0.125020
    14  O   -0.239380
    15  O   -0.317026
    16  N   -0.030569
    17  C    0.189226
    18  C   -0.133916
    19  C    0.016086
    20  C    0.051033
    21  C    0.061068
    22  C   -0.072242
    23  C    0.016779
    24  N   -0.220543
    25  C    0.047797
    26  C   -0.127398
    27  C   -0.073622
    28  C    0.119698
    29  C    0.170698
    30  C    0.038250
    31  C   -0.000870
    32  N   -0.187251
    33  C    0.108290
    34  C   -0.166185
    35  C    0.000103
    36  C    0.131318
    37  C    0.054002
    38  C    0.083890
    39  O   -0.127236
    40  C   -0.120352
    41  C    0.233782
    42  O   -0.214129
    43  O   -0.329911
    44  C    0.108097
    45  C    0.333433
    46  C   -0.087367
    47  C   -0.105626
    48  C    0.127843
    49  C    0.084559
    50  C   -0.073933
    51  C    0.019358
    52  C   -0.003978
    53  C   -0.128795
    54  C    0.020999
    55  C    0.046260
    56  C   -0.025951
    57  C   -0.001194
    58  C    0.027077
    59  C    0.028808
    60  C    0.121495
    61  C    0.057671
    62  C   -0.156157
    63  C    0.069470
    64  C    0.025125
    65  H   -0.083259
    66  H    0.015572
    67  H    0.018376
    68  H   -0.057982
    69  H   -0.037390
    70  H    0.008084
    71  H    0.002657
    72  H    0.035644
    73  H    0.039977
    74  H    0.033893
    75  H    0.060434
    76  H   -0.003685
    77  H    0.049878
    78  H   -0.013268
    79  H    0.050522
    80  H    0.037108
    81  H    0.028607
    82  H    0.021623
    83  H    0.008092
    84  H    0.019840
    85  H   -0.061365
    86  H    0.003038
    87  H    0.000216
    88  H    0.009248
    89  H    0.062347
    90  H   -0.019067
    91  H    0.027344
    92  H    0.044526
    93  H    0.030748
    94  H    0.079677
    95  H    0.046869
    96  H    0.009636
    97  H    0.053152
    98  H    0.042665
    99  H   -0.050488
   100  H   -0.023897
   101  H   -0.019384
   102  H    0.026612
   103  H   -0.022201
   104  H    0.034884
   105  H   -0.002432
   106  H    0.028291
   107  H    0.014482
   108  H   -0.006003
   109  H    0.003346
   110  H   -0.017074
   111  H    0.025975
   112  H    0.044585
   113  H    0.028525
   114  H   -0.009144
   115  H   -0.015366
   116  H    0.025122
   117  H   -0.022461
   118  H    0.002968
   119  H   -0.019409
   120  H   -0.034196
   121  H    0.009236
   122  H    0.010998
   123  H    0.033065
   124  H   -0.021708
   125  H   -0.041624
   126  H   -0.016973
   127  H   -0.019322
   128  H   -0.048590
   129  H   -0.022946
   130  H    0.001296
   131  H    0.025446
   132  H    0.003258
   133  H    0.002105
   134  H   -0.015012
   135  H   -0.004599
   136  H    0.004860
   137  H    0.101003
   138  H    0.229303
 Sum of Mulliken charges =   0.00000

 Dipole moment (field-independent basis, Debye):
    X=              2.8677    Y=              5.5253    Z=             -0.0123  Tot=              6.2252
 Quadrupole moment (field-independent basis, Debye-Ang):
   XX=           -352.6686   YY=           -382.3687   ZZ=           -399.0417
   XY=            -34.8612   XZ=              8.5168   YZ=              3.0447

 Normal termination of Gaussian 09 at Sat Aug  3 00:48:51 2019.
