 Gaussian 09, Revision D.01,
 Gaussian 09:  ES64L-G09RevD.01 24-Apr-2013

 --------------------------
 # td=(NStates=1) B3LYP/SVP
 --------------------------

 --
 TD
 --
 Symbolic Z-matrix:
 Charge =  0 Multiplicity = 1

                         Standard orientation:
 ---------------------------------------------------------------------
 Center     Atomic      Atomic             Coordinates (Angstroms)
 Number     Number       Type             X           Y           Z
 ---------------------------------------------------------------------
      1          6           0       -5.136310   -1.970188    0.566780
      2          6           0       -4.876457    2.869774    1.362972
      3          6           0       -9.365714    3.212276   -0.221258
      4          6           0       -9.753491   -1.554737   -0.793003
      5          7           0       -5.171684    0.541446    0.745986
      6          6           0       -4.553973   -0.696610    0.892269
      7          6           0       -3.037342   -0.401710    1.273182
      8          6           0       -3.112780    0.971576    1.897344
      9          6           0       -4.456908    1.452840    1.256439
     10          6           0       -3.027436    0.908150    3.485681
     11          6           0       -2.040316   -0.774741    0.189471
     12          6           0       -0.570740   -0.587708    0.581161
     13          6           0        0.352821   -0.892147   -0.590109
     14          8           0        0.072764   -1.299436   -1.707246
     15          8           0        1.675740   -0.534265   -0.314124
     16          7           0       -6.996932    2.696852    0.251397
     17          6           0       -6.043375    3.392547    0.794460
     18          6           0       -6.392634    4.726987    1.056100
     19          6           0       -7.599138    4.968598    0.425918
     20          6           0       -8.139600    3.655474    0.087747
     21          6           0       -5.381171    5.811123    1.526251
     22          6           0       -8.421879    6.217797    0.488101
     23          6           0       -9.193343    6.607881   -0.546340
     24          7           0       -9.260893    0.743768   -0.425226
     25          6           0       -9.923843    1.893874   -0.572780
     26          6           0      -11.267148    1.749602   -0.993916
     27          6           0      -11.471042    0.389327   -1.184774
     28          6           0      -10.112519   -0.234215   -0.851287
     29          6           0      -12.403249    2.847148   -1.229177
     30          6           0      -12.703159   -0.377739   -1.690397
     31          6           0      -12.655330   -0.931482   -3.101351
     32          7           0       -7.444782   -1.388711   -0.087018
     33          6           0       -8.583796   -2.126900   -0.435064
     34          6           0       -8.117630   -3.532568   -0.592426
     35          6           0       -6.768147   -3.489215   -0.285255
     36          6           0       -6.389405   -2.131717    0.033015
     37          6           0       -8.899163   -4.784607   -0.914097
     38          6           0       -5.627315   -4.275472    0.116304
     39          8           0       -5.449175   -5.462296   -0.005943
     40          6           0       -4.407552   -3.279160    0.515241
     41          6           0       -3.823195   -3.700886    1.859457
     42          8           0       -4.176757   -3.344728    2.950033
     43          8           0       -2.942692   -4.629437    1.616851
     44          6           0       -2.239805   -5.265128    2.849174
     45          6           0        2.633866   -0.784494   -1.385443
     46          6           0        3.893221   -0.470815   -0.835662
     47          6           0        5.004468    0.303852   -1.286074
     48          6           0        5.009418    1.006534   -2.584327
     49          6           0        6.247427    0.324074   -0.473666
     50          6           0        7.456006   -0.260766   -1.143682
     51          6           0        8.717724   -0.071480   -0.305414
     52          6           0       10.003343   -0.658978   -0.877635
     53          6           0        9.972231   -2.190025   -1.120719
     54          6           0       11.287540   -0.242427   -0.033290
     55          6           0       12.672332   -0.501615   -0.776880
     56          6           0       13.815468    0.051724    0.056716
     57          6           0       15.235980   -0.224024   -0.411168
     58          6           0       15.665345   -1.672677   -0.531948
     59          6           0       16.280399    0.575881    0.441150
     60          6           0       17.655883    0.662286   -0.088801
     61          6           0       18.686785    1.472654    0.736642
     62          6           0       20.126483    1.431164    0.452211
     63          6           0       20.323981    1.974154   -1.081742
     64          6           0       20.966893    2.216439    1.408051
     65          1           0       -4.086305    3.537670    1.967054
     66          1           0      -10.290880    3.887281   -0.077376
     67          1           0      -10.518675   -2.145980   -1.237448
     68          1           0       -2.954779   -1.278012    2.164368
     69          1           0       -2.183632    1.754864    1.565343
     70          1           0       -1.984152    0.633038    3.668526
     71          1           0       -3.263112    1.856824    3.943111
     72          1           0       -3.623662    0.122261    3.856065
     73          1           0       -2.307474   -1.728384   -0.319642
     74          1           0       -2.210109    0.090947   -0.648541
     75          1           0       -0.246255    0.459571    0.776730
     76          1           0       -0.337613   -1.491868    1.304024
     77          1           0       -4.430379    5.696047    0.938420
     78          1           0       -5.784582    6.883831    1.492969
     79          1           0       -5.015273    5.675596    2.672660
     80          1           0       -7.916621    6.952517    1.278798
     81          1           0       -9.693760    6.055707   -1.267300
     82          1           0       -9.753279    7.617435   -0.515529
     83          1           0      -12.521650    3.577159   -0.220764
     84          1           0      -12.232376    3.410057   -2.238285
     85          1           0      -13.385592    2.360697   -1.383047
     86          1           0      -12.583496   -1.327223   -0.812081
     87          1           0      -13.664371    0.217018   -1.586202
     88          1           0      -12.481627    0.001592   -3.686328
     89          1           0      -11.972359   -1.683083   -3.160257
     90          1           0      -13.861664   -1.262792   -3.200921
     91          1           0       -9.897541   -4.643147   -0.199251
     92          1           0       -9.082209   -4.737362   -2.075394
     93          1           0       -8.288593   -5.764091   -0.792295
     94          1           0       -3.553693   -3.471075   -0.038482
     95          1           0       -1.447498   -5.869904    2.399603
     96          1           0       -1.795884   -4.586644    3.519739
     97          1           0       -2.846341   -5.739176    3.264585
     98          1           0        2.607188   -1.892531   -1.672760
     99          1           0        2.224602   -0.150186   -2.316628
    100          1           0        4.123288   -1.038176    0.010292
    101          1           0        5.648328    1.852280   -2.413430
    102          1           0        5.564021    0.476464   -3.239444
    103          1           0        3.986307    1.477531   -2.982358
    104          1           0        6.662965    1.162352   -0.060596
    105          1           0        6.047381   -0.073339    0.497795
    106          1           0        7.148235   -1.387539   -1.287775
    107          1           0        7.398252    0.202449   -2.214215
    108          1           0        8.830312    1.098444   -0.125482
    109          1           0        8.521049   -0.729640    0.768295
    110          1           0       10.266575   -0.216267   -1.956525
    111          1           0        9.141537   -2.674041   -1.766239
    112          1           0       11.037656   -2.715731   -1.230280
    113          1           0        9.676321   -2.620444   -0.215905
    114          1           0       11.307113    0.864716   -0.054303
    115          1           0       11.224312   -0.586323    0.944965
    116          1           0       12.766492   -1.562431   -0.790929
    117          1           0       12.674859   -0.281445   -1.800095
    118          1           0       13.648608    1.098457    0.327384
    119          1           0       13.717928   -0.429042    1.114323
    120          1           0       15.528833    0.112567   -1.462086
    121          1           0       15.010531   -2.318895   -1.145794
    122          1           0       16.686794   -2.007060   -0.811889
    123          1           0       15.627845   -2.106887    0.464259
    124          1           0       15.932769    1.683548    0.566653
    125          1           0       16.301332    0.136720    1.456750
    126          1           0       17.969638   -0.238919   -0.519855
    127          1           0       17.583292    1.080297   -1.008001
    128          1           0       18.242706    2.538827    0.523160
    129          1           0       18.397236    1.475686    1.938914
    130          1           0       20.599798    0.411622    0.474349
    131          1           0       19.942589    2.937609   -1.172136
    132          1           0       21.363791    1.939418   -1.496079
    133          1           0       19.785015    1.220747   -1.759920
    134          1           0       20.762585    1.874315    2.386775
    135          1           0       22.169506    2.153044    1.169601
    136          1           0       20.527030    3.308980    1.135579
    137          1           0       -7.232290    1.567587    0.254662
    138          1           0       -7.602165   -0.355348   -0.081310
 ---------------------------------------------------------------------

 SCF Done:  E(RB3LYP) =  -2733.02073921     A.U. after   17 cycles

 Excitation energies and oscillator strengths:

 Excited State   1:      Singlet-A      2.1534 eV  575.75 nm  f=0.0856  <S**2>=0.000
     235 -> 237        0.11687
     235 -> 238        0.36624
     236 -> 237        0.57552
     236 -> 238       -0.12975
 This state for optimization and/or second-order correction.
 Total Energy, E(TD-HF/TD-KS) =  -2732.94160147
 Copying the excited state density for this state as the 1-particle RhoCI density.

 The electronic state is 1-A.
 Alpha  occ. eigenvalues --  -19.17966 -19.16436 -19.12358 -19.11563 -19.11215
 Alpha  occ. eigenvalues --  -14.37113 -14.36573 -14.32002 -14.30216 -10.31304
 Alpha  occ. eigenvalues --  -10.30409 -10.27339 -10.24917 -10.23815 -10.23648
 Alpha  occ. eigenvalues --  -10.23583 -10.23266 -10.23259 -10.23014 -10.22946
 Alpha  occ. eigenvalues --  -10.22307 -10.22181 -10.22166 -10.22163 -10.21898
 Alpha  occ. eigenvalues --  -10.21820 -10.21778 -10.21548 -10.21421 -10.21392
 Alpha  occ. eigenvalues --  -10.21256 -10.21195 -10.21018 -10.20916 -10.20609
 Alpha  occ. eigenvalues --  -10.20586 -10.20510 -10.20455 -10.20133 -10.20068
 Alpha  occ. eigenvalues --  -10.20006 -10.19877 -10.19800 -10.19611 -10.19547
 Alpha  occ. eigenvalues --  -10.19490 -10.19463 -10.19366 -10.19241 -10.19210
 Alpha  occ. eigenvalues --  -10.18917 -10.18764 -10.18627 -10.18556 -10.18498
 Alpha  occ. eigenvalues --  -10.18489 -10.18378 -10.18257 -10.18163 -10.17945
 Alpha  occ. eigenvalues --  -10.17649 -10.17611 -10.17313 -10.16308  -1.09366
 Alpha  occ. eigenvalues --   -1.07428  -1.02547  -0.99825  -0.99363  -0.99068
 Alpha  occ. eigenvalues --   -0.97336  -0.95302  -0.93845  -0.84897  -0.83037
 Alpha  occ. eigenvalues --   -0.82154  -0.81745  -0.81035  -0.80867  -0.80672
 Alpha  occ. eigenvalues --   -0.79751  -0.79664  -0.78958  -0.78615  -0.77764
 Alpha  occ. eigenvalues --   -0.76695  -0.76405  -0.75734  -0.75443  -0.74330
 Alpha  occ. eigenvalues --   -0.74293  -0.73590  -0.72469  -0.72292  -0.70448
 Alpha  occ. eigenvalues --   -0.70031  -0.69336  -0.68214  -0.67949  -0.67256
 Alpha  occ. eigenvalues --   -0.67058  -0.66941  -0.66047  -0.65036  -0.64746
 Alpha  occ. eigenvalues --   -0.64633  -0.63402  -0.62997  -0.61914  -0.61335
 Alpha  occ. eigenvalues --   -0.60579  -0.59076  -0.58054  -0.57922  -0.57541
 Alpha  occ. eigenvalues --   -0.56369  -0.56177  -0.55692  -0.55253  -0.54957
 Alpha  occ. eigenvalues --   -0.54453  -0.54355  -0.54030  -0.53219  -0.53005
 Alpha  occ. eigenvalues --   -0.52523  -0.51609  -0.51015  -0.50176  -0.49878
 Alpha  occ. eigenvalues --   -0.49765  -0.49249  -0.48984  -0.48280  -0.47910
 Alpha  occ. eigenvalues --   -0.47646  -0.47528  -0.47270  -0.46890  -0.46691
 Alpha  occ. eigenvalues --   -0.46638  -0.46321  -0.45925  -0.45758  -0.45738
 Alpha  occ. eigenvalues --   -0.45349  -0.45023  -0.44776  -0.44679  -0.44560
 Alpha  occ. eigenvalues --   -0.44344  -0.44227  -0.43835  -0.43739  -0.43470
 Alpha  occ. eigenvalues --   -0.43239  -0.42829  -0.42699  -0.42568  -0.42467
 Alpha  occ. eigenvalues --   -0.42288  -0.42083  -0.41795  -0.41413  -0.41348
 Alpha  occ. eigenvalues --   -0.41229  -0.40866  -0.40836  -0.40544  -0.40370
 Alpha  occ. eigenvalues --   -0.40129  -0.39794  -0.39735  -0.39698  -0.39535
 Alpha  occ. eigenvalues --   -0.39158  -0.39144  -0.38976  -0.38885  -0.38603
 Alpha  occ. eigenvalues --   -0.38375  -0.38161  -0.38002  -0.37732  -0.37654
 Alpha  occ. eigenvalues --   -0.37361  -0.37081  -0.36842  -0.36806  -0.36451
 Alpha  occ. eigenvalues --   -0.36238  -0.36133  -0.36073  -0.35836  -0.35413
 Alpha  occ. eigenvalues --   -0.35396  -0.35228  -0.35081  -0.34986  -0.34770
 Alpha  occ. eigenvalues --   -0.34676  -0.34571  -0.34290  -0.34231  -0.34137
 Alpha  occ. eigenvalues --   -0.33865  -0.33805  -0.33221  -0.32697  -0.32457
 Alpha  occ. eigenvalues --   -0.31686  -0.31577  -0.31539  -0.31366  -0.31239
 Alpha  occ. eigenvalues --   -0.31087  -0.30777  -0.30634  -0.30087  -0.30050
 Alpha  occ. eigenvalues --   -0.29669  -0.29508  -0.28761  -0.28269  -0.27700
 Alpha  occ. eigenvalues --   -0.27498  -0.27089  -0.26563  -0.26391  -0.25377
 Alpha  occ. eigenvalues --   -0.24711  -0.24279  -0.23227  -0.22739  -0.19605
 Alpha  occ. eigenvalues --   -0.18833
 Alpha virt. eigenvalues --   -0.09362  -0.08103  -0.04353  -0.02206  -0.01095
 Alpha virt. eigenvalues --    0.00069   0.00163   0.01478   0.01847   0.02967
 Alpha virt. eigenvalues --    0.03634   0.03679   0.04133   0.04627   0.04681

 Mulliken charges:
               1
     1  C    0.067359
     2  C   -0.133283
     3  C   -0.130265
     4  C   -0.044114
     5  N   -0.129434
     6  C   -0.054038
     7  C   -0.091600
     8  C   -0.127096
     9  C   -0.019955
    10  C    0.103896
    11  C    0.027524
    12  C    0.063304
    13  C    0.159128
    14  O   -0.239595
    15  O   -0.359626
    16  N   -0.150892
    17  C    0.157791
    18  C   -0.137046
    19  C    0.026894
    20  C    0.143115
    21  C    0.007469
    22  C   -0.022283
    23  C   -0.030128
    24  N   -0.237207
    25  C    0.003885
    26  C   -0.123121
    27  C   -0.045719
    28  C    0.001613
    29  C    0.014624
    30  C   -0.066767
    31  C    0.045688
    32  N   -0.002663
    33  C    0.080923
    34  C   -0.137140
    35  C    0.018413
    36  C    0.012671
    37  C    0.008192
    38  C    0.064093
    39  O   -0.168925
    40  C   -0.035816
    41  C    0.153429
    42  O   -0.229425
    43  O   -0.316417
    44  C    0.346071
    45  C    0.254717
    46  C   -0.060352
    47  C   -0.162544
    48  C    0.123560
    49  C    0.156756
    50  C   -0.047088
    51  C   -0.024723
    52  C   -0.068090
    53  C    0.008598
    54  C    0.027431
    55  C    0.094452
    56  C    0.041309
    57  C   -0.049400
    58  C    0.015228
    59  C   -0.013043
    60  C    0.140558
    61  C   -0.026785
    62  C   -0.059793
    63  C   -0.002318
    64  C   -0.002265
    65  H    0.010615
    66  H    0.007460
    67  H   -0.046338
    68  H    0.040540
    69  H    0.023090
    70  H    0.011469
    71  H    0.009061
    72  H    0.024393
    73  H    0.035968
    74  H    0.015741
    75  H    0.053642
    76  H    0.052636
    77  H    0.047304
    78  H    0.033946
    79  H    0.040343
    80  H    0.037573
    81  H    0.021521
    82  H    0.032566
    83  H    0.053488
    84  H    0.044155
    85  H    0.008848
    86  H    0.026700
    87  H    0.017120
    88  H    0.029784
    89  H    0.007630
    90  H    0.035567
    91  H    0.065222
    92  H    0.052404
    93  H    0.065675
    94  H    0.016842
    95  H    0.036156
    96  H    0.024608
    97  H   -0.064678
    98  H    0.036396
    99  H    0.033981
   100  H   -0.034338
   101  H   -0.010438
   102  H    0.005064
   103  H    0.045281
   104  H   -0.052535
   105  H   -0.040724
   106  H    0.009774
   107  H    0.007499
   108  H    0.025743
   109  H    0.023314
   110  H    0.001803
   111  H    0.027650
   112  H    0.026683
   113  H   -0.033517
   114  H   -0.005725
   115  H   -0.016742
   116  H   -0.023646
   117  H   -0.021092
   118  H   -0.012748
   119  H   -0.007505
   120  H   -0.011310
   121  H    0.008295
   122  H    0.012829
   123  H   -0.020897
   124  H   -0.003840
   125  H   -0.010951
   126  H   -0.054670
   127  H   -0.055134
   128  H   -0.004368
   129  H    0.006131
   130  H   -0.001582
   131  H   -0.000251
   132  H    0.008946
   133  H    0.018199
   134  H    0.009999
   135  H    0.032021
   136  H    0.014928
   137  H    0.229118
   138  H    0.147566
 Sum of Mulliken charges =   0.00000

 Dipole moment (field-independent basis, Debye):
    X=              1.9133    Y=              3.3617    Z=              0.7289  Tot=              3.9362
 Quadrupole moment (field-independent basis, Debye-Ang):
   XX=           -351.8071   YY=           -380.0123   ZZ=           -395.5270
   XY=            -31.9155   XZ=              8.1120   YZ=             -4.0606

 Normal termination of Gaussian 09 at Fri Jul 26 18:06:39 2019.
