 Gaussian 09, Revision D.01,
 Gaussian 09:  ES64L-G09RevD.01 24-Apr-2013

 --------------------------
 # td=(NStates=1) B3LYP/SVP
 --------------------------

 --
 TD
 --
 Symbolic Z-matrix:
 Charge =  0 Multiplicity = 1

                         Standard orientation:
 ---------------------------------------------------------------------
 Center     Atomic      Atomic             Coordinates (Angstroms)
 Number     Number       Type             X           Y           Z
 ---------------------------------------------------------------------
      1          6           0       -5.152608   -2.021603    0.487870
      2          6           0       -4.685747    2.849744    1.173138
      3          6           0       -9.382807    3.307236   -0.098658
      4          6           0      -10.000213   -1.582796   -0.837201
      5          7           0       -5.241891    0.462271    0.722833
      6          6           0       -4.520723   -0.756660    0.861990
      7          6           0       -3.056327   -0.648562    1.249958
      8          6           0       -3.021697    0.894080    1.639027
      9          6           0       -4.341086    1.437502    1.132634
     10          6           0       -3.054726    1.092427    3.247031
     11          6           0       -2.107234   -0.883700    0.091052
     12          6           0       -0.690275   -0.690282    0.558439
     13          6           0        0.409014   -0.923939   -0.637024
     14          8           0        0.058937   -1.342559   -1.752138
     15          8           0        1.586079   -0.680966   -0.228171
     16          7           0       -7.028680    2.753239    0.544872
     17          6           0       -5.891670    3.365975    0.953086
     18          6           0       -6.175845    4.852837    0.961064
     19          6           0       -7.456703    5.072267    0.559374
     20          6           0       -8.069137    3.687288    0.305730
     21          6           0       -5.069061    5.879649    1.128578
     22          6           0       -8.186378    6.360196    0.370472
     23          6           0       -9.083876    6.669091   -0.495739
     24          7           0       -9.246571    0.817396   -0.376773
     25          6           0       -9.888969    2.016769   -0.347548
     26          6           0      -11.228275    1.838012   -0.849706
     27          6           0      -11.434213    0.503028   -1.097578
     28          6           0      -10.138842   -0.094523   -0.758706
     29          6           0      -12.284789    3.022567   -1.011464
     30          6           0      -12.621228   -0.157930   -1.649005
     31          6           0      -12.608366   -0.440363   -3.068936
     32          7           0       -7.563317   -1.290123   -0.115024
     33          6           0       -8.658397   -2.072798   -0.556807
     34          6           0       -8.196780   -3.469395   -0.655203
     35          6           0       -6.859239   -3.384137   -0.280049
     36          6           0       -6.468240   -2.078837    0.084690
     37          6           0       -9.053672   -4.645091   -0.890625
     38          6           0       -5.717081   -4.381799    0.007184
     39          8           0       -5.542084   -5.601101   -0.066090
     40          6           0       -4.495631   -3.419225    0.514339
     41          6           0       -3.955830   -3.850416    1.781198
     42          8           0       -4.087103   -3.450980    2.907037
     43          8           0       -3.042393   -4.899589    1.498389
     44          6           0       -2.328503   -5.327393    2.662169
     45          6           0        2.586048   -0.913546   -1.186872
     46          6           0        3.932392   -0.656797   -0.604747
     47          6           0        5.024058   -0.011292   -1.094198
     48          6           0        4.946255    0.516356   -2.591626
     49          6           0        6.228539    0.216972   -0.326103
     50          6           0        7.460950   -0.338788   -1.110482
     51          6           0        8.735037   -0.240623   -0.286503
     52          6           0       10.023959   -0.870793   -0.879665
     53          6           0       10.030182   -2.405885   -0.963621
     54          6           0       11.311187   -0.389790   -0.072703
     55          6           0       12.711262   -0.613958   -0.722330
     56          6           0       13.834963    0.067514    0.169556
     57          6           0       15.338774   -0.133774   -0.359203
     58          6           0       15.581126   -1.707572   -0.385433
     59          6           0       16.204697    0.584393    0.564226
     60          6           0       17.625340    0.783240   -0.097510
     61          6           0       18.555351    1.661500    0.725878
     62          6           0       19.997503    1.626692    0.215787
     63          6           0       20.273655    2.375799   -1.137995
     64          6           0       21.030649    2.322297    1.308942
     65          1           0       -3.974045    3.645291    1.548967
     66          1           0      -10.128258    4.224715   -0.166522
     67          1           0      -10.740079   -2.267456   -0.966575
     68          1           0       -2.793784   -1.340916    1.984655
     69          1           0       -2.369113    1.436921    1.004382
     70          1           0       -2.179721    0.835935    3.634809
     71          1           0       -3.241599    2.163703    3.607913
     72          1           0       -3.999323    0.458241    3.538085
     73          1           0       -2.132520   -1.889316   -0.315614
     74          1           0       -2.273081   -0.441223   -0.797256
     75          1           0       -0.391937    0.204150    0.874626
     76          1           0       -0.478329   -1.509544    1.316502
     77          1           0       -4.212197    5.602973    0.369172
     78          1           0       -5.326283    7.032938    0.922985
     79          1           0       -4.642269    5.663488    2.074871
     80          1           0       -7.836066    7.071085    1.213181
     81          1           0       -9.721807    5.918272   -1.101641
     82          1           0       -9.406449    7.656891   -0.254354
     83          1           0      -12.382149    3.647227   -0.104862
     84          1           0      -11.743827    3.695498   -1.751825
     85          1           0      -13.273003    2.738494   -1.425317
     86          1           0      -12.598688   -1.195267   -1.224731
     87          1           0      -13.542699    0.410396   -1.266551
     88          1           0      -12.723316    0.257323   -3.938876
     89          1           0      -11.509777   -0.857596   -3.345003
     90          1           0      -13.365847   -1.263251   -3.204823
     91          1           0       -9.834306   -4.698067   -0.204294
     92          1           0       -9.575763   -4.517347   -1.878636
     93          1           0       -8.395070   -5.502964   -0.869030
     94          1           0       -3.922145   -3.146289   -0.354602
     95          1           0       -1.104040   -5.570326    2.266990
     96          1           0       -2.143516   -4.293880    3.455531
     97          1           0       -2.808883   -6.208597    3.207685
     98          1           0        2.622611   -1.931774   -1.509339
     99          1           0        2.321649   -0.449901   -2.120605
    100          1           0        4.103947   -0.988993    0.481271
    101          1           0        5.415263    1.417244   -2.574565
    102          1           0        5.487196   -0.049205   -3.452809
    103          1           0        3.862520    0.760631   -2.823626
    104          1           0        6.274333    1.332460   -0.234237
    105          1           0        6.083193   -0.230193    0.654160
    106          1           0        7.315025   -1.324757   -1.414185
    107          1           0        7.612970    0.169609   -2.247725
    108          1           0        8.928933    0.952321   -0.065239
    109          1           0        8.370728   -0.733641    0.681575
    110          1           0       10.178452   -0.451443   -1.852866
    111          1           0        9.253669   -2.825685   -1.370779
    112          1           0       11.045633   -2.782034   -1.723332
    113          1           0        9.935735   -2.918137   -0.033513
    114          1           0       11.250821    0.730533   -0.032563
    115          1           0       11.320441   -0.772205    0.980589
    116          1           0       12.949167   -1.716243   -0.900218
    117          1           0       12.863118   -0.177605   -1.788496
    118          1           0       13.523341    1.075049    0.153164
    119          1           0       13.946773   -0.448357    1.204399
    120          1           0       15.295835    0.328192   -1.421577
    121          1           0       14.798754   -1.953571   -1.183540
    122          1           0       16.691729   -1.725961   -0.775075
    123          1           0       15.425135   -2.147270    0.585085
    124          1           0       15.898851    1.711957    0.715197
    125          1           0       16.157286    0.056799    1.431389
    126          1           0       18.054731   -0.181051   -0.082479
    127          1           0       17.449166    1.072640   -1.074950
    128          1           0       18.044297    2.696753    0.544692
    129          1           0       18.534599    1.593334    1.731127
    130          1           0       20.277068    0.666255    0.271819
    131          1           0       19.850115    3.660225   -0.994176
    132          1           0       21.166991    2.368856   -1.571026
    133          1           0       19.485118    1.918238   -1.908726
    134          1           0       20.946053    1.784514    2.161645
    135          1           0       22.136961    2.123917    1.134111
    136          1           0       20.752290    3.227501    1.412675
    137          1           0       -7.304515    1.750544    0.449105
    138          1           0       -7.521008   -0.295962    0.209183
 ---------------------------------------------------------------------

 SCF Done:  E(RB3LYP) =  -2733.03260639     A.U. after   17 cycles

 Excitation energies and oscillator strengths:

 Excited State   1:      Singlet-A      2.0105 eV  616.69 nm  f=0.1676  <S**2>=0.000
     235 -> 237       -0.10152
     235 -> 238       -0.29557
     236 -> 237        0.62362
     236 -> 238       -0.11813
 This state for optimization and/or second-order correction.
 Total Energy, E(TD-HF/TD-KS) =  -2732.95872208
 Copying the excited state density for this state as the 1-particle RhoCI density.

 The electronic state is 1-A.
 Alpha  occ. eigenvalues --  -19.20463 -19.16770 -19.13603 -19.13444 -19.12223
 Alpha  occ. eigenvalues --  -14.37381 -14.37155 -14.33698 -14.29615 -10.32034
 Alpha  occ. eigenvalues --  -10.31963 -10.29437 -10.26694 -10.25140 -10.24462
 Alpha  occ. eigenvalues --  -10.24096 -10.24085 -10.24006 -10.23949 -10.22947
 Alpha  occ. eigenvalues --  -10.21647 -10.21645 -10.21500 -10.21335 -10.21164
 Alpha  occ. eigenvalues --  -10.21059 -10.21044 -10.20998 -10.20989 -10.20962
 Alpha  occ. eigenvalues --  -10.20924 -10.20891 -10.20521 -10.20497 -10.20315
 Alpha  occ. eigenvalues --  -10.20058 -10.20033 -10.19964 -10.19936 -10.19894
 Alpha  occ. eigenvalues --  -10.19775 -10.19687 -10.19590 -10.19508 -10.19462
 Alpha  occ. eigenvalues --  -10.19423 -10.19406 -10.19263 -10.19249 -10.19142
 Alpha  occ. eigenvalues --  -10.19036 -10.18977 -10.18963 -10.18824 -10.18755
 Alpha  occ. eigenvalues --  -10.18504 -10.18280 -10.18275 -10.17924 -10.17585
 Alpha  occ. eigenvalues --  -10.17426 -10.17047 -10.17007 -10.15833  -1.13911
 Alpha  occ. eigenvalues --   -1.08470  -1.02182  -1.00281  -1.00115  -0.97352
 Alpha  occ. eigenvalues --   -0.97092  -0.93727  -0.92805  -0.84675  -0.83221
 Alpha  occ. eigenvalues --   -0.82053  -0.81943  -0.81805  -0.80951  -0.80516
 Alpha  occ. eigenvalues --   -0.80263  -0.79824  -0.79294  -0.78306  -0.77958
 Alpha  occ. eigenvalues --   -0.77120  -0.76223  -0.75485  -0.75105  -0.73925
 Alpha  occ. eigenvalues --   -0.73391  -0.72874  -0.72555  -0.71726  -0.70721
 Alpha  occ. eigenvalues --   -0.70233  -0.68815  -0.68438  -0.67571  -0.67511
 Alpha  occ. eigenvalues --   -0.66927  -0.66778  -0.66267  -0.65929  -0.64915
 Alpha  occ. eigenvalues --   -0.64734  -0.63388  -0.62291  -0.61785  -0.60718
 Alpha  occ. eigenvalues --   -0.60269  -0.59954  -0.59317  -0.58811  -0.57987
 Alpha  occ. eigenvalues --   -0.57365  -0.56941  -0.56853  -0.56071  -0.56003
 Alpha  occ. eigenvalues --   -0.55391  -0.54811  -0.54336  -0.53683  -0.52788
 Alpha  occ. eigenvalues --   -0.52125  -0.51967  -0.51904  -0.51476  -0.51287
 Alpha  occ. eigenvalues --   -0.50295  -0.49165  -0.48823  -0.48734  -0.48082
 Alpha  occ. eigenvalues --   -0.47836  -0.47752  -0.47531  -0.47374  -0.47110
 Alpha  occ. eigenvalues --   -0.46962  -0.46804  -0.46314  -0.46075  -0.45562
 Alpha  occ. eigenvalues --   -0.45316  -0.45077  -0.44815  -0.44758  -0.44584
 Alpha  occ. eigenvalues --   -0.44461  -0.43967  -0.43928  -0.43759  -0.43645
 Alpha  occ. eigenvalues --   -0.43291  -0.43112  -0.42797  -0.42696  -0.42412
 Alpha  occ. eigenvalues --   -0.42194  -0.42045  -0.41973  -0.41714  -0.41539
 Alpha  occ. eigenvalues --   -0.41400  -0.41231  -0.41123  -0.40952  -0.40427
 Alpha  occ. eigenvalues --   -0.40248  -0.40161  -0.39936  -0.39702  -0.39380
 Alpha  occ. eigenvalues --   -0.39213  -0.39128  -0.39045  -0.38945  -0.38844
 Alpha  occ. eigenvalues --   -0.38424  -0.38352  -0.38267  -0.38142  -0.38046
 Alpha  occ. eigenvalues --   -0.37887  -0.37808  -0.37711  -0.37350  -0.37274
 Alpha  occ. eigenvalues --   -0.37142  -0.36822  -0.36576  -0.36532  -0.36058
 Alpha  occ. eigenvalues --   -0.35538  -0.35249  -0.35076  -0.34629  -0.34584
 Alpha  occ. eigenvalues --   -0.34492  -0.34465  -0.34081  -0.33810  -0.33794
 Alpha  occ. eigenvalues --   -0.33552  -0.33095  -0.32773  -0.32574  -0.32130
 Alpha  occ. eigenvalues --   -0.31906  -0.31881  -0.31734  -0.31685  -0.31609
 Alpha  occ. eigenvalues --   -0.31514  -0.31299  -0.30885  -0.30689  -0.30070
 Alpha  occ. eigenvalues --   -0.29938  -0.29300  -0.29064  -0.28664  -0.27866
 Alpha  occ. eigenvalues --   -0.27327  -0.27071  -0.26297  -0.26150  -0.25819
 Alpha  occ. eigenvalues --   -0.25301  -0.25126  -0.24679  -0.22200  -0.20112
 Alpha  occ. eigenvalues --   -0.18269
 Alpha virt. eigenvalues --   -0.09839  -0.07994  -0.04658  -0.01799  -0.01321
 Alpha virt. eigenvalues --    0.00124   0.00201   0.00613   0.01504   0.03132
 Alpha virt. eigenvalues --    0.03708   0.04026   0.04392   0.04517   0.04691

 Mulliken charges:
               1
     1  C   -0.189417
     2  C   -0.095053
     3  C   -0.129298
     4  C   -0.024681
     5  N   -0.224778
     6  C   -0.011828
     7  C    0.026024
     8  C    0.033562
     9  C   -0.029653
    10  C    0.078221
    11  C    0.100393
    12  C    0.049255
    13  C    0.134092
    14  O   -0.279798
    15  O   -0.209439
    16  N   -0.088336
    17  C    0.139729
    18  C   -0.145875
    19  C    0.014380
    20  C    0.038498
    21  C    0.048071
    22  C   -0.067666
    23  C   -0.009925
    24  N   -0.219939
    25  C    0.096588
    26  C   -0.158151
    27  C   -0.119854
    28  C    0.048603
    29  C    0.078683
    30  C    0.110529
    31  C   -0.041619
    32  N   -0.069904
    33  C    0.077399
    34  C   -0.169483
    35  C   -0.089085
    36  C    0.157799
    37  C    0.151245
    38  C    0.118408
    39  O   -0.167302
    40  C    0.024808
    41  C    0.268635
    42  O   -0.199586
    43  O   -0.327881
    44  C    0.046427
    45  C    0.307443
    46  C   -0.119627
    47  C   -0.196973
    48  C    0.073792
    49  C    0.151137
    50  C   -0.036384
    51  C   -0.010392
    52  C    0.005507
    53  C    0.069331
    54  C    0.026060
    55  C   -0.029694
    56  C    0.004102
    57  C   -0.151785
    58  C    0.015511
    59  C    0.079539
    60  C    0.069265
    61  C    0.089670
    62  C   -0.061814
    63  C    0.003749
    64  C    0.103424
    65  H   -0.018872
    66  H    0.013305
    67  H   -0.053077
    68  H   -0.020435
    69  H   -0.010995
    70  H   -0.009269
    71  H    0.024169
    72  H    0.052869
    73  H   -0.000500
    74  H   -0.033755
    75  H   -0.012709
    76  H    0.033276
    77  H    0.045232
    78  H    0.054262
    79  H    0.022454
    80  H    0.026922
    81  H    0.054871
    82  H    0.018750
    83  H    0.026578
    84  H    0.020069
    85  H    0.019316
    86  H   -0.008239
    87  H    0.014938
    88  H    0.019455
    89  H    0.017305
    90  H    0.011753
    91  H    0.014009
    92  H    0.024325
    93  H    0.038421
    94  H    0.073316
    95  H    0.045576
    96  H    0.061988
    97  H    0.065708
    98  H    0.014767
    99  H    0.003562
   100  H   -0.003308
   101  H   -0.025334
   102  H    0.048491
   103  H    0.016867
   104  H    0.018888
   105  H   -0.007909
   106  H   -0.015984
   107  H    0.009717
   108  H    0.013475
   109  H    0.000182
   110  H   -0.024240
   111  H   -0.048224
   112  H    0.032014
   113  H   -0.008696
   114  H   -0.007666
   115  H    0.003023
   116  H    0.010111
   117  H   -0.001500
   118  H   -0.011636
   119  H    0.001330
   120  H   -0.005223
   121  H    0.035900
   122  H    0.027420
   123  H    0.016481
   124  H   -0.004358
   125  H   -0.040557
   126  H   -0.028755
   127  H   -0.017145
   128  H   -0.015365
   129  H   -0.042348
   130  H   -0.033802
   131  H    0.017881
   132  H   -0.006043
   133  H    0.015336
   134  H   -0.034973
   135  H    0.005952
   136  H   -0.035313
   137  H    0.162554
   138  H    0.168751
 Sum of Mulliken charges =   0.00000

 Dipole moment (field-independent basis, Debye):
    X=              3.0486    Y=              4.7369    Z=              1.2106  Tot=              5.7618
 Quadrupole moment (field-independent basis, Debye-Ang):
   XX=           -363.1135   YY=           -392.1364   ZZ=           -398.6950
   XY=            -28.6801   XZ=              5.4836   YZ=              2.1903

 Normal termination of Gaussian 09 at Thu Aug  1 21:30:37 2019.
