 Gaussian 09, Revision D.01,
 Gaussian 09:  ES64L-G09RevD.01 24-Apr-2013

 --------------------------
 # td=(NStates=1) B3LYP/SVP
 --------------------------

 --
 TD
 --
 Symbolic Z-matrix:
 Charge =  0 Multiplicity = 1

                         Standard orientation:
 ---------------------------------------------------------------------
 Center     Atomic      Atomic             Coordinates (Angstroms)
 Number     Number       Type             X           Y           Z
 ---------------------------------------------------------------------
      1          6           0       -5.070874   -1.834494    0.417910
      2          6           0       -4.795048    2.807823    1.440798
      3          6           0       -9.338866    3.269156   -0.075798
      4          6           0       -9.925065   -1.418734   -0.760890
      5          7           0       -5.210227    0.439477    0.765299
      6          6           0       -4.487347   -0.700069    0.721854
      7          6           0       -3.034079   -0.594334    1.195729
      8          6           0       -3.108109    0.885094    1.817088
      9          6           0       -4.434585    1.432295    1.263109
     10          6           0       -2.785672    0.850788    3.286095
     11          6           0       -2.138060   -0.610288    0.029544
     12          6           0       -0.616749   -0.804614    0.388022
     13          6           0        0.330493   -0.991240   -0.712785
     14          8           0       -0.131989   -1.291110   -1.858958
     15          8           0        1.688590   -0.859418   -0.347165
     16          7           0       -7.008705    2.774623    0.566950
     17          6           0       -5.853661    3.416107    0.955085
     18          6           0       -6.213467    4.776314    0.957483
     19          6           0       -7.518389    4.895593    0.480426
     20          6           0       -8.012772    3.564774    0.201565
     21          6           0       -5.221549    5.852821    1.414299
     22          6           0       -8.215415    6.224517    0.404531
     23          6           0       -9.102107    6.637823   -0.586529
     24          7           0       -9.159695    0.927276   -0.482946
     25          6           0       -9.851750    2.061483   -0.562338
     26          6           0      -11.314597    1.931827   -0.896501
     27          6           0      -11.399790    0.549793   -1.110940
     28          6           0      -10.113731   -0.075943   -0.754096
     29          6           0      -12.319882    2.983588   -1.061585
     30          6           0      -12.578852   -0.246129   -1.552041
     31          6           0      -12.830639   -0.508047   -3.010914
     32          7           0       -7.594940   -1.257286   -0.086250
     33          6           0       -8.675326   -2.049980   -0.550760
     34          6           0       -8.127093   -3.354345   -0.582226
     35          6           0       -6.775505   -3.328296   -0.270725
     36          6           0       -6.442630   -1.974033    0.043117
     37          6           0       -8.954538   -4.666742   -0.904315
     38          6           0       -5.639294   -4.285444   -0.100979
     39          8           0       -5.597129   -5.502683   -0.226919
     40          6           0       -4.424036   -3.303247    0.506164
     41          6           0       -3.945452   -3.729318    1.861966
     42          8           0       -4.273615   -3.264586    2.893692
     43          8           0       -3.167179   -4.824586    1.591920
     44          6           0       -2.636869   -5.384464    2.804347
     45          6           0        2.705637   -1.264621   -1.276539
     46          6           0        3.982674   -0.848596   -0.679528
     47          6           0        4.988309   -0.087007   -1.378494
     48          6           0        4.939194    0.429106   -2.756614
     49          6           0        6.262285    0.148686   -0.632830
     50          6           0        7.584463   -0.529050   -1.162039
     51          6           0        8.811467   -0.251111   -0.253823
     52          6           0       10.137716   -0.792397   -0.824703
     53          6           0       10.133423   -2.325588   -0.892961
     54          6           0       11.244300   -0.169284    0.105604
     55          6           0       12.724862   -0.417401   -0.472724
     56          6           0       13.833583    0.218025    0.284043
     57          6           0       15.230618   -0.188568   -0.331670
     58          6           0       15.473287   -1.728639    0.007178
     59          6           0       16.173209    0.766789    0.413183
     60          6           0       17.762388    0.710204   -0.159832
     61          6           0       18.685190    1.655871    0.681407
     62          6           0       20.166163    1.598175    0.132328
     63          6           0       20.156679    2.286885   -1.232750
     64          6           0       21.086528    2.347919    1.179067
     65          1           0       -4.006304    3.558057    1.947342
     66          1           0      -10.044392    4.144892   -0.020091
     67          1           0      -10.734151   -2.122365   -0.958763
     68          1           0       -2.813112   -1.226178    1.872597
     69          1           0       -2.303568    1.374501    1.388872
     70          1           0       -1.781841    0.400760    3.461432
     71          1           0       -3.149670    1.811958    3.761338
     72          1           0       -3.751247   -0.007203    3.795765
     73          1           0       -2.176389   -1.512424   -0.732739
     74          1           0       -2.324209    0.282804   -0.556138
     75          1           0       -0.320949    0.023768    0.837270
     76          1           0       -0.327296   -1.483309    1.186283
     77          1           0       -4.180853    6.016276    0.835527
     78          1           0       -5.870362    6.708211    1.606756
     79          1           0       -4.933495    5.488442    2.394687
     80          1           0       -7.867977    6.803012    1.290711
     81          1           0       -9.371507    5.991915   -1.428349
     82          1           0       -9.678346    7.559189   -0.737090
     83          1           0      -12.423610    3.826301   -0.065180
     84          1           0      -12.207551    3.686582   -2.003639
     85          1           0      -13.249124    2.362267   -1.294095
     86          1           0      -12.696956   -1.201640   -1.042523
     87          1           0      -13.444190    0.151118   -0.935552
     88          1           0      -12.700115    0.512657   -3.602499
     89          1           0      -12.076530   -1.197372   -3.380058
     90          1           0      -13.875518   -0.841074   -3.084753
     91          1           0       -9.615671   -4.586548    0.004663
     92          1           0       -9.853098   -4.649994   -1.764684
     93          1           0       -8.320461   -5.680201   -1.096091
     94          1           0       -3.630136   -3.171463   -0.081544
     95          1           0       -2.340556   -6.500457    2.323861
     96          1           0       -1.651462   -4.773746    3.206956
     97          1           0       -3.536961   -5.520545    3.634994
     98          1           0        2.499241   -2.462369   -1.475119
     99          1           0        2.625216   -0.748376   -2.396057
    100          1           0        4.103272   -0.995335    0.585503
    101          1           0        4.974463    1.459005   -2.682554
    102          1           0        5.730743    0.118193   -3.321253
    103          1           0        4.027753    0.041310   -3.454151
    104          1           0        6.363973    1.218026   -0.734975
    105          1           0        6.260162   -0.047959    0.405212
    106          1           0        7.586921   -1.451622   -1.271767
    107          1           0        7.768299   -0.071422   -2.152498
    108          1           0        8.868157    0.916509   -0.131321
    109          1           0        8.749737   -0.512308    0.895776
    110          1           0       10.384413   -0.307874   -1.747641
    111          1           0        8.885983   -2.682297   -1.223915
    112          1           0       10.854317   -2.760365   -1.574251
    113          1           0       10.310845   -2.812603    0.023377
    114          1           0       11.028959    1.050750    0.077360
    115          1           0       11.240308   -0.517289    1.081762
    116          1           0       12.686453   -1.510941   -0.379458
    117          1           0       12.602050   -0.340661   -1.647174
    118          1           0       13.838463    1.372258    0.020539
    119          1           0       13.824123   -0.148616    1.351693
    120          1           0       15.187870    0.012649   -1.317567
    121          1           0       14.817799   -2.567884   -0.223875
    122          1           0       16.383560   -2.079801   -0.397504
    123          1           0       15.674755   -1.866067    1.113284
    124          1           0       15.799536    1.785205    0.414789
    125          1           0       16.286235    0.361576    1.666025
    126          1           0       18.255471   -0.352833   -0.230445
    127          1           0       17.741499    0.981717   -1.208959
    128          1           0       18.649480    2.841024    0.402756
    129          1           0       18.606252    1.449304    1.632836
    130          1           0       20.556000    0.525059    0.282014
    131          1           0       19.818609    3.211429   -1.050680
    132          1           0       21.269236    2.435735   -1.384475
    133          1           0       19.702889    1.750177   -1.981521
    134          1           0       20.954106    2.063292    2.266378
    135          1           0       22.221232    2.183954    0.823621
    136          1           0       20.771963    3.389016    1.140893
    137          1           0       -7.232559    1.721919    0.494509
    138          1           0       -7.818644   -0.165835    0.117564
 ---------------------------------------------------------------------

 SCF Done:  E(RB3LYP) =  -2732.95212209     A.U. after   17 cycles

 Excitation energies and oscillator strengths:

 Excited State   1:      Singlet-A      2.1619 eV  573.50 nm  f=0.1801  <S**2>=0.000
     235 -> 237        0.13798
     235 -> 238        0.27948
     236 -> 237        0.62407
 This state for optimization and/or second-order correction.
 Total Energy, E(TD-HF/TD-KS) =  -2732.87267437
 Copying the excited state density for this state as the 1-particle RhoCI density.

 The electronic state is 1-A.
 Alpha  occ. eigenvalues --  -19.18046 -19.17981 -19.13392 -19.12764 -19.12520
 Alpha  occ. eigenvalues --  -14.36619 -14.36365 -14.32429 -14.30985 -10.32100
 Alpha  occ. eigenvalues --  -10.31344 -10.28760 -10.27375 -10.26511 -10.23652
 Alpha  occ. eigenvalues --  -10.23324 -10.23037 -10.22859 -10.22744 -10.22061
 Alpha  occ. eigenvalues --  -10.22040 -10.21788 -10.21592 -10.21543 -10.21509
 Alpha  occ. eigenvalues --  -10.21364 -10.21348 -10.21146 -10.20882 -10.20743
 Alpha  occ. eigenvalues --  -10.20705 -10.20569 -10.20446 -10.20377 -10.20188
 Alpha  occ. eigenvalues --  -10.20172 -10.20132 -10.19780 -10.19726 -10.19575
 Alpha  occ. eigenvalues --  -10.19506 -10.19479 -10.19479 -10.19450 -10.19383
 Alpha  occ. eigenvalues --  -10.19376 -10.19376 -10.19321 -10.19287 -10.19268
 Alpha  occ. eigenvalues --  -10.19248 -10.19247 -10.19128 -10.18978 -10.18860
 Alpha  occ. eigenvalues --  -10.18766 -10.18563 -10.18497 -10.18495 -10.18383
 Alpha  occ. eigenvalues --  -10.17852 -10.17809 -10.17567 -10.16919  -1.09830
 Alpha  occ. eigenvalues --   -1.06541  -1.02558  -1.01951  -0.99209  -0.98617
 Alpha  occ. eigenvalues --   -0.96618  -0.94504  -0.93507  -0.83571  -0.82541
 Alpha  occ. eigenvalues --   -0.82103  -0.81760  -0.81303  -0.80931  -0.80424
 Alpha  occ. eigenvalues --   -0.80289  -0.79745  -0.79347  -0.78581  -0.77987
 Alpha  occ. eigenvalues --   -0.76241  -0.75677  -0.75508  -0.74543  -0.74144
 Alpha  occ. eigenvalues --   -0.73435  -0.73164  -0.72630  -0.71267  -0.70485
 Alpha  occ. eigenvalues --   -0.70170  -0.68703  -0.68266  -0.67981  -0.67369
 Alpha  occ. eigenvalues --   -0.67367  -0.66589  -0.66071  -0.65444  -0.64133
 Alpha  occ. eigenvalues --   -0.63653  -0.62569  -0.62325  -0.61932  -0.61244
 Alpha  occ. eigenvalues --   -0.60702  -0.59352  -0.58952  -0.58135  -0.57355
 Alpha  occ. eigenvalues --   -0.56576  -0.55895  -0.55723  -0.55601  -0.55052
 Alpha  occ. eigenvalues --   -0.54596  -0.54490  -0.53545  -0.53324  -0.52832
 Alpha  occ. eigenvalues --   -0.52643  -0.51939  -0.51292  -0.51011  -0.50522
 Alpha  occ. eigenvalues --   -0.49685  -0.49405  -0.48796  -0.48549  -0.48282
 Alpha  occ. eigenvalues --   -0.48086  -0.47961  -0.47744  -0.47393  -0.47227
 Alpha  occ. eigenvalues --   -0.46805  -0.46356  -0.45989  -0.45827  -0.45600
 Alpha  occ. eigenvalues --   -0.45457  -0.45311  -0.44923  -0.44740  -0.44495
 Alpha  occ. eigenvalues --   -0.43887  -0.43603  -0.43577  -0.43418  -0.43159
 Alpha  occ. eigenvalues --   -0.43102  -0.42906  -0.42777  -0.42673  -0.42116
 Alpha  occ. eigenvalues --   -0.41953  -0.41840  -0.41558  -0.41450  -0.40900
 Alpha  occ. eigenvalues --   -0.40860  -0.40715  -0.40602  -0.40419  -0.39964
 Alpha  occ. eigenvalues --   -0.39918  -0.39802  -0.39575  -0.39397  -0.39208
 Alpha  occ. eigenvalues --   -0.39156  -0.38971  -0.38795  -0.38719  -0.38417
 Alpha  occ. eigenvalues --   -0.38146  -0.38071  -0.37854  -0.37689  -0.37484
 Alpha  occ. eigenvalues --   -0.37317  -0.37046  -0.36854  -0.36761  -0.36690
 Alpha  occ. eigenvalues --   -0.36374  -0.36262  -0.36173  -0.35993  -0.35839
 Alpha  occ. eigenvalues --   -0.35277  -0.35039  -0.34928  -0.34899  -0.34708
 Alpha  occ. eigenvalues --   -0.34677  -0.34610  -0.34359  -0.33996  -0.33938
 Alpha  occ. eigenvalues --   -0.33711  -0.33388  -0.33311  -0.32614  -0.32514
 Alpha  occ. eigenvalues --   -0.32456  -0.32046  -0.31936  -0.31411  -0.31311
 Alpha  occ. eigenvalues --   -0.30923  -0.30416  -0.30214  -0.30084  -0.29734
 Alpha  occ. eigenvalues --   -0.29446  -0.28929  -0.28850  -0.28388  -0.27756
 Alpha  occ. eigenvalues --   -0.27407  -0.27129  -0.26714  -0.26627  -0.25176
 Alpha  occ. eigenvalues --   -0.24927  -0.23917  -0.23445  -0.23236  -0.19916
 Alpha  occ. eigenvalues --   -0.19184
 Alpha virt. eigenvalues --   -0.10134  -0.07338  -0.04179  -0.02289  -0.02024
 Alpha virt. eigenvalues --   -0.01065  -0.00235   0.00463   0.02179   0.03456
 Alpha virt. eigenvalues --    0.03526   0.03635   0.04138   0.04163   0.04231

 Mulliken charges:
               1
     1  C   -0.060638
     2  C   -0.151565
     3  C   -0.129142
     4  C   -0.102521
     5  N   -0.150335
     6  C   -0.119441
     7  C    0.092912
     8  C    0.017170
     9  C    0.015840
    10  C   -0.013243
    11  C    0.011131
    12  C    0.133508
    13  C    0.210711
    14  O   -0.280344
    15  O   -0.343671
    16  N   -0.077917
    17  C    0.170986
    18  C   -0.150552
    19  C   -0.029812
    20  C    0.101792
    21  C    0.102915
    22  C   -0.027437
    23  C   -0.046799
    24  N   -0.268733
    25  C    0.074181
    26  C   -0.092333
    27  C   -0.074056
    28  C    0.145715
    29  C   -0.033338
    30  C    0.000351
    31  C    0.046119
    32  N   -0.145493
    33  C    0.069593
    34  C   -0.108317
    35  C   -0.055650
    36  C    0.165010
    37  C   -0.027929
    38  C    0.131595
    39  O   -0.164633
    40  C    0.058100
    41  C    0.195836
    42  O   -0.179421
    43  O   -0.300515
    44  C    0.049937
    45  C    0.175339
    46  C   -0.111991
    47  C   -0.151369
    48  C    0.120883
    49  C    0.103005
    50  C    0.169788
    51  C   -0.071430
    52  C   -0.031521
    53  C    0.014135
    54  C   -0.022672
    55  C   -0.012546
    56  C    0.058993
    57  C   -0.005611
    58  C    0.034486
    59  C   -0.020580
    60  C    0.017118
    61  C    0.051480
    62  C   -0.172325
    63  C    0.150287
    64  C   -0.012174
    65  H    0.016091
    66  H   -0.003009
    67  H   -0.022405
    68  H   -0.097853
    69  H   -0.037097
    70  H    0.043146
    71  H    0.030386
    72  H    0.029615
    73  H    0.057438
    74  H    0.007184
    75  H   -0.044256
    76  H    0.017057
    77  H    0.064783
    78  H   -0.002543
    79  H    0.015061
    80  H    0.023934
    81  H    0.032498
    82  H    0.032170
    83  H    0.056854
    84  H    0.047043
    85  H    0.029079
    86  H   -0.018039
    87  H    0.000770
    88  H    0.020685
    89  H    0.019934
    90  H    0.022736
    91  H    0.038549
    92  H    0.035843
    93  H    0.083303
    94  H   -0.019109
    95  H    0.065525
    96  H    0.061465
    97  H    0.076353
    98  H    0.045050
    99  H    0.047181
   100  H    0.040999
   101  H    0.008290
   102  H   -0.000666
   103  H    0.031021
   104  H   -0.015892
   105  H   -0.020303
   106  H   -0.088946
   107  H   -0.010286
   108  H   -0.005893
   109  H    0.006338
   110  H   -0.016169
   111  H    0.026225
   112  H    0.019804
   113  H    0.002238
   114  H    0.004762
   115  H   -0.021322
   116  H   -0.023179
   117  H   -0.002480
   118  H    0.011772
   119  H    0.010557
   120  H   -0.037903
   121  H    0.010275
   122  H   -0.015791
   123  H   -0.002287
   124  H    0.008678
   125  H    0.012554
   126  H    0.012548
   127  H   -0.014209
   128  H    0.001965
   129  H   -0.049808
   130  H    0.002082
   131  H   -0.032873
   132  H   -0.001114
   133  H    0.010751
   134  H    0.018591
   135  H    0.030076
   136  H   -0.007156
   137  H    0.171201
   138  H    0.207271
 Sum of Mulliken charges =   0.00000

 Dipole moment (field-independent basis, Debye):
    X=              2.8589    Y=              4.4080    Z=              1.0935  Tot=              5.3665
 Quadrupole moment (field-independent basis, Debye-Ang):
   XX=           -333.2658   YY=           -388.9891   ZZ=           -396.1505
   XY=            -28.8904   XZ=             -2.1599   YZ=             -3.8948

 Normal termination of Gaussian 09 at Thu Jul 25 10:06:58 2019.
