 Gaussian 09, Revision D.01,
 Gaussian 09:  ES64L-G09RevD.01 24-Apr-2013

 --------------------------
 # td=(NStates=1) B3LYP/SVP
 --------------------------

 --
 TD
 --
 Symbolic Z-matrix:
 Charge =  0 Multiplicity = 1

                         Standard orientation:
 ---------------------------------------------------------------------
 Center     Atomic      Atomic             Coordinates (Angstroms)
 Number     Number       Type             X           Y           Z
 ---------------------------------------------------------------------
      1          6           0       -5.114013   -2.033271    0.490962
      2          6           0       -4.633737    2.606924    1.629310
      3          6           0       -9.264034    3.508807   -0.173750
      4          6           0       -9.813848   -1.356094   -1.084436
      5          7           0       -5.099774    0.357963    0.828727
      6          6           0       -4.537651   -0.820692    0.907968
      7          6           0       -3.116576   -0.687747    1.482210
      8          6           0       -3.163272    0.735105    2.059032
      9          6           0       -4.343029    1.286208    1.423067
     10          6           0       -3.285914    0.666328    3.513324
     11          6           0       -2.164512   -0.935574    0.315290
     12          6           0       -0.653906   -0.858696    0.643432
     13          6           0        0.317725   -1.147029   -0.470026
     14          8           0       -0.051062   -1.544049   -1.575405
     15          8           0        1.632035   -0.930218   -0.128496
     16          7           0       -6.946381    2.755828    0.646741
     17          6           0       -5.806505    3.339064    1.252066
     18          6           0       -5.984306    4.734036    1.220855
     19          6           0       -7.364586    5.011793    0.740640
     20          6           0       -7.912629    3.662244    0.369362
     21          6           0       -5.194899    5.756445    1.941056
     22          6           0       -7.979521    6.298021    0.478952
     23          6           0       -8.541534    6.767890   -0.724475
     24          7           0       -9.072810    0.969998   -0.551876
     25          6           0       -9.721011    2.176856   -0.577091
     26          6           0      -11.050623    2.034856   -1.161096
     27          6           0      -11.250093    0.706691   -1.437918
     28          6           0       -9.978564    0.038353   -0.895683
     29          6           0      -12.051413    3.267025   -1.400374
     30          6           0      -12.393056    0.080693   -2.014242
     31          6           0      -12.356473   -0.243927   -3.555902
     32          7           0       -7.480118   -1.234784   -0.241765
     33          6           0       -8.609440   -1.986339   -0.638609
     34          6           0       -8.178940   -3.383400   -0.791716
     35          6           0       -6.835155   -3.359873   -0.342598
     36          6           0       -6.442029   -2.061197    0.004503
     37          6           0       -8.996997   -4.495080   -1.127695
     38          6           0       -5.836793   -4.260645    0.038020
     39          8           0       -5.678986   -5.442065   -0.038612
     40          6           0       -4.587856   -3.359148    0.479372
     41          6           0       -4.024295   -3.868366    1.731791
     42          8           0       -4.292984   -3.434295    2.805512
     43          8           0       -3.183741   -4.885651    1.614599
     44          6           0       -2.810764   -5.584116    2.821387
     45          6           0        2.660638   -1.213676   -1.097155
     46          6           0        3.992383   -0.825340   -0.598267
     47          6           0        4.880747   -0.078197   -1.171460
     48          6           0        4.744269    0.532160   -2.625612
     49          6           0        6.298238    0.184033   -0.586239
     50          6           0        7.529437   -0.537063   -1.234246
     51          6           0        8.700716   -0.191317   -0.397519
     52          6           0        9.931147   -0.770700   -0.902751
     53          6           0       10.037128   -2.225831   -1.072466
     54          6           0       11.090271   -0.251783   -0.043382
     55          6           0       12.582756   -0.487471   -0.514012
     56          6           0       13.756735   -0.004438    0.386156
     57          6           0       15.158904   -0.209302   -0.261595
     58          6           0       15.618870   -1.688027   -0.429074
     59          6           0       16.289218    0.601923    0.535706
     60          6           0       17.559509    0.735863   -0.135717
     61          6           0       18.571286    1.680465    0.628816
     62          6           0       19.920400    1.769712    0.038940
     63          6           0       19.876445    2.440853   -1.354008
     64          6           0       20.910195    2.473968    1.013344
     65          1           0       -4.031624    3.448328    2.088743
     66          1           0       -9.890742    4.473211   -0.149309
     67          1           0      -10.523009   -2.114493   -1.225203
     68          1           0       -2.709448   -1.251212    2.360966
     69          1           0       -2.374895    1.244614    1.357602
     70          1           0       -2.392548    0.337037    3.796482
     71          1           0       -3.285632    1.627676    3.833996
     72          1           0       -3.879352   -0.099356    3.884829
     73          1           0       -2.530210   -1.907428   -0.265717
     74          1           0       -2.293573   -0.027964   -0.520170
     75          1           0       -0.416484    0.306344    1.003587
     76          1           0       -0.467395   -1.396925    1.596302
     77          1           0       -4.316203    5.792915    1.247524
     78          1           0       -5.814312    6.539914    2.155367
     79          1           0       -4.909715    5.503765    3.089437
     80          1           0       -7.944212    7.007779    1.403832
     81          1           0       -9.019524    6.101717   -1.544644
     82          1           0       -8.938075    7.892022   -0.734356
     83          1           0      -12.034706    3.919658   -0.476027
     84          1           0      -11.622056    3.713068   -2.479943
     85          1           0      -13.192418    2.986055   -1.500679
     86          1           0      -12.762127   -0.931088   -1.554742
     87          1           0      -13.504926    0.673705   -1.783035
     88          1           0      -12.528067    0.772330   -4.048479
     89          1           0      -11.370330   -0.735708   -3.702383
     90          1           0      -13.142374   -1.007676   -3.715148
     91          1           0       -9.978816   -4.854054   -0.674440
     92          1           0       -9.181680   -4.179315   -2.240247
     93          1           0       -8.441859   -5.337800   -1.378671
     94          1           0       -3.909533   -3.656484   -0.200714
     95          1           0       -2.316783   -6.447716    2.635215
     96          1           0       -2.349022   -4.753005    3.478281
     97          1           0       -3.752336   -5.956013    3.374429
     98          1           0        2.530760   -2.396927   -1.201462
     99          1           0        2.307599   -0.551998   -1.976684
    100          1           0        4.357137   -0.998994    0.430346
    101          1           0        4.655275    1.683879   -2.772381
    102          1           0        5.839945    0.164908   -3.053203
    103          1           0        3.832205    0.029011   -3.153564
    104          1           0        6.562121    1.312439   -0.497562
    105          1           0        6.245075    0.059094    0.567880
    106          1           0        7.385098   -1.702477   -1.369387
    107          1           0        7.604321   -0.056305   -2.260420
    108          1           0        8.941877    0.896774   -0.215900
    109          1           0        8.704009   -0.663907    0.687485
    110          1           0        9.990364   -0.242113   -1.861272
    111          1           0        9.326368   -2.560032   -1.752455
    112          1           0       11.074082   -2.730074   -1.257943
    113          1           0        9.918793   -2.690337   -0.010291
    114          1           0       10.839940    0.826821    0.289486
    115          1           0       11.127783   -0.780898    0.972591
    116          1           0       12.696555   -1.534554   -0.701231
    117          1           0       12.850479    0.241761   -1.469872
    118          1           0       13.631446    0.994501    0.652813
    119          1           0       13.832802   -0.483797    1.343041
    120          1           0       15.138602   -0.008466   -1.355040
    121          1           0       15.090631   -2.162441   -1.138933
    122          1           0       16.623512   -1.888529   -0.762469
    123          1           0       15.670618   -2.223010    0.618480
    124          1           0       15.815891    1.559576    0.619959
    125          1           0       16.240806    0.288668    1.677742
    126          1           0       18.237557   -0.212751   -0.333468
    127          1           0       17.379788    1.206668   -1.154527
    128          1           0       18.276938    2.779927    0.707743
    129          1           0       18.673026    1.315217    1.733935
    130          1           0       20.220773    0.658515   -0.107906
    131          1           0       19.305048    3.440292   -1.308395
    132          1           0       20.971616    2.433749   -1.947449
    133          1           0       19.273318    1.742151   -1.964157
    134          1           0       21.214816    1.704956    1.855754
    135          1           0       21.776465    2.796069    0.362409
    136          1           0       20.336794    3.422065    1.270594
    137          1           0       -6.969801    1.713621    0.716751
    138          1           0       -7.489216   -0.151648   -0.145986
 ---------------------------------------------------------------------

 SCF Done:  E(RB3LYP) =  -2733.05240117     A.U. after   17 cycles

 Excitation energies and oscillator strengths:

 Excited State   1:      Singlet-A      1.9808 eV  625.93 nm  f=0.1934  <S**2>=0.000
     235 -> 238        0.29775
     236 -> 237        0.63775
 This state for optimization and/or second-order correction.
 Total Energy, E(TD-HF/TD-KS) =  -2732.97960863
 Copying the excited state density for this state as the 1-particle RhoCI density.

 The electronic state is 1-A.
 Alpha  occ. eigenvalues --  -19.17049 -19.16724 -19.12210 -19.11721 -19.10522
 Alpha  occ. eigenvalues --  -14.37208 -14.37102 -14.32171 -14.30869 -10.31811
 Alpha  occ. eigenvalues --  -10.29829 -10.26912 -10.26217 -10.24633 -10.24325
 Alpha  occ. eigenvalues --  -10.23798 -10.23532 -10.23182 -10.22917 -10.22496
 Alpha  occ. eigenvalues --  -10.22476 -10.22459 -10.22270 -10.22096 -10.22089
 Alpha  occ. eigenvalues --  -10.21981 -10.21888 -10.21771 -10.21367 -10.21241
 Alpha  occ. eigenvalues --  -10.21229 -10.20700 -10.20554 -10.20550 -10.20503
 Alpha  occ. eigenvalues --  -10.20430 -10.20373 -10.20259 -10.20168 -10.19950
 Alpha  occ. eigenvalues --  -10.19892 -10.19582 -10.19542 -10.19363 -10.19333
 Alpha  occ. eigenvalues --  -10.19206 -10.19190 -10.19038 -10.19033 -10.18969
 Alpha  occ. eigenvalues --  -10.18960 -10.18864 -10.18818 -10.18757 -10.18615
 Alpha  occ. eigenvalues --  -10.18503 -10.18477 -10.18459 -10.18384 -10.18281
 Alpha  occ. eigenvalues --  -10.18110 -10.17652 -10.16913 -10.16417  -1.09753
 Alpha  occ. eigenvalues --   -1.07826  -1.03548  -0.99876  -0.99582  -0.97856
 Alpha  occ. eigenvalues --   -0.97127  -0.96281  -0.93609  -0.86138  -0.83985
 Alpha  occ. eigenvalues --   -0.82205  -0.81792  -0.81584  -0.81371  -0.81032
 Alpha  occ. eigenvalues --   -0.80372  -0.79758  -0.79261  -0.78902  -0.77945
 Alpha  occ. eigenvalues --   -0.76858  -0.76008  -0.75573  -0.74998  -0.73913
 Alpha  occ. eigenvalues --   -0.73452  -0.72851  -0.72596  -0.71709  -0.70314
 Alpha  occ. eigenvalues --   -0.70038  -0.69761  -0.68951  -0.68037  -0.67079
 Alpha  occ. eigenvalues --   -0.66938  -0.66633  -0.66456  -0.66194  -0.65696
 Alpha  occ. eigenvalues --   -0.64405  -0.63041  -0.62365  -0.61797  -0.60971
 Alpha  occ. eigenvalues --   -0.60638  -0.58938  -0.58516  -0.58330  -0.57050
 Alpha  occ. eigenvalues --   -0.56433  -0.55680  -0.55573  -0.55208  -0.55061
 Alpha  occ. eigenvalues --   -0.54524  -0.54182  -0.53397  -0.53348  -0.52661
 Alpha  occ. eigenvalues --   -0.52167  -0.51731  -0.51279  -0.51045  -0.50476
 Alpha  occ. eigenvalues --   -0.49561  -0.49507  -0.48848  -0.48619  -0.48257
 Alpha  occ. eigenvalues --   -0.48108  -0.47803  -0.47706  -0.47269  -0.47235
 Alpha  occ. eigenvalues --   -0.47040  -0.46612  -0.46281  -0.46028  -0.45956
 Alpha  occ. eigenvalues --   -0.45601  -0.45462  -0.44828  -0.44560  -0.44448
 Alpha  occ. eigenvalues --   -0.44355  -0.44162  -0.43922  -0.43860  -0.43714
 Alpha  occ. eigenvalues --   -0.43505  -0.43322  -0.43073  -0.42956  -0.42881
 Alpha  occ. eigenvalues --   -0.42466  -0.42386  -0.42259  -0.41796  -0.41504
 Alpha  occ. eigenvalues --   -0.41342  -0.41228  -0.41043  -0.40855  -0.40522
 Alpha  occ. eigenvalues --   -0.40326  -0.39987  -0.39885  -0.39747  -0.39480
 Alpha  occ. eigenvalues --   -0.39323  -0.39055  -0.38787  -0.38758  -0.38581
 Alpha  occ. eigenvalues --   -0.38303  -0.37924  -0.37813  -0.37595  -0.37508
 Alpha  occ. eigenvalues --   -0.37086  -0.36877  -0.36661  -0.36610  -0.36408
 Alpha  occ. eigenvalues --   -0.36325  -0.36081  -0.35755  -0.35655  -0.35607
 Alpha  occ. eigenvalues --   -0.35107  -0.35047  -0.34957  -0.34590  -0.34507
 Alpha  occ. eigenvalues --   -0.34452  -0.34335  -0.34138  -0.33986  -0.33607
 Alpha  occ. eigenvalues --   -0.33195  -0.32971  -0.32695  -0.32641  -0.31840
 Alpha  occ. eigenvalues --   -0.31531  -0.31457  -0.31248  -0.31164  -0.30988
 Alpha  occ. eigenvalues --   -0.30494  -0.30400  -0.30170  -0.29865  -0.29454
 Alpha  occ. eigenvalues --   -0.29382  -0.28667  -0.28585  -0.27913  -0.27633
 Alpha  occ. eigenvalues --   -0.27090  -0.26786  -0.26456  -0.26168  -0.25802
 Alpha  occ. eigenvalues --   -0.25751  -0.24357  -0.23588  -0.22809  -0.19804
 Alpha  occ. eigenvalues --   -0.19153
 Alpha virt. eigenvalues --   -0.10948  -0.07828  -0.04335  -0.02999  -0.00714
 Alpha virt. eigenvalues --    0.00020   0.00281   0.01569   0.02106   0.03210
 Alpha virt. eigenvalues --    0.03568   0.03990   0.04151   0.04393   0.04695

 Mulliken charges:
               1
     1  C    0.053133
     2  C   -0.033104
     3  C   -0.120338
     4  C   -0.034833
     5  N   -0.115607
     6  C   -0.066436
     7  C   -0.100339
     8  C   -0.047046
     9  C   -0.011200
    10  C    0.327774
    11  C   -0.034548
    12  C   -0.008714
    13  C    0.222453
    14  O   -0.248696
    15  O   -0.344751
    16  N   -0.076833
    17  C   -0.018636
    18  C   -0.117130
    19  C   -0.027223
    20  C    0.087160
    21  C    0.087632
    22  C   -0.091884
    23  C   -0.084780
    24  N   -0.236569
    25  C    0.098546
    26  C   -0.140768
    27  C   -0.005671
    28  C    0.096096
    29  C    0.001615
    30  C   -0.121652
    31  C    0.017278
    32  N   -0.097853
    33  C    0.030546
    34  C   -0.109959
    35  C    0.021814
    36  C    0.086558
    37  C    0.091506
    38  C    0.002599
    39  O   -0.149107
    40  C    0.032760
    41  C    0.126812
    42  O   -0.222570
    43  O   -0.292755
    44  C    0.200549
    45  C    0.259303
    46  C   -0.035255
    47  C   -0.130050
    48  C   -0.040518
    49  C   -0.012372
    50  C    0.040661
    51  C   -0.036288
    52  C   -0.001450
    53  C    0.038726
    54  C   -0.023465
    55  C    0.011434
    56  C    0.108914
    57  C   -0.118445
    58  C    0.049285
    59  C    0.070441
    60  C    0.019349
    61  C   -0.023766
    62  C   -0.138243
    63  C   -0.025761
    64  C    0.032444
    65  H   -0.016028
    66  H    0.035574
    67  H   -0.026210
    68  H    0.003070
    69  H    0.003817
    70  H   -0.053622
    71  H   -0.032101
    72  H    0.016667
    73  H    0.054254
    74  H    0.023242
    75  H    0.049701
    76  H    0.032029
    77  H    0.053203
    78  H   -0.018688
    79  H    0.038424
    80  H    0.045577
    81  H    0.063212
    82  H    0.046973
    83  H    0.043122
    84  H    0.060574
    85  H    0.034603
    86  H    0.009499
    87  H    0.012050
    88  H    0.038022
    89  H    0.021663
    90  H    0.014591
    91  H    0.066560
    92  H    0.028435
    93  H   -0.004053
    94  H    0.001763
    95  H    0.010872
    96  H    0.043056
    97  H    0.031369
    98  H    0.044738
    99  H    0.043489
   100  H   -0.012710
   101  H    0.051720
   102  H    0.036180
   103  H    0.035046
   104  H    0.006743
   105  H   -0.000370
   106  H    0.037735
   107  H    0.017015
   108  H    0.006051
   109  H   -0.005660
   110  H   -0.030194
   111  H   -0.000018
   112  H    0.024778
   113  H   -0.003236
   114  H   -0.009560
   115  H   -0.009257
   116  H    0.001212
   117  H    0.009767
   118  H   -0.032361
   119  H   -0.026360
   120  H   -0.014790
   121  H   -0.021162
   122  H   -0.011921
   123  H   -0.000692
   124  H   -0.025417
   125  H    0.002889
   126  H    0.016818
   127  H    0.009545
   128  H   -0.008352
   129  H    0.003137
   130  H   -0.009151
   131  H    0.021808
   132  H    0.032153
   133  H    0.011375
   134  H    0.039422
   135  H    0.010677
   136  H    0.011354
   137  H    0.160120
   138  H    0.185444
 Sum of Mulliken charges =   0.00000

 Dipole moment (field-independent basis, Debye):
    X=              1.3406    Y=              3.4635    Z=              1.3397  Tot=              3.9482
 Quadrupole moment (field-independent basis, Debye-Ang):
   XX=           -357.4239   YY=           -381.5089   ZZ=           -395.3512
   XY=            -19.5686   XZ=              0.2235   YZ=              2.9214

 Normal termination of Gaussian 09 at Wed Jul 31 06:41:58 2019.
