 Gaussian 09, Revision D.01,
 Gaussian 09:  ES64L-G09RevD.01 24-Apr-2013

 --------------------------
 # td=(NStates=1) B3LYP/SVP
 --------------------------

 --
 TD
 --
 Symbolic Z-matrix:
 Charge =  0 Multiplicity = 1

                         Standard orientation:
 ---------------------------------------------------------------------
 Center     Atomic      Atomic             Coordinates (Angstroms)
 Number     Number       Type             X           Y           Z
 ---------------------------------------------------------------------
      1          6           0       -5.171593   -1.863187    0.550233
      2          6           0       -4.612725    2.833537    1.130404
      3          6           0       -9.401550    3.294366   -0.062383
      4          6           0       -9.906803   -1.511127   -0.802621
      5          7           0       -5.129590    0.486444    0.705106
      6          6           0       -4.377432   -0.693811    0.782503
      7          6           0       -2.958630   -0.500656    1.201739
      8          6           0       -2.999404    0.936440    1.674015
      9          6           0       -4.374795    1.484058    1.231153
     10          6           0       -2.899581    1.102213    3.176373
     11          6           0       -1.922205   -0.707766   -0.051626
     12          6           0       -0.578522   -0.670147    0.423125
     13          6           0        0.344027   -0.895115   -0.638288
     14          8           0        0.108445   -1.335951   -1.763084
     15          8           0        1.657897   -0.691061   -0.300083
     16          7           0       -7.016287    2.743368    0.516538
     17          6           0       -5.835811    3.435574    0.841907
     18          6           0       -6.134258    4.861243    0.806212
     19          6           0       -7.431295    5.001064    0.443968
     20          6           0       -8.039816    3.590782    0.237232
     21          6           0       -5.121665    5.824131    1.089597
     22          6           0       -8.122255    6.321686    0.214576
     23          6           0       -9.275698    6.535111   -0.459037
     24          7           0       -9.253136    0.780086   -0.369674
     25          6           0       -9.864771    1.989764   -0.372402
     26          6           0      -11.316914    1.767797   -0.679249
     27          6           0      -11.437147    0.468363   -0.885201
     28          6           0      -10.118058   -0.174420   -0.651344
     29          6           0      -12.341656    2.848418   -0.842720
     30          6           0      -12.767079   -0.274317   -1.410097
     31          6           0      -12.867302   -0.506762   -2.961972
     32          7           0       -7.629891   -1.301333   -0.147860
     33          6           0       -8.695851   -2.098716   -0.498679
     34          6           0       -8.163583   -3.440523   -0.517836
     35          6           0       -6.812046   -3.310386   -0.220387
     36          6           0       -6.488883   -2.079097    0.182738
     37          6           0       -8.969469   -4.745418   -0.881576
     38          6           0       -5.751716   -4.322643    0.055970
     39          8           0       -5.465377   -5.484007    0.020351
     40          6           0       -4.492047   -3.320066    0.565413
     41          6           0       -3.788617   -3.724810    1.795018
     42          8           0       -3.999064   -3.290426    2.901006
     43          8           0       -3.007696   -4.733207    1.558565
     44          6           0       -2.412718   -5.368050    2.625724
     45          6           0        2.592172   -0.929126   -1.317386
     46          6           0        3.951036   -0.824789   -0.747244
     47          6           0        4.955632   -0.020484   -1.188452
     48          6           0        4.855630    0.716757   -2.603419
     49          6           0        6.243311    0.120969   -0.459168
     50          6           0        7.464804   -0.614767   -1.188834
     51          6           0        8.821517   -0.469669   -0.374095
     52          6           0       10.106518   -0.769710   -1.032657
     53          6           0       10.056240   -2.301606   -1.377035
     54          6           0       11.283323   -0.303908   -0.174955
     55          6           0       12.691025   -0.525460   -0.774008
     56          6           0       13.832980    0.131596    0.138167
     57          6           0       15.265049   -0.188848   -0.259734
     58          6           0       15.562991   -1.589506   -0.257749
     59          6           0       16.217494    0.630755    0.610133
     60          6           0       17.592368    0.669246    0.024967
     61          6           0       18.492235    1.517435    0.902538
     62          6           0       19.997205    1.612627    0.364103
     63          6           0       20.021699    2.612706   -0.917364
     64          6           0       20.889298    2.214854    1.439022
     65          1           0       -3.907383    3.524471    1.364189
     66          1           0       -9.896061    4.238007   -0.362924
     67          1           0      -10.598760   -2.205578   -1.214861
     68          1           0       -2.868158   -1.032562    2.116135
     69          1           0       -2.244756    1.783182    1.174264
     70          1           0       -1.875667    0.551836    3.490005
     71          1           0       -2.809650    2.048235    3.401666
     72          1           0       -3.923357    0.631731    3.642310
     73          1           0       -2.086761   -1.722326   -0.438717
     74          1           0       -2.412198    0.127520   -0.542532
     75          1           0       -0.219667    0.189933    0.915083
     76          1           0       -0.419399   -1.636043    1.084870
     77          1           0       -4.032199    5.606191    0.534277
     78          1           0       -5.283819    6.886356    0.634369
     79          1           0       -5.144966    5.876986    2.307139
     80          1           0       -7.834274    6.850909    1.085539
     81          1           0       -9.875602    5.870345   -1.282895
     82          1           0       -9.729881    7.613561   -0.315375
     83          1           0      -12.581640    3.268615    0.046660
     84          1           0      -12.136183    3.588430   -1.625679
     85          1           0      -13.229205    2.446351   -1.090224
     86          1           0      -12.867686   -1.269576   -0.977496
     87          1           0      -13.654870    0.142349   -1.074170
     88          1           0      -12.962244    0.482148   -3.418749
     89          1           0      -11.811651   -0.770207   -3.416221
     90          1           0      -13.467242   -1.258693   -3.410660
     91          1           0       -9.409121   -5.171002    0.280416
     92          1           0       -9.828831   -4.535936   -1.781520
     93          1           0       -8.079311   -5.612995   -1.230469
     94          1           0       -3.796147   -3.303119   -0.289390
     95          1           0       -2.105054   -6.449471    2.203372
     96          1           0       -1.706534   -4.848623    3.307935
     97          1           0       -3.260862   -5.668716    3.318889
     98          1           0        2.290922   -2.065408   -1.744386
     99          1           0        2.443249   -0.188140   -2.106355
    100          1           0        4.072788   -1.306110    0.114508
    101          1           0        5.049668    1.716566   -2.536839
    102          1           0        5.590119    0.103945   -3.239955
    103          1           0        3.952739    0.698624   -3.281708
    104          1           0        6.481193    1.135064   -0.330210
    105          1           0        5.981603   -0.168205    0.721348
    106          1           0        7.296643   -1.652000   -1.473208
    107          1           0        7.605921    0.012801   -2.130053
    108          1           0        8.800504    0.493275    0.024374
    109          1           0        8.848000   -1.145600    0.313810
    110          1           0       10.158893   -0.103697   -1.960259
    111          1           0        9.207708   -2.587716   -2.073803
    112          1           0       11.029068   -2.466571   -2.058739
    113          1           0       10.015764   -2.723237   -0.312535
    114          1           0       11.194483    0.624836    0.012590
    115          1           0       11.231426   -0.812831    0.889275
    116          1           0       12.765975   -1.719938   -0.762821
    117          1           0       12.644424   -0.077008   -1.820723
    118          1           0       13.707196    1.292191   -0.015759
    119          1           0       13.775016   -0.175988    1.036232
    120          1           0       15.362154    0.037942   -1.604770
    121          1           0       14.957675   -2.008632   -1.004306
    122          1           0       16.471622   -2.044100   -0.660677
    123          1           0       15.592950   -2.137498    0.913612
    124          1           0       16.005965    1.691580    0.558446
    125          1           0       16.287029    0.390285    1.632929
    126          1           0       17.943003   -0.454883   -0.189709
    127          1           0       17.723590    1.041799   -0.896455
    128          1           0       18.002783    2.419913    0.907211
    129          1           0       18.409239    1.051489    1.889180
    130          1           0       20.563172    0.659960   -0.050675
    131          1           0       19.294419    3.507620   -0.761094
    132          1           0       21.077045    2.546775   -1.506896
    133          1           0       19.675903    2.051440   -1.836880
    134          1           0       21.155966    1.845929    2.381922
    135          1           0       21.904771    2.254513    0.934065
    136          1           0       20.585373    3.126460    1.837001
    137          1           0       -7.116283    1.722915    0.393664
    138          1           0       -7.839808   -0.173030   -0.295267
 ---------------------------------------------------------------------

 SCF Done:  E(RB3LYP) =  -2732.91654554     A.U. after   17 cycles

 Excitation energies and oscillator strengths:

 Excited State   1:      Singlet-A      2.0556 eV  603.14 nm  f=0.1758  <S**2>=0.000
     235 -> 238       -0.31008
     236 -> 237        0.63396
 This state for optimization and/or second-order correction.
 Total Energy, E(TD-HF/TD-KS) =  -2732.84100247
 Copying the excited state density for this state as the 1-particle RhoCI density.

 The electronic state is 1-A.
 Alpha  occ. eigenvalues --  -19.17846 -19.16739 -19.13488 -19.11736 -19.10869
 Alpha  occ. eigenvalues --  -14.37652 -14.35010 -14.32472 -14.30970 -10.30795
 Alpha  occ. eigenvalues --  -10.30250 -10.28912 -10.25031 -10.24653 -10.24494
 Alpha  occ. eigenvalues --  -10.24197 -10.24158 -10.23067 -10.22991 -10.22724
 Alpha  occ. eigenvalues --  -10.22519 -10.22488 -10.22385 -10.22294 -10.21430
 Alpha  occ. eigenvalues --  -10.21264 -10.21192 -10.21113 -10.20943 -10.20818
 Alpha  occ. eigenvalues --  -10.20781 -10.20764 -10.20576 -10.20399 -10.20387
 Alpha  occ. eigenvalues --  -10.20321 -10.20305 -10.20164 -10.20047 -10.20007
 Alpha  occ. eigenvalues --  -10.19714 -10.19699 -10.19652 -10.19631 -10.19550
 Alpha  occ. eigenvalues --  -10.19260 -10.19253 -10.19163 -10.19060 -10.19030
 Alpha  occ. eigenvalues --  -10.18685 -10.18504 -10.18469 -10.18081 -10.18052
 Alpha  occ. eigenvalues --  -10.17983 -10.17387 -10.17332 -10.17236 -10.17106
 Alpha  occ. eigenvalues --  -10.17104 -10.16438 -10.16333 -10.15909  -1.11781
 Alpha  occ. eigenvalues --   -1.09067  -1.04271  -1.00322  -0.99304  -0.97769
 Alpha  occ. eigenvalues --   -0.96878  -0.94901  -0.93717  -0.84174  -0.83489
 Alpha  occ. eigenvalues --   -0.83000  -0.82891  -0.82292  -0.80903  -0.80701
 Alpha  occ. eigenvalues --   -0.79762  -0.79421  -0.78998  -0.78826  -0.77917
 Alpha  occ. eigenvalues --   -0.76845  -0.76236  -0.76084  -0.75092  -0.74394
 Alpha  occ. eigenvalues --   -0.74237  -0.73732  -0.72689  -0.70993  -0.70382
 Alpha  occ. eigenvalues --   -0.69826  -0.69560  -0.68240  -0.68002  -0.67681
 Alpha  occ. eigenvalues --   -0.67340  -0.67093  -0.66497  -0.66074  -0.64763
 Alpha  occ. eigenvalues --   -0.64184  -0.63083  -0.62315  -0.61880  -0.61641
 Alpha  occ. eigenvalues --   -0.61010  -0.59275  -0.58467  -0.58178  -0.57616
 Alpha  occ. eigenvalues --   -0.56924  -0.56303  -0.56107  -0.55577  -0.55077
 Alpha  occ. eigenvalues --   -0.54982  -0.53988  -0.53968  -0.53606  -0.53491
 Alpha  occ. eigenvalues --   -0.52784  -0.52462  -0.51468  -0.50869  -0.50642
 Alpha  occ. eigenvalues --   -0.50477  -0.49375  -0.49217  -0.48993  -0.48769
 Alpha  occ. eigenvalues --   -0.48628  -0.47777  -0.47506  -0.47355  -0.47093
 Alpha  occ. eigenvalues --   -0.47012  -0.46496  -0.46380  -0.45806  -0.45671
 Alpha  occ. eigenvalues --   -0.45361  -0.45107  -0.44996  -0.44900  -0.44508
 Alpha  occ. eigenvalues --   -0.44405  -0.44199  -0.43946  -0.43780  -0.43570
 Alpha  occ. eigenvalues --   -0.43429  -0.43271  -0.43193  -0.43081  -0.42948
 Alpha  occ. eigenvalues --   -0.42496  -0.42482  -0.42041  -0.41639  -0.41563
 Alpha  occ. eigenvalues --   -0.41461  -0.40945  -0.40809  -0.40564  -0.40341
 Alpha  occ. eigenvalues --   -0.40241  -0.40163  -0.40044  -0.39733  -0.39709
 Alpha  occ. eigenvalues --   -0.39373  -0.39210  -0.38945  -0.38786  -0.38511
 Alpha  occ. eigenvalues --   -0.38103  -0.37890  -0.37726  -0.37391  -0.37177
 Alpha  occ. eigenvalues --   -0.37130  -0.37026  -0.36808  -0.36705  -0.36226
 Alpha  occ. eigenvalues --   -0.36022  -0.35996  -0.35699  -0.35364  -0.35332
 Alpha  occ. eigenvalues --   -0.35183  -0.35137  -0.34858  -0.34486  -0.34204
 Alpha  occ. eigenvalues --   -0.34110  -0.33934  -0.33808  -0.33685  -0.33585
 Alpha  occ. eigenvalues --   -0.33444  -0.33242  -0.32957  -0.32670  -0.32560
 Alpha  occ. eigenvalues --   -0.32385  -0.31853  -0.31769  -0.31677  -0.31091
 Alpha  occ. eigenvalues --   -0.30748  -0.30696  -0.30513  -0.30079  -0.30010
 Alpha  occ. eigenvalues --   -0.29523  -0.29159  -0.28565  -0.27743  -0.27344
 Alpha  occ. eigenvalues --   -0.27253  -0.27062  -0.26685  -0.26294  -0.25154
 Alpha  occ. eigenvalues --   -0.24870  -0.24167  -0.24013  -0.23916  -0.20073
 Alpha  occ. eigenvalues --   -0.18803
 Alpha virt. eigenvalues --   -0.10146  -0.07834  -0.04539  -0.02539  -0.00655
 Alpha virt. eigenvalues --    0.00246   0.00329   0.00672   0.01992   0.03180
 Alpha virt. eigenvalues --    0.03291   0.03322   0.04008   0.04353   0.04563

 Mulliken charges:
               1
     1  C    0.003167
     2  C   -0.010018
     3  C   -0.058874
     4  C   -0.101035
     5  N   -0.198764
     6  C   -0.135959
     7  C    0.153490
     8  C   -0.219795
     9  C    0.051795
    10  C    0.095091
    11  C    0.076119
    12  C    0.126639
    13  C    0.142522
    14  O   -0.257392
    15  O   -0.321302
    16  N   -0.075190
    17  C    0.079439
    18  C   -0.063304
    19  C   -0.052087
    20  C    0.035024
    21  C   -0.050656
    22  C    0.021834
    23  C   -0.110176
    24  N   -0.223169
    25  C    0.080658
    26  C   -0.179527
    27  C   -0.084870
    28  C    0.116899
    29  C    0.253621
    30  C    0.105184
    31  C   -0.012005
    32  N   -0.189285
    33  C    0.068888
    34  C   -0.076727
    35  C   -0.088970
    36  C    0.175497
    37  C   -0.093270
    38  C    0.139143
    39  O   -0.129812
    40  C   -0.132481
    41  C    0.174318
    42  O   -0.240138
    43  O   -0.224200
    44  C    0.133335
    45  C    0.254337
    46  C   -0.018353
    47  C   -0.139351
    48  C    0.032994
    49  C    0.064321
    50  C    0.002254
    51  C    0.145822
    52  C   -0.083617
    53  C   -0.030523
    54  C    0.083865
    55  C   -0.033918
    56  C    0.143050
    57  C   -0.127953
    58  C    0.029813
    59  C    0.119534
    60  C    0.023330
    61  C    0.088295
    62  C   -0.100081
    63  C   -0.046353
    64  C    0.091904
    65  H   -0.078436
    66  H   -0.025145
    67  H   -0.039317
    68  H   -0.014665
    69  H    0.017217
    70  H    0.029647
    71  H   -0.036281
    72  H    0.053695
    73  H    0.024989
    74  H    0.027170
    75  H    0.009777
    76  H    0.059800
    77  H    0.061764
    78  H    0.040680
    79  H    0.067889
    80  H    0.017354
    81  H    0.083625
    82  H    0.046410
    83  H   -0.018928
    84  H    0.015971
    85  H   -0.053033
    86  H   -0.014976
    87  H   -0.017764
    88  H    0.003538
    89  H    0.005009
    90  H    0.016734
    91  H    0.074455
    92  H    0.072888
    93  H    0.079787
    94  H    0.053922
    95  H    0.048338
    96  H    0.040023
    97  H    0.019273
    98  H    0.040029
    99  H   -0.002688
   100  H   -0.070821
   101  H    0.000805
   102  H    0.039008
   103  H    0.020108
   104  H   -0.013783
   105  H    0.015217
   106  H    0.011174
   107  H    0.007742
   108  H   -0.036640
   109  H   -0.074077
   110  H   -0.022280
   111  H    0.031671
   112  H    0.031612
   113  H    0.030690
   114  H   -0.076860
   115  H   -0.013270
   116  H    0.032376
   117  H    0.007374
   118  H    0.014474
   119  H   -0.067623
   120  H   -0.008570
   121  H   -0.011287
   122  H    0.002606
   123  H    0.006179
   124  H   -0.029204
   125  H   -0.019642
   126  H   -0.016649
   127  H   -0.060196
   128  H   -0.033600
   129  H   -0.009761
   130  H    0.013064
   131  H    0.043601
   132  H    0.021072
   133  H    0.005443
   134  H   -0.021489
   135  H   -0.003207
   136  H   -0.025763
   137  H    0.153153
   138  H    0.215572
 Sum of Mulliken charges =   0.00000

 Dipole moment (field-independent basis, Debye):
    X=              1.1705    Y=              5.6655    Z=              0.2898  Tot=              5.7924
 Quadrupole moment (field-independent basis, Debye-Ang):
   XX=           -355.8465   YY=           -379.4978   ZZ=           -397.7360
   XY=            -27.5223   XZ=              8.8116   YZ=              0.9135

 Normal termination of Gaussian 09 at Fri Aug  2 17:23:09 2019.
