 Gaussian 09, Revision D.01,
 Gaussian 09:  ES64L-G09RevD.01 24-Apr-2013

 --------------------------
 # td=(NStates=1) B3LYP/SVP
 --------------------------

 --
 TD
 --
 Symbolic Z-matrix:
 Charge =  0 Multiplicity = 1

                         Standard orientation:
 ---------------------------------------------------------------------
 Center     Atomic      Atomic             Coordinates (Angstroms)
 Number     Number       Type             X           Y           Z
 ---------------------------------------------------------------------
      1          6           0       -5.123203   -1.888415    0.468648
      2          6           0       -4.785718    2.735454    1.323327
      3          6           0       -9.393106    3.235658   -0.140749
      4          6           0       -9.851785   -1.537007   -0.873692
      5          7           0       -5.200390    0.408060    0.753786
      6          6           0       -4.402640   -0.718511    0.761598
      7          6           0       -3.020206   -0.459206    1.263163
      8          6           0       -3.106095    0.858138    1.834515
      9          6           0       -4.391631    1.357585    1.251590
     10          6           0       -2.950217    0.991113    3.388284
     11          6           0       -2.042028   -0.561560    0.113532
     12          6           0       -0.540762   -0.578766    0.524798
     13          6           0        0.386912   -0.894496   -0.607853
     14          8           0        0.114575   -1.583412   -1.634668
     15          8           0        1.674216   -0.548483   -0.291201
     16          7           0       -7.032074    2.674436    0.424166
     17          6           0       -6.011364    3.367670    0.952261
     18          6           0       -6.258034    4.794806    1.004489
     19          6           0       -7.582324    4.894225    0.455666
     20          6           0       -8.086884    3.588414    0.147211
     21          6           0       -5.299633    5.808891    1.418893
     22          6           0       -8.356537    6.187125    0.214914
     23          6           0       -9.062073    6.512526   -0.913742
     24          7           0       -9.195226    0.757170   -0.414653
     25          6           0       -9.906160    1.952448   -0.549241
     26          6           0      -11.294438    1.795274   -0.803713
     27          6           0      -11.554533    0.453754   -0.962790
     28          6           0      -10.189037   -0.133052   -0.760517
     29          6           0      -12.304025    2.977405   -1.036902
     30          6           0      -12.775210   -0.261757   -1.599563
     31          6           0      -12.826880   -0.488576   -3.014481
     32          7           0       -7.526007   -1.268485   -0.025183
     33          6           0       -8.560627   -2.070608   -0.549582
     34          6           0       -8.210039   -3.405542   -0.488410
     35          6           0       -6.840932   -3.450002   -0.180248
     36          6           0       -6.463085   -2.079654    0.214834
     37          6           0       -9.004025   -4.526151   -0.848994
     38          6           0       -5.626873   -4.280422    0.045292
     39          8           0       -5.464251   -5.453795   -0.205898
     40          6           0       -4.464020   -3.278446    0.417227
     41          6           0       -3.917217   -3.662394    1.706395
     42          8           0       -4.176921   -3.309685    2.845570
     43          8           0       -2.968002   -4.676346    1.551720
     44          6           0       -2.472819   -5.453812    2.611541
     45          6           0        2.703526   -0.992723   -1.205569
     46          6           0        3.990140   -0.723436   -0.590092
     47          6           0        5.020059    0.057021   -1.020687
     48          6           0        4.875381    0.992691   -2.233080
     49          6           0        6.358408    0.131674   -0.244994
     50          6           0        7.515024   -0.564903   -0.904349
     51          6           0        8.814910   -0.437545   -0.142887
     52          6           0       10.007901   -0.790994   -1.007847
     53          6           0       10.102347   -2.379779   -1.373604
     54          6           0       11.317290   -0.474187   -0.131558
     55          6           0       12.763376   -0.641236   -0.740922
     56          6           0       13.758285   -0.080604    0.186152
     57          6           0       15.218059   -0.224303   -0.423870
     58          6           0       15.777486   -1.619997   -0.611232
     59          6           0       16.207947    0.641046    0.375703
     60          6           0       17.635200    0.869665   -0.111154
     61          6           0       18.555746    1.507305    0.843140
     62          6           0       20.011493    1.706522    0.282908
     63          6           0       20.101594    2.389561   -1.037327
     64          6           0       20.975474    2.460732    1.268996
     65          1           0       -4.147580    3.594583    1.499606
     66          1           0      -10.054141    4.141668   -0.572061
     67          1           0      -10.658343   -2.096728   -1.381230
     68          1           0       -2.676706   -1.109949    1.920669
     69          1           0       -2.177413    1.364062    1.638875
     70          1           0       -1.892237    0.594759    3.545103
     71          1           0       -2.885713    2.232815    3.601426
     72          1           0       -3.799895    0.425951    3.746918
     73          1           0       -1.903045   -1.631727   -0.433733
     74          1           0       -2.071629    0.182314   -0.692944
     75          1           0        0.023246    0.252283    0.934554
     76          1           0       -0.328601   -1.453614    1.109629
     77          1           0       -4.260211    5.944871    0.811344
     78          1           0       -5.784765    6.786374    1.642854
     79          1           0       -5.101728    5.563923    2.628054
     80          1           0       -8.173123    7.063971    0.807979
     81          1           0       -9.432963    5.627514   -1.640313
     82          1           0       -9.335000    7.562431   -1.034856
     83          1           0      -12.418350    3.259444   -0.025481
     84          1           0      -12.021484    3.828247   -1.843361
     85          1           0      -13.155127    2.649386   -1.368291
     86          1           0      -12.864026   -1.230117   -1.114452
     87          1           0      -13.573534    0.249756   -1.451014
     88          1           0      -12.921543    0.441982   -3.462864
     89          1           0      -11.814701   -1.127481   -3.382439
     90          1           0      -13.742276   -0.931233   -3.421272
     91          1           0       -9.897720   -4.524260   -0.340513
     92          1           0       -9.331528   -4.604181   -1.857758
     93          1           0       -8.473164   -5.514076   -0.901481
     94          1           0       -3.879903   -3.459046   -0.501112
     95          1           0       -1.987612   -6.391897    2.130346
     96          1           0       -1.416416   -4.973309    3.094979
     97          1           0       -3.155279   -5.646554    3.273162
     98          1           0        2.629803   -2.010805   -1.570876
     99          1           0        2.656945   -0.376204   -2.158626
    100          1           0        4.105861   -1.185636    0.364588
    101          1           0        5.417140    2.114687   -2.036789
    102          1           0        5.844952    0.561329   -2.983697
    103          1           0        3.819960    1.246020   -2.774720
    104          1           0        6.338928    1.313057   -0.091903
    105          1           0        6.316378   -0.198419    0.770786
    106          1           0        7.214300   -1.831800   -0.961806
    107          1           0        7.802325   -0.020802   -1.785441
    108          1           0        8.936444    0.705977   -0.056744
    109          1           0        8.782721   -1.044566    0.896169
    110          1           0       10.083133   -0.172388   -1.788900
    111          1           0        9.023938   -2.796188   -1.773535
    112          1           0       10.801774   -2.474637   -2.329124
    113          1           0       10.025931   -3.062822   -0.473847
    114          1           0       11.076444    0.456592    0.114808
    115          1           0       11.213448   -0.969989    0.849446
    116          1           0       13.090560   -1.578104   -1.194269
    117          1           0       12.872779    0.111045   -1.647618
    118          1           0       13.668431    0.980490    0.392595
    119          1           0       13.772364   -0.714610    1.129758
    120          1           0       15.246529    0.217308   -1.537498
    121          1           0       15.153946   -2.260752   -1.080172
    122          1           0       16.507143   -1.733665   -1.165821
    123          1           0       15.932882   -2.021871    0.377595
    124          1           0       15.812848    1.642670    0.629682
    125          1           0       16.267620    0.223641    1.371428
    126          1           0       18.078039   -0.141206   -0.211677
    127          1           0       17.743067    1.487488   -1.229695
    128          1           0       18.171230    2.459856    1.533199
    129          1           0       18.712851    0.760701    1.753000
    130          1           0       20.408587    0.696502   -0.029176
    131          1           0       19.447411    3.325699   -1.137537
    132          1           0       20.986845    2.635109   -1.583643
    133          1           0       19.542330    1.936976   -1.823626
    134          1           0       21.046773    2.178163    2.239634
    135          1           0       21.978938    2.478960    0.765660
    136          1           0       20.535007    3.472024    1.620773
    137          1           0       -7.262659    1.700709    0.764354
    138          1           0       -7.786870   -0.258907   -0.190613
 ---------------------------------------------------------------------

 SCF Done:  E(RB3LYP) =  -2732.94824125     A.U. after   17 cycles

 Excitation energies and oscillator strengths:

 Excited State   1:      Singlet-A      2.0378 eV  608.42 nm  f=0.1117  <S**2>=0.000
     235 -> 238       -0.35854
     236 -> 237        0.60621
 This state for optimization and/or second-order correction.
 Total Energy, E(TD-HF/TD-KS) =  -2732.87335333
 Copying the excited state density for this state as the 1-particle RhoCI density.

 The electronic state is 1-A.
 Alpha  occ. eigenvalues --  -19.18320 -19.15672 -19.12283 -19.12214 -19.12166
 Alpha  occ. eigenvalues --  -14.36513 -14.35847 -14.32486 -14.30916 -10.31872
 Alpha  occ. eigenvalues --  -10.31541 -10.28157 -10.24424 -10.24242 -10.23435
 Alpha  occ. eigenvalues --  -10.23434 -10.23392 -10.23369 -10.23100 -10.23025
 Alpha  occ. eigenvalues --  -10.22769 -10.22628 -10.21913 -10.21855 -10.21564
 Alpha  occ. eigenvalues --  -10.21291 -10.21278 -10.21196 -10.21156 -10.21062
 Alpha  occ. eigenvalues --  -10.21000 -10.20872 -10.20801 -10.20573 -10.20529
 Alpha  occ. eigenvalues --  -10.20504 -10.20358 -10.20308 -10.20096 -10.20008
 Alpha  occ. eigenvalues --  -10.19961 -10.19928 -10.19800 -10.19447 -10.19347
 Alpha  occ. eigenvalues --  -10.19331 -10.19246 -10.19187 -10.19186 -10.19151
 Alpha  occ. eigenvalues --  -10.19024 -10.19007 -10.19002 -10.18846 -10.18629
 Alpha  occ. eigenvalues --  -10.18369 -10.18068 -10.18016 -10.17855 -10.17688
 Alpha  occ. eigenvalues --  -10.17609 -10.17409 -10.16726 -10.15011  -1.08268
 Alpha  occ. eigenvalues --   -1.07507  -1.02813  -0.99089  -0.98317  -0.97702
 Alpha  occ. eigenvalues --   -0.97279  -0.95548  -0.93073  -0.84735  -0.83274
 Alpha  occ. eigenvalues --   -0.82655  -0.81857  -0.81386  -0.81279  -0.80862
 Alpha  occ. eigenvalues --   -0.80755  -0.80128  -0.79945  -0.78837  -0.78271
 Alpha  occ. eigenvalues --   -0.77081  -0.76380  -0.75962  -0.75357  -0.75107
 Alpha  occ. eigenvalues --   -0.73797  -0.73347  -0.72394  -0.72036  -0.71037
 Alpha  occ. eigenvalues --   -0.70438  -0.69686  -0.68843  -0.68471  -0.68121
 Alpha  occ. eigenvalues --   -0.68076  -0.66446  -0.66152  -0.65404  -0.65210
 Alpha  occ. eigenvalues --   -0.64180  -0.62709  -0.62076  -0.61848  -0.61341
 Alpha  occ. eigenvalues --   -0.60688  -0.58779  -0.58533  -0.57698  -0.57067
 Alpha  occ. eigenvalues --   -0.56836  -0.56388  -0.56047  -0.55891  -0.55878
 Alpha  occ. eigenvalues --   -0.54991  -0.54638  -0.54509  -0.53440  -0.53197
 Alpha  occ. eigenvalues --   -0.52998  -0.52481  -0.52238  -0.51211  -0.50847
 Alpha  occ. eigenvalues --   -0.50086  -0.49232  -0.49010  -0.48642  -0.48513
 Alpha  occ. eigenvalues --   -0.47725  -0.47592  -0.47438  -0.47394  -0.47059
 Alpha  occ. eigenvalues --   -0.46610  -0.46378  -0.46140  -0.45819  -0.45724
 Alpha  occ. eigenvalues --   -0.45638  -0.45392  -0.45171  -0.44971  -0.44851
 Alpha  occ. eigenvalues --   -0.44537  -0.44376  -0.43984  -0.43735  -0.43631
 Alpha  occ. eigenvalues --   -0.43417  -0.43274  -0.42909  -0.42851  -0.42614
 Alpha  occ. eigenvalues --   -0.42315  -0.42093  -0.42065  -0.41768  -0.41615
 Alpha  occ. eigenvalues --   -0.41252  -0.41170  -0.41028  -0.40838  -0.40810
 Alpha  occ. eigenvalues --   -0.40419  -0.40073  -0.39684  -0.39356  -0.39166
 Alpha  occ. eigenvalues --   -0.38808  -0.38676  -0.38565  -0.38250  -0.38220
 Alpha  occ. eigenvalues --   -0.38098  -0.38026  -0.37707  -0.37486  -0.37349
 Alpha  occ. eigenvalues --   -0.37255  -0.37076  -0.36909  -0.36756  -0.36423
 Alpha  occ. eigenvalues --   -0.36247  -0.35965  -0.35781  -0.35716  -0.35405
 Alpha  occ. eigenvalues --   -0.35228  -0.35071  -0.35008  -0.34798  -0.34569
 Alpha  occ. eigenvalues --   -0.34204  -0.34064  -0.34027  -0.33878  -0.33731
 Alpha  occ. eigenvalues --   -0.33494  -0.32998  -0.32853  -0.32835  -0.32719
 Alpha  occ. eigenvalues --   -0.32200  -0.31942  -0.31626  -0.31579  -0.30992
 Alpha  occ. eigenvalues --   -0.30726  -0.30389  -0.30250  -0.30018  -0.29926
 Alpha  occ. eigenvalues --   -0.29287  -0.29039  -0.28530  -0.28429  -0.28130
 Alpha  occ. eigenvalues --   -0.27647  -0.27471  -0.27100  -0.25941  -0.25820
 Alpha  occ. eigenvalues --   -0.24916  -0.24281  -0.24202  -0.23462  -0.19491
 Alpha  occ. eigenvalues --   -0.19099
 Alpha virt. eigenvalues --   -0.10194  -0.08078  -0.04666  -0.02245  -0.01246
 Alpha virt. eigenvalues --   -0.00887  -0.00373   0.00092   0.01743   0.02995
 Alpha virt. eigenvalues --    0.03414   0.03563   0.03849   0.04556   0.04749

 Mulliken charges:
               1
     1  C   -0.025185
     2  C   -0.036016
     3  C   -0.115440
     4  C   -0.065489
     5  N   -0.168459
     6  C   -0.046336
     7  C    0.190446
     8  C   -0.039847
     9  C    0.058086
    10  C    0.015113
    11  C   -0.037782
    12  C    0.065991
    13  C    0.163214
    14  O   -0.288648
    15  O   -0.324952
    16  N   -0.069413
    17  C   -0.033157
    18  C   -0.077995
    19  C    0.040161
    20  C    0.078799
    21  C    0.001582
    22  C   -0.042813
    23  C   -0.064646
    24  N   -0.291875
    25  C    0.062764
    26  C   -0.157409
    27  C   -0.099691
    28  C    0.013968
    29  C    0.166411
    30  C    0.186030
    31  C    0.018003
    32  N   -0.055434
    33  C    0.072914
    34  C   -0.132395
    35  C   -0.019351
    36  C    0.109670
    37  C    0.158034
    38  C    0.046251
    39  O   -0.161334
    40  C   -0.017613
    41  C    0.233641
    42  O   -0.227381
    43  O   -0.336938
    44  C    0.195930
    45  C    0.314435
    46  C   -0.101899
    47  C   -0.090330
    48  C   -0.092164
    49  C    0.051605
    50  C    0.039738
    51  C   -0.047493
    52  C   -0.024391
    53  C   -0.039080
    54  C    0.110826
    55  C    0.055860
    56  C    0.043130
    57  C   -0.133105
    58  C    0.214965
    59  C    0.058337
    60  C    0.011524
    61  C   -0.052452
    62  C   -0.056914
    63  C    0.032218
    64  C    0.073367
    65  H   -0.045157
    66  H    0.023948
    67  H   -0.009402
    68  H   -0.079393
    69  H   -0.027661
    70  H    0.031520
    71  H    0.044037
    72  H    0.043230
    73  H    0.060849
    74  H    0.015940
    75  H    0.020178
    76  H    0.030565
    77  H    0.079615
    78  H    0.016074
    79  H    0.040977
    80  H   -0.006732
    81  H    0.061394
    82  H    0.032995
    83  H    0.023589
    84  H    0.047166
    85  H   -0.058048
    86  H   -0.008332
    87  H   -0.069197
    88  H   -0.021947
    89  H    0.027261
    90  H    0.006454
    91  H   -0.003595
    92  H   -0.000164
    93  H    0.028901
    94  H    0.071596
    95  H    0.039514
    96  H    0.018095
    97  H   -0.001691
    98  H    0.032347
    99  H   -0.002022
   100  H   -0.028767
   101  H    0.034841
   102  H    0.041729
   103  H    0.076985
   104  H    0.016642
   105  H   -0.016687
   106  H    0.040038
   107  H   -0.012071
   108  H    0.004929
   109  H    0.021761
   110  H   -0.044455
   111  H   -0.001296
   112  H    0.049816
   113  H    0.023379
   114  H   -0.069579
   115  H   -0.021254
   116  H    0.003227
   117  H   -0.013885
   118  H   -0.000556
   119  H   -0.002008
   120  H   -0.011848
   121  H   -0.052414
   122  H   -0.067360
   123  H   -0.014084
   124  H   -0.020881
   125  H   -0.031877
   126  H   -0.001262
   127  H    0.024142
   128  H    0.008621
   129  H    0.002894
   130  H    0.000022
   131  H   -0.017266
   132  H   -0.003186
   133  H   -0.024431
   134  H   -0.034982
   135  H    0.022221
   136  H    0.000625
   137  H    0.185603
   138  H    0.160182
 Sum of Mulliken charges =   0.00000

 Dipole moment (field-independent basis, Debye):
    X=              0.9910    Y=              5.2896    Z=              0.2140  Tot=              5.3859
 Quadrupole moment (field-independent basis, Debye-Ang):
   XX=           -335.5163   YY=           -382.7793   ZZ=           -398.2493
   XY=            -34.7284   XZ=             13.6832   YZ=             -0.1348

 Normal termination of Gaussian 09 at Sat Aug  3 06:24:40 2019.
