 Gaussian 09, Revision D.01,
 Gaussian 09:  ES64L-G09RevD.01 24-Apr-2013

 --------------------------
 # td=(NStates=1) B3LYP/SVP
 --------------------------

 --
 TD
 --
 Symbolic Z-matrix:
 Charge =  0 Multiplicity = 1

                         Standard orientation:
 ---------------------------------------------------------------------
 Center     Atomic      Atomic             Coordinates (Angstroms)
 Number     Number       Type             X           Y           Z
 ---------------------------------------------------------------------
      1          6           0       -5.195108   -1.915873    0.430571
      2          6           0       -4.531619    2.695397    1.356347
      3          6           0       -9.112828    3.449835   -0.251601
      4          6           0       -9.822588   -1.253532   -1.054467
      5          7           0       -5.188647    0.429812    0.859618
      6          6           0       -4.590448   -0.772475    0.794504
      7          6           0       -3.082306   -0.709192    1.260572
      8          6           0       -3.005104    0.671938    1.848222
      9          6           0       -4.311618    1.356128    1.218068
     10          6           0       -2.845225    0.859453    3.393363
     11          6           0       -2.059087   -0.940695    0.177956
     12          6           0       -0.554053   -0.874403    0.612879
     13          6           0        0.377846   -1.339236   -0.385471
     14          8           0        0.038038   -1.825141   -1.485435
     15          8           0        1.708848   -0.946392   -0.056981
     16          7           0       -6.833389    2.906384    0.350417
     17          6           0       -5.837048    3.362210    0.969856
     18          6           0       -5.999617    4.797474    1.128246
     19          6           0       -7.317636    5.023383    0.674239
     20          6           0       -7.826120    3.670837    0.150371
     21          6           0       -5.122912    5.812840    1.764056
     22          6           0       -7.833869    6.329001    0.476082
     23          6           0       -8.722115    6.786173   -0.407720
     24          7           0       -9.193206    1.014849   -0.656811
     25          6           0       -9.785124    2.282321   -0.559863
     26          6           0      -11.215237    2.137539   -0.939227
     27          6           0      -11.420486    0.815086   -1.210742
     28          6           0      -10.083531    0.138206   -0.953182
     29          6           0      -12.193414    3.349496   -1.079167
     30          6           0      -12.652770    0.250006   -1.774881
     31          6           0      -12.638655    0.102393   -3.245450
     32          7           0       -7.552776   -1.167901   -0.103932
     33          6           0       -8.709359   -1.897346   -0.572283
     34          6           0       -8.336985   -3.307639   -0.743995
     35          6           0       -6.984091   -3.375961   -0.345637
     36          6           0       -6.516872   -2.013887   -0.068876
     37          6           0       -9.345990   -4.432710   -1.034247
     38          6           0       -5.888721   -4.278313    0.093559
     39          8           0       -5.843727   -5.477836   -0.149652
     40          6           0       -4.613195   -3.402280    0.408311
     41          6           0       -4.027637   -3.915194    1.688723
     42          8           0       -4.231458   -3.424261    2.771315
     43          8           0       -3.386462   -5.081100    1.512850
     44          6           0       -3.059377   -5.935244    2.665014
     45          6           0        2.605933   -1.344776   -1.104971
     46          6           0        4.081866   -0.904576   -0.566472
     47          6           0        5.026331   -0.221609   -1.216617
     48          6           0        4.839724    0.229011   -2.655209
     49          6           0        6.303520    0.036584   -0.531070
     50          6           0        7.595736   -0.726587   -1.112087
     51          6           0        8.771183   -0.349060   -0.157180
     52          6           0       10.102957   -0.993951   -0.766424
     53          6           0       10.077656   -2.480960   -0.865133
     54          6           0       11.345946   -0.430631    0.044963
     55          6           0       12.650043   -0.782226   -0.480842
     56          6           0       13.848089    0.046525    0.155110
     57          6           0       15.229917   -0.171674   -0.327680
     58          6           0       15.777541   -1.636277   -0.266604
     59          6           0       16.211184    0.771850    0.354072
     60          6           0       17.610385    0.808496   -0.277431
     61          6           0       18.563455    1.804241    0.555981
     62          6           0       20.002614    1.939627    0.126840
     63          6           0       20.027909    2.631125   -1.278008
     64          6           0       20.746909    2.807972    1.118332
     65          1           0       -3.730979    3.226072    1.785597
     66          1           0       -9.963840    4.192696   -0.129161
     67          1           0      -10.530757   -1.995732   -1.545138
     68          1           0       -2.987161   -1.419960    2.141732
     69          1           0       -1.935137    1.237580    1.436825
     70          1           0       -1.976241    0.320382    3.849030
     71          1           0       -2.550377    2.113288    3.623433
     72          1           0       -3.763537    0.603907    4.247526
     73          1           0       -2.217879   -2.067956   -0.103994
     74          1           0       -2.292033   -0.318452   -0.606753
     75          1           0       -0.534529    0.154763    1.097801
     76          1           0       -0.416062   -1.586072    1.621050
     77          1           0       -4.379576    5.840933    0.916705
     78          1           0       -5.641945    6.691674    2.037833
     79          1           0       -4.460100    5.088332    2.659015
     80          1           0       -7.352791    7.084202    1.220055
     81          1           0       -9.226872    5.952541   -0.983054
     82          1           0       -9.215638    7.830273   -0.267443
     83          1           0      -12.031076    4.140563   -0.218284
     84          1           0      -11.617860    3.762591   -1.993690
     85          1           0      -13.276413    3.088921   -0.962196
     86          1           0      -12.834228   -0.868518   -1.368498
     87          1           0      -13.519864    0.736088   -1.507129
     88          1           0      -12.658795    1.113634   -3.747378
     89          1           0      -11.519420   -0.348368   -3.475593
     90          1           0      -13.301843   -0.491305   -3.627589
     91          1           0      -10.266157   -4.237649   -0.243029
     92          1           0       -9.557944   -4.730384   -2.121807
     93          1           0       -8.766359   -5.497668   -0.902936
     94          1           0       -3.908052   -3.417930   -0.318762
     95          1           0       -2.310189   -6.829657    2.491822
     96          1           0       -2.494046   -5.348745    3.565222
     97          1           0       -4.042839   -6.221615    3.037196
     98          1           0        2.447781   -2.532515   -1.072246
     99          1           0        2.494066   -1.089240   -2.184269
    100          1           0        4.276091   -1.217599    0.560690
    101          1           0        5.130357    1.318263   -2.612463
    102          1           0        5.651029   -0.402429   -3.385961
    103          1           0        3.891116    0.042886   -3.122499
    104          1           0        6.515958    1.060710   -0.561364
    105          1           0        5.914610    0.051257    0.624121
    106          1           0        7.536097   -1.795686   -1.240407
    107          1           0        7.807526   -0.369135   -2.001032
    108          1           0        8.896457    0.812260   -0.237663
    109          1           0        8.540872   -0.721343    0.832579
    110          1           0       10.213028   -0.670974   -1.842257
    111          1           0        8.996424   -2.824565   -1.347241
    112          1           0       10.909995   -3.176091   -1.217412
    113          1           0        9.990164   -2.861977    0.199285
    114          1           0       11.292798    0.527110    0.101160
    115          1           0       11.202212   -0.795463    1.180543
    116          1           0       12.950377   -1.880331   -0.598096
    117          1           0       12.641270   -0.447497   -1.734993
    118          1           0       13.632497    1.275084   -0.073142
    119          1           0       13.770848   -0.144990    1.322430
    120          1           0       15.176595    0.199202   -1.522283
    121          1           0       15.113695   -2.157886   -0.847195
    122          1           0       16.792480   -1.801186   -0.627207
    123          1           0       15.787877   -1.841721    0.794524
    124          1           0       15.845289    1.596590    0.262182
    125          1           0       16.006217    0.446582    1.336092
    126          1           0       18.153202   -0.208806   -0.629016
    127          1           0       17.669724    1.483502   -1.258990
    128          1           0       18.090128    2.726400    0.563498
    129          1           0       18.441150    1.422653    1.612030
    130          1           0       20.652689    0.986895   -0.072614
    131          1           0       19.530984    3.635521   -1.167508
    132          1           0       21.075772    2.837338   -1.603980
    133          1           0       19.598495    1.994735   -2.005288
    134          1           0       20.765658    2.508896    2.249019
    135          1           0       21.784798    2.928516    1.085109
    136          1           0       20.152163    3.876499    0.989898
    137          1           0       -6.990530    1.954115    0.411195
    138          1           0       -7.309197   -0.141228   -0.051664
 ---------------------------------------------------------------------

 SCF Done:  E(RB3LYP) =  -2732.92410658     A.U. after   17 cycles

 Excitation energies and oscillator strengths:

 Excited State   1:      Singlet-A      2.0386 eV  608.18 nm  f=0.1875  <S**2>=0.000
     235 -> 237       -0.11899
     235 -> 238       -0.24992
     236 -> 237        0.63931
 This state for optimization and/or second-order correction.
 Total Energy, E(TD-HF/TD-KS) =  -2732.84918844
 Copying the excited state density for this state as the 1-particle RhoCI density.

 The electronic state is 1-A.
 Alpha  occ. eigenvalues --  -19.17988 -19.17910 -19.13668 -19.12695 -19.12038
 Alpha  occ. eigenvalues --  -14.38541 -14.37519 -14.32324 -14.29722 -10.32474
 Alpha  occ. eigenvalues --  -10.31663 -10.28588 -10.26679 -10.25660 -10.24429
 Alpha  occ. eigenvalues --  -10.24326 -10.23785 -10.23727 -10.23298 -10.22969
 Alpha  occ. eigenvalues --  -10.22911 -10.22592 -10.22501 -10.22188 -10.22144
 Alpha  occ. eigenvalues --  -10.22009 -10.21626 -10.21509 -10.21362 -10.21280
 Alpha  occ. eigenvalues --  -10.20870 -10.20620 -10.20608 -10.20436 -10.20378
 Alpha  occ. eigenvalues --  -10.20272 -10.20237 -10.20163 -10.20106 -10.19998
 Alpha  occ. eigenvalues --  -10.19998 -10.19840 -10.19826 -10.19717 -10.19651
 Alpha  occ. eigenvalues --  -10.19544 -10.19523 -10.19519 -10.19347 -10.19330
 Alpha  occ. eigenvalues --  -10.19324 -10.19307 -10.19150 -10.19035 -10.18706
 Alpha  occ. eigenvalues --  -10.18673 -10.18180 -10.18135 -10.17838 -10.17783
 Alpha  occ. eigenvalues --  -10.17746 -10.17722 -10.16792 -10.15860  -1.09114
 Alpha  occ. eigenvalues --   -1.07348  -1.04787  -1.02535  -1.00320  -0.99785
 Alpha  occ. eigenvalues --   -0.97704  -0.95083  -0.93921  -0.84098  -0.82728
 Alpha  occ. eigenvalues --   -0.82452  -0.81959  -0.81800  -0.81514  -0.80709
 Alpha  occ. eigenvalues --   -0.80600  -0.80073  -0.79916  -0.78963  -0.77033
 Alpha  occ. eigenvalues --   -0.76742  -0.76224  -0.76079  -0.75008  -0.73721
 Alpha  occ. eigenvalues --   -0.73508  -0.72886  -0.72051  -0.71220  -0.71082
 Alpha  occ. eigenvalues --   -0.69961  -0.69065  -0.68475  -0.68271  -0.67801
 Alpha  occ. eigenvalues --   -0.67536  -0.67117  -0.66790  -0.66702  -0.64540
 Alpha  occ. eigenvalues --   -0.64075  -0.63380  -0.62483  -0.61714  -0.61255
 Alpha  occ. eigenvalues --   -0.60893  -0.59577  -0.58919  -0.58170  -0.57195
 Alpha  occ. eigenvalues --   -0.56903  -0.56570  -0.56022  -0.55451  -0.55308
 Alpha  occ. eigenvalues --   -0.55102  -0.54858  -0.53460  -0.52939  -0.52816
 Alpha  occ. eigenvalues --   -0.52710  -0.52297  -0.51507  -0.50560  -0.50245
 Alpha  occ. eigenvalues --   -0.50060  -0.49077  -0.48854  -0.48796  -0.48549
 Alpha  occ. eigenvalues --   -0.48305  -0.47718  -0.47499  -0.47211  -0.47044
 Alpha  occ. eigenvalues --   -0.47023  -0.46771  -0.46748  -0.46497  -0.46288
 Alpha  occ. eigenvalues --   -0.45703  -0.45329  -0.45050  -0.44856  -0.44589
 Alpha  occ. eigenvalues --   -0.44167  -0.44059  -0.43888  -0.43607  -0.43462
 Alpha  occ. eigenvalues --   -0.43301  -0.43190  -0.42962  -0.42780  -0.42416
 Alpha  occ. eigenvalues --   -0.42348  -0.42135  -0.41933  -0.41715  -0.41699
 Alpha  occ. eigenvalues --   -0.41536  -0.41104  -0.40767  -0.40578  -0.40426
 Alpha  occ. eigenvalues --   -0.40069  -0.40057  -0.39887  -0.39700  -0.39370
 Alpha  occ. eigenvalues --   -0.39152  -0.38757  -0.38616  -0.38459  -0.38376
 Alpha  occ. eigenvalues --   -0.38188  -0.37925  -0.37853  -0.37607  -0.37496
 Alpha  occ. eigenvalues --   -0.37479  -0.37065  -0.37020  -0.36448  -0.36403
 Alpha  occ. eigenvalues --   -0.36171  -0.36082  -0.35674  -0.35564  -0.35315
 Alpha  occ. eigenvalues --   -0.35281  -0.35180  -0.34768  -0.34407  -0.34313
 Alpha  occ. eigenvalues --   -0.34183  -0.33931  -0.33916  -0.33797  -0.33680
 Alpha  occ. eigenvalues --   -0.33433  -0.32782  -0.32605  -0.32499  -0.32329
 Alpha  occ. eigenvalues --   -0.32310  -0.32127  -0.31626  -0.31235  -0.30852
 Alpha  occ. eigenvalues --   -0.30807  -0.30592  -0.30321  -0.30071  -0.29758
 Alpha  occ. eigenvalues --   -0.29618  -0.28907  -0.28752  -0.28479  -0.28020
 Alpha  occ. eigenvalues --   -0.27813  -0.27678  -0.26946  -0.26709  -0.25886
 Alpha  occ. eigenvalues --   -0.25028  -0.24376  -0.23481  -0.22825  -0.20131
 Alpha  occ. eigenvalues --   -0.19114
 Alpha virt. eigenvalues --   -0.10699  -0.07683  -0.04876  -0.02989  -0.01852
 Alpha virt. eigenvalues --    0.00142   0.00828   0.00907   0.01684   0.02089
 Alpha virt. eigenvalues --    0.03592   0.03969   0.04079   0.04319   0.04433

 Mulliken charges:
               1
     1  C    0.024716
     2  C   -0.033610
     3  C   -0.057446
     4  C   -0.071570
     5  N   -0.172114
     6  C   -0.086986
     7  C   -0.016324
     8  C   -0.141313
     9  C    0.030569
    10  C   -0.050304
    11  C    0.087087
    12  C   -0.038396
    13  C    0.262780
    14  O   -0.252386
    15  O   -0.337300
    16  N    0.243571
    17  C   -0.031554
    18  C   -0.157014
    19  C    0.008565
    20  C    0.030916
    21  C    0.068945
    22  C   -0.083779
    23  C   -0.059699
    24  N   -0.190028
    25  C   -0.050101
    26  C   -0.117167
    27  C   -0.093964
    28  C    0.045687
    29  C    0.034426
    30  C    0.073936
    31  C    0.044253
    32  N   -0.074787
    33  C    0.071163
    34  C   -0.112507
    35  C    0.021245
    36  C   -0.012114
    37  C   -0.027516
    38  C    0.082760
    39  O   -0.180742
    40  C    0.070425
    41  C    0.174559
    42  O   -0.221916
    43  O   -0.305279
    44  C    0.129799
    45  C    0.212486
    46  C   -0.106372
    47  C   -0.144537
    48  C    0.038314
    49  C    0.070226
    50  C    0.110590
    51  C    0.004736
    52  C   -0.089288
    53  C   -0.036578
    54  C    0.169253
    55  C   -0.043678
    56  C   -0.059140
    57  C   -0.150516
    58  C    0.104912
    59  C    0.243562
    60  C   -0.048679
    61  C    0.044230
    62  C   -0.075148
    63  C    0.019592
    64  C    0.004571
    65  H   -0.050129
    66  H    0.006723
    67  H    0.008373
    68  H    0.027482
    69  H    0.026261
    70  H    0.029271
    71  H    0.022086
    72  H    0.054578
    73  H    0.029221
    74  H   -0.006975
    75  H    0.045126
    76  H    0.055752
    77  H    0.051512
    78  H    0.028203
    79  H    0.054881
    80  H    0.004960
    81  H    0.024836
    82  H    0.042934
    83  H    0.036557
    84  H    0.061391
    85  H    0.040956
    86  H   -0.004631
    87  H   -0.032596
    88  H    0.011379
    89  H    0.013617
    90  H   -0.027364
    91  H    0.079709
    92  H    0.052763
    93  H    0.053829
    94  H    0.025918
    95  H    0.069068
    96  H    0.046393
    97  H    0.045344
    98  H    0.024378
    99  H    0.031999
   100  H    0.013195
   101  H    0.028844
   102  H    0.038595
   103  H    0.008731
   104  H   -0.031433
   105  H    0.010337
   106  H    0.006489
   107  H   -0.048421
   108  H    0.016217
   109  H    0.008002
   110  H   -0.005659
   111  H    0.021390
   112  H    0.036015
   113  H   -0.006477
   114  H   -0.077566
   115  H   -0.002905
   116  H    0.018682
   117  H   -0.004639
   118  H    0.021675
   119  H    0.006966
   120  H   -0.012695
   121  H   -0.007420
   122  H    0.004634
   123  H   -0.007500
   124  H   -0.118062
   125  H   -0.032012
   126  H    0.027729
   127  H    0.006688
   128  H   -0.028182
   129  H   -0.005137
   130  H    0.006478
   131  H    0.005243
   132  H    0.005654
   133  H    0.012457
   134  H    0.009267
   135  H   -0.009661
   136  H    0.011228
   137  H    0.115378
   138  H    0.176046
 Sum of Mulliken charges =   0.00000

 Dipole moment (field-independent basis, Debye):
    X=              0.9788    Y=              2.5684    Z=              1.0356  Tot=              2.9373
 Quadrupole moment (field-independent basis, Debye-Ang):
   XX=           -348.8667   YY=           -384.6928   ZZ=           -397.5644
   XY=            -14.4393   XZ=              3.7324   YZ=             -1.6368

 Normal termination of Gaussian 09 at Mon Aug  5 01:15:22 2019.
