 Gaussian 09, Revision D.01,
 Gaussian 09:  ES64L-G09RevD.01 24-Apr-2013

 --------------------------
 # td=(NStates=1) B3LYP/SVP
 --------------------------

 --
 TD
 --
 Symbolic Z-matrix:
 Charge =  0 Multiplicity = 1

                         Standard orientation:
 ---------------------------------------------------------------------
 Center     Atomic      Atomic             Coordinates (Angstroms)
 Number     Number       Type             X           Y           Z
 ---------------------------------------------------------------------
      1          6           0       -5.021774   -1.957102    0.436782
      2          6           0       -4.755347    2.788310    1.337394
      3          6           0       -9.426643    3.215679   -0.263426
      4          6           0       -9.820820   -1.522576   -0.909121
      5          7           0       -5.106575    0.341998    0.931068
      6          6           0       -4.396384   -0.823899    0.982875
      7          6           0       -2.984863   -0.532311    1.294077
      8          6           0       -2.984701    0.954231    1.757925
      9          6           0       -4.384572    1.486430    1.400630
     10          6           0       -2.854375    1.070356    3.349455
     11          6           0       -2.021972   -0.786500    0.181038
     12          6           0       -0.625608   -0.607864    0.538902
     13          6           0        0.305354   -0.769338   -0.665841
     14          8           0        0.002430   -1.110968   -1.801254
     15          8           0        1.647387   -0.547535   -0.320162
     16          7           0       -7.061405    2.750868    0.519102
     17          6           0       -5.979404    3.457038    0.879833
     18          6           0       -6.193588    4.809374    0.960094
     19          6           0       -7.560331    4.922566    0.611570
     20          6           0       -8.088030    3.538471    0.143529
     21          6           0       -5.452880    5.807257    1.326683
     22          6           0       -8.355101    6.146923    0.272950
     23          6           0       -9.253670    6.422167   -0.692707
     24          7           0       -9.250403    0.856589   -0.612017
     25          6           0       -9.965580    2.050685   -0.605532
     26          6           0      -11.408416    1.714075   -0.786630
     27          6           0      -11.470109    0.382507   -1.011346
     28          6           0      -10.145782   -0.125431   -0.889385
     29          6           0      -12.385595    2.759630   -0.909878
     30          6           0      -12.739630   -0.379839   -1.410132
     31          6           0      -12.830102   -0.487498   -2.990413
     32          7           0       -7.527922   -1.307217   -0.265883
     33          6           0       -8.600680   -2.097333   -0.640567
     34          6           0       -8.137393   -3.425908   -0.625158
     35          6           0       -6.764889   -3.391596   -0.250699
     36          6           0       -6.408233   -2.093721    0.064944
     37          6           0       -8.918843   -4.658992   -0.983147
     38          6           0       -5.651735   -4.291191    0.009149
     39          8           0       -5.482785   -5.463061   -0.000519
     40          6           0       -4.413766   -3.400352    0.376790
     41          6           0       -3.921769   -3.847905    1.683239
     42          8           0       -4.269395   -3.543605    2.833580
     43          8           0       -2.959025   -4.780904    1.498629
     44          6           0       -2.277436   -5.405031    2.746787
     45          6           0        2.636833   -0.832113   -1.358085
     46          6           0        4.075711   -0.640786   -0.710109
     47          6           0        5.008161    0.236596   -1.055349
     48          6           0        4.943393    1.157643   -2.273720
     49          6           0        6.242241    0.260397   -0.339409
     50          6           0        7.504203   -0.263007   -1.039879
     51          6           0        8.796576   -0.247819   -0.176440
     52          6           0       10.020023   -0.694952   -0.836164
     53          6           0       10.125245   -2.120850   -1.372725
     54          6           0       11.233992   -0.455089    0.062388
     55          6           0       12.676448   -0.567963   -0.594331
     56          6           0       13.824356   -0.169259    0.346539
     57          6           0       15.197878   -0.426225   -0.337116
     58          6           0       15.588955   -1.736670   -0.683310
     59          6           0       16.267365    0.477797    0.446459
     60          6           0       17.633032    0.724328   -0.229411
     61          6           0       18.528844    1.521750    0.746228
     62          6           0       20.028944    1.606595    0.192849
     63          6           0       20.157479    2.462074   -1.108097
     64          6           0       20.927146    2.216175    1.310111
     65          1           0       -3.906104    3.500373    1.609299
     66          1           0      -10.130161    4.091821   -0.273091
     67          1           0      -10.673932   -2.335658   -1.341798
     68          1           0       -2.551310   -1.153228    2.195113
     69          1           0       -2.102957    1.508802    1.321737
     70          1           0       -1.887456    0.558065    3.538110
     71          1           0       -2.735398    2.235495    3.659308
     72          1           0       -3.723295    0.597136    3.779764
     73          1           0       -2.023064   -1.713437   -0.387276
     74          1           0       -2.245732   -0.095108   -0.704554
     75          1           0       -0.195551    0.418703    0.948899
     76          1           0       -0.111383   -1.287823    1.388622
     77          1           0       -4.505766    5.944745    0.782143
     78          1           0       -5.765105    6.970062    1.643572
     79          1           0       -4.987738    5.613816    2.387708
     80          1           0       -8.112738    6.786664    1.269870
     81          1           0       -9.367344    5.774801   -1.621136
     82          1           0       -9.458500    7.454387   -0.533117
     83          1           0      -12.400449    3.470598   -0.010966
     84          1           0      -12.080842    3.705866   -1.340180
     85          1           0      -13.379514    2.373232   -1.298514
     86          1           0      -12.698904   -1.424078   -1.015207
     87          1           0      -13.554715    0.159755   -1.059410
     88          1           0      -12.796914    0.317973   -3.393620
     89          1           0      -11.863575   -0.892229   -3.291947
     90          1           0      -13.663464   -1.102352   -3.445780
     91          1           0       -9.752441   -4.982987   -0.045935
     92          1           0       -9.584094   -4.258040   -1.939713
     93          1           0       -8.246866   -5.544276   -1.264829
     94          1           0       -3.623408   -3.594912   -0.299261
     95          1           0       -1.495537   -5.960250    2.199923
     96          1           0       -1.787525   -4.614423    3.503379
     97          1           0       -3.068690   -5.773609    3.258857
     98          1           0        2.435820   -2.006279   -1.689143
     99          1           0        2.247705   -0.384615   -2.231635
    100          1           0        4.124668   -1.241819    0.182538
    101          1           0        5.646408    2.044414   -2.054398
    102          1           0        5.572334    0.714284   -3.225312
    103          1           0        4.007292    1.454078   -2.733067
    104          1           0        6.696210    1.248019    0.066823
    105          1           0        6.119123   -0.391640    0.462705
    106          1           0        7.300050   -1.379293   -1.345131
    107          1           0        7.713931    0.284380   -1.870481
    108          1           0        9.047579    0.896053    0.205518
    109          1           0        8.701618   -0.830161    0.673503
    110          1           0       10.006888   -0.050655   -1.845471
    111          1           0        9.131786   -2.363713   -2.111535
    112          1           0       11.018986   -2.263744   -2.014226
    113          1           0       10.140616   -2.790071   -0.510082
    114          1           0       11.260483    0.507716    0.633532
    115          1           0       11.227762   -1.138488    1.018538
    116          1           0       12.771175   -1.664862   -0.987252
    117          1           0       12.858276    0.069291   -1.446705
    118          1           0       13.657777    0.966217    0.664452
    119          1           0       13.833875   -0.775635    1.365066
    120          1           0       15.176287    0.257628   -1.440018
    121          1           0       14.919593   -2.243724   -1.510737
    122          1           0       16.573817   -1.816817   -1.085452
    123          1           0       15.594855   -2.361382    0.261089
    124          1           0       15.985102    1.634687    0.538152
    125          1           0       16.646411   -0.030259    1.479382
    126          1           0       18.111833   -0.272776   -0.275379
    127          1           0       17.523229    1.225917   -1.151562
    128          1           0       18.085911    2.527198    0.734684
    129          1           0       18.614499    1.082686    1.758613
    130          1           0       20.316573    0.445860    0.207926
    131          1           0       19.792790    3.497793   -0.919026
    132          1           0       21.221182    2.464868   -1.366127
    133          1           0       19.487959    1.995213   -1.909508
    134          1           0       20.914492    1.740197    2.207901
    135          1           0       22.030936    2.102238    0.999791
    136          1           0       20.630154    3.271846    1.581678
    137          1           0       -7.168079    1.698078    0.581107
    138          1           0       -7.515165   -0.379287   -0.075374
 ---------------------------------------------------------------------

 SCF Done:  E(RB3LYP) =  -2733.03767008     A.U. after   17 cycles

 Excitation energies and oscillator strengths:

 Excited State   1:      Singlet-A      2.0253 eV  612.18 nm  f=0.1517  <S**2>=0.000
     235 -> 237        0.60232
     236 -> 237       -0.15420
     236 -> 238        0.32328
 This state for optimization and/or second-order correction.
 Total Energy, E(TD-HF/TD-KS) =  -2732.96324159
 Copying the excited state density for this state as the 1-particle RhoCI density.

 The electronic state is 1-A.
 Alpha  occ. eigenvalues --  -19.16788 -19.16424 -19.13082 -19.12444 -19.11000
 Alpha  occ. eigenvalues --  -14.38240 -14.36266 -14.32030 -14.29747 -10.31885
 Alpha  occ. eigenvalues --  -10.30418 -10.27847 -10.25448 -10.25247 -10.24265
 Alpha  occ. eigenvalues --  -10.24057 -10.23894 -10.23629 -10.23179 -10.22822
 Alpha  occ. eigenvalues --  -10.22815 -10.22372 -10.21851 -10.21698 -10.21635
 Alpha  occ. eigenvalues --  -10.21580 -10.21362 -10.20915 -10.20883 -10.20859
 Alpha  occ. eigenvalues --  -10.20778 -10.20769 -10.20622 -10.20602 -10.20547
 Alpha  occ. eigenvalues --  -10.20378 -10.20351 -10.20260 -10.20028 -10.19950
 Alpha  occ. eigenvalues --  -10.19895 -10.19845 -10.19822 -10.19811 -10.19758
 Alpha  occ. eigenvalues --  -10.19548 -10.19529 -10.19494 -10.19255 -10.19253
 Alpha  occ. eigenvalues --  -10.19231 -10.19147 -10.18757 -10.18754 -10.18656
 Alpha  occ. eigenvalues --  -10.18641 -10.18638 -10.18501 -10.18412 -10.18066
 Alpha  occ. eigenvalues --  -10.18047 -10.17453 -10.17418 -10.16554  -1.07417
 Alpha  occ. eigenvalues --   -1.06612  -1.04636  -0.99663  -0.99463  -0.98155
 Alpha  occ. eigenvalues --   -0.97041  -0.93286  -0.92641  -0.84886  -0.84207
 Alpha  occ. eigenvalues --   -0.83555  -0.82215  -0.81816  -0.81034  -0.80923
 Alpha  occ. eigenvalues --   -0.80181  -0.79773  -0.79198  -0.79135  -0.77448
 Alpha  occ. eigenvalues --   -0.76692  -0.76380  -0.75788  -0.75181  -0.74549
 Alpha  occ. eigenvalues --   -0.73330  -0.73084  -0.72637  -0.71434  -0.71339
 Alpha  occ. eigenvalues --   -0.69825  -0.69695  -0.68813  -0.68321  -0.68131
 Alpha  occ. eigenvalues --   -0.67328  -0.66879  -0.66730  -0.66079  -0.65080
 Alpha  occ. eigenvalues --   -0.64124  -0.63081  -0.62608  -0.62513  -0.62156
 Alpha  occ. eigenvalues --   -0.60716  -0.58736  -0.58678  -0.57810  -0.57038
 Alpha  occ. eigenvalues --   -0.56452  -0.55944  -0.55335  -0.55090  -0.54889
 Alpha  occ. eigenvalues --   -0.54589  -0.54348  -0.53694  -0.53419  -0.52979
 Alpha  occ. eigenvalues --   -0.52838  -0.52469  -0.51671  -0.50960  -0.50495
 Alpha  occ. eigenvalues --   -0.49731  -0.49007  -0.48853  -0.48650  -0.48322
 Alpha  occ. eigenvalues --   -0.48097  -0.47864  -0.47628  -0.47470  -0.46921
 Alpha  occ. eigenvalues --   -0.46893  -0.46322  -0.46163  -0.46053  -0.45640
 Alpha  occ. eigenvalues --   -0.45413  -0.45165  -0.44947  -0.44851  -0.44726
 Alpha  occ. eigenvalues --   -0.44334  -0.44182  -0.44046  -0.43912  -0.43674
 Alpha  occ. eigenvalues --   -0.43501  -0.43142  -0.42874  -0.42760  -0.42664
 Alpha  occ. eigenvalues --   -0.42356  -0.42221  -0.41976  -0.41923  -0.41504
 Alpha  occ. eigenvalues --   -0.41468  -0.40986  -0.40674  -0.40653  -0.40360
 Alpha  occ. eigenvalues --   -0.40270  -0.39965  -0.39855  -0.39806  -0.39433
 Alpha  occ. eigenvalues --   -0.39069  -0.38980  -0.38861  -0.38665  -0.38561
 Alpha  occ. eigenvalues --   -0.38507  -0.38276  -0.37915  -0.37720  -0.37357
 Alpha  occ. eigenvalues --   -0.37131  -0.37070  -0.36966  -0.36735  -0.36458
 Alpha  occ. eigenvalues --   -0.36367  -0.36155  -0.35825  -0.35708  -0.35576
 Alpha  occ. eigenvalues --   -0.35113  -0.35039  -0.35024  -0.34762  -0.34712
 Alpha  occ. eigenvalues --   -0.34436  -0.34417  -0.34082  -0.33975  -0.33831
 Alpha  occ. eigenvalues --   -0.33743  -0.33647  -0.33412  -0.33088  -0.32955
 Alpha  occ. eigenvalues --   -0.32394  -0.32113  -0.31740  -0.31568  -0.31407
 Alpha  occ. eigenvalues --   -0.30665  -0.30454  -0.29979  -0.29945  -0.29370
 Alpha  occ. eigenvalues --   -0.29272  -0.28765  -0.28305  -0.28199  -0.28011
 Alpha  occ. eigenvalues --   -0.27215  -0.26492  -0.26277  -0.25899  -0.25627
 Alpha  occ. eigenvalues --   -0.25141  -0.25070  -0.23837  -0.22370  -0.19610
 Alpha  occ. eigenvalues --   -0.19523
 Alpha virt. eigenvalues --   -0.10975  -0.07767  -0.04342  -0.02067  -0.00772
 Alpha virt. eigenvalues --   -0.00519  -0.00062   0.00505   0.02096   0.03304
 Alpha virt. eigenvalues --    0.03324   0.03346   0.04027   0.04157   0.04353

 Mulliken charges:
               1
     1  C   -0.030580
     2  C   -0.079959
     3  C   -0.073598
     4  C   -0.143167
     5  N   -0.253486
     6  C    0.021786
     7  C    0.018329
     8  C   -0.097770
     9  C    0.045496
    10  C    0.030742
    11  C    0.081289
    12  C   -0.065092
    13  C    0.184101
    14  O   -0.244158
    15  O   -0.360119
    16  N   -0.016613
    17  C    0.087451
    18  C    0.052458
    19  C   -0.107997
    20  C    0.051768
    21  C   -0.057100
    22  C   -0.063052
    23  C   -0.018753
    24  N   -0.247476
    25  C    0.064074
    26  C   -0.070870
    27  C   -0.145352
    28  C    0.063781
    29  C    0.103700
    30  C    0.100714
    31  C    0.129067
    32  N   -0.026543
    33  C    0.113409
    34  C   -0.101893
    35  C   -0.014144
    36  C    0.117636
    37  C   -0.037701
    38  C    0.046498
    39  O   -0.125683
    40  C    0.003240
    41  C    0.191285
    42  O   -0.265355
    43  O   -0.351235
    44  C    0.194779
    45  C    0.216433
    46  C   -0.068479
    47  C   -0.038998
    48  C    0.015818
    49  C    0.108614
    50  C    0.025817
    51  C    0.030008
    52  C   -0.062818
    53  C   -0.005971
    54  C    0.003055
    55  C    0.021757
    56  C   -0.004426
    57  C   -0.113354
    58  C    0.071527
    59  C   -0.050161
    60  C    0.049135
    61  C    0.002807
    62  C   -0.149162
    63  C    0.037768
    64  C    0.052241
    65  H   -0.012854
    66  H   -0.013302
    67  H    0.036014
    68  H    0.017693
    69  H    0.012167
    70  H    0.017014
    71  H    0.030276
    72  H    0.035118
    73  H    0.016200
    74  H    0.020729
    75  H    0.047722
    76  H    0.053882
    77  H    0.021743
    78  H    0.050211
    79  H    0.019209
    80  H    0.031204
    81  H    0.059722
    82  H    0.029420
    83  H   -0.000132
    84  H   -0.008668
    85  H    0.035799
    86  H    0.005955
    87  H   -0.015673
    88  H   -0.087571
    89  H   -0.013041
    90  H    0.021553
    91  H    0.068374
    92  H    0.049409
    93  H    0.067026
    94  H    0.030317
    95  H    0.060227
    96  H    0.047028
    97  H    0.029662
    98  H    0.023587
    99  H    0.001726
   100  H   -0.004313
   101  H    0.019585
   102  H    0.037274
   103  H    0.026494
   104  H    0.007384
   105  H   -0.035072
   106  H    0.010365
   107  H   -0.035431
   108  H    0.008955
   109  H   -0.035810
   110  H   -0.007353
   111  H    0.023527
   112  H    0.030572
   113  H    0.004728
   114  H   -0.017326
   115  H   -0.001579
   116  H    0.011523
   117  H   -0.009100
   118  H    0.017117
   119  H    0.004486
   120  H   -0.011234
   121  H    0.028873
   122  H    0.001872
   123  H    0.002544
   124  H    0.013137
   125  H    0.006886
   126  H   -0.013926
   127  H   -0.007233
   128  H   -0.014729
   129  H    0.000286
   130  H    0.008391
   131  H    0.016141
   132  H    0.016719
   133  H    0.024783
   134  H   -0.028862
   135  H    0.009363
   136  H    0.005719
   137  H    0.174121
   138  H    0.077856
 Sum of Mulliken charges =   0.00000

 Dipole moment (field-independent basis, Debye):
    X=              2.7476    Y=              4.1360    Z=              0.6008  Tot=              5.0017
 Quadrupole moment (field-independent basis, Debye-Ang):
   XX=           -351.6298   YY=           -381.5180   ZZ=           -398.3901
   XY=            -27.2359   XZ=             10.2665   YZ=              0.8119

 Normal termination of Gaussian 09 at Sat Aug  3 14:19:27 2019.
