 Gaussian 09, Revision D.01,
 Gaussian 09:  ES64L-G09RevD.01 24-Apr-2013

 --------------------------
 # td=(NStates=1) B3LYP/SVP
 --------------------------

 --
 TD
 --
 Symbolic Z-matrix:
 Charge =  0 Multiplicity = 1

                         Standard orientation:
 ---------------------------------------------------------------------
 Center     Atomic      Atomic             Coordinates (Angstroms)
 Number     Number       Type             X           Y           Z
 ---------------------------------------------------------------------
      1          6           0       -5.218658   -1.875438    0.485168
      2          6           0       -4.712829    2.808055    1.408874
      3          6           0       -9.348793    3.329674   -0.286766
      4          6           0       -9.848080   -1.529517   -0.964025
      5          7           0       -5.217503    0.510642    0.772650
      6          6           0       -4.594770   -0.681097    0.850060
      7          6           0       -3.128524   -0.544534    1.231925
      8          6           0       -3.114692    0.802235    1.932530
      9          6           0       -4.453733    1.384705    1.322123
     10          6           0       -3.222627    0.791617    3.501272
     11          6           0       -2.014361   -0.624522    0.089042
     12          6           0       -0.545369   -0.812872    0.529896
     13          6           0        0.509354   -0.922406   -0.542077
     14          8           0        0.149835   -0.999846   -1.802519
     15          8           0        1.720842   -1.059832    0.028787
     16          7           0       -7.065293    2.814905    0.420510
     17          6           0       -5.925714    3.477846    1.033044
     18          6           0       -6.221173    4.857061    1.054079
     19          6           0       -7.553229    4.987613    0.489173
     20          6           0       -8.067289    3.659333    0.257468
     21          6           0       -5.401411    5.941828    1.594751
     22          6           0       -8.297414    6.317016    0.355797
     23          6           0       -9.103995    6.562742   -0.660512
     24          7           0       -9.177355    0.851311   -0.459499
     25          6           0       -9.807493    2.097187   -0.533617
     26          6           0      -11.121323    1.876981   -0.984614
     27          6           0      -11.305161    0.496320   -1.272055
     28          6           0      -10.031751   -0.088754   -0.930891
     29          6           0      -12.188448    2.922026   -1.275532
     30          6           0      -12.564559   -0.215033   -1.634339
     31          6           0      -12.595027   -0.365588   -3.262591
     32          7           0       -7.541442   -1.290494   -0.245856
     33          6           0       -8.567755   -2.021719   -0.739463
     34          6           0       -8.216459   -3.448464   -0.768860
     35          6           0       -6.886302   -3.356381   -0.280913
     36          6           0       -6.475415   -2.058686    0.125968
     37          6           0       -9.065308   -4.559206   -1.175838
     38          6           0       -5.842162   -4.354610   -0.026097
     39          8           0       -5.657111   -5.538165   -0.327057
     40          6           0       -4.617983   -3.340856    0.440845
     41          6           0       -4.114444   -3.819989    1.846264
     42          8           0       -4.532741   -3.340272    2.913967
     43          8           0       -3.195669   -4.761262    1.797452
     44          6           0       -2.672270   -5.356564    2.979995
     45          6           0        2.697423   -1.123055   -0.947991
     46          6           0        4.088988   -1.005758   -0.445313
     47          6           0        5.097575   -0.143655   -0.887046
     48          6           0        4.899738    0.683509   -2.137596
     49          6           0        6.419563    0.050263   -0.229570
     50          6           0        7.620674   -0.441563   -1.085185
     51          6           0        8.823500   -0.380918   -0.229873
     52          6           0       10.087205   -0.827499   -1.019157
     53          6           0       10.137845   -2.320278   -1.454171
     54          6           0       11.291041   -0.495188   -0.068149
     55          6           0       12.758064   -0.527967   -0.744123
     56          6           0       13.874171   -0.050734    0.163812
     57          6           0       15.321571   -0.192450   -0.268777
     58          6           0       15.739871   -1.741903   -0.249208
     59          6           0       16.222199    0.640594    0.499192
     60          6           0       17.742702    0.749413   -0.042393
     61          6           0       18.580803    1.803208    0.699737
     62          6           0       20.078561    1.735310    0.171625
     63          6           0       20.112686    2.242097   -1.316985
     64          6           0       20.801547    2.717532    1.017740
     65          1           0       -3.724138    3.481577    1.771987
     66          1           0       -9.913261    4.136420   -0.445341
     67          1           0      -10.689805   -2.252577   -1.316519
     68          1           0       -2.819892   -1.345782    1.949416
     69          1           0       -2.115041    1.306910    1.546676
     70          1           0       -2.278562    0.441663    4.022508
     71          1           0       -3.278727    1.898639    3.837120
     72          1           0       -4.122592    0.197584    3.834803
     73          1           0       -2.283117   -1.519719   -0.625561
     74          1           0       -1.978323    0.515536   -0.491306
     75          1           0        0.140817   -0.109266    1.271228
     76          1           0       -0.600950   -1.721938    1.335074
     77          1           0       -4.291460    5.827000    1.151159
     78          1           0       -5.891905    6.952457    1.480308
     79          1           0       -5.330708    5.806422    2.745905
     80          1           0       -8.061332    7.062060    0.938304
     81          1           0       -9.198812    5.803684   -1.330419
     82          1           0       -9.745465    7.478357   -0.714007
     83          1           0      -12.757971    3.381102   -0.157084
     84          1           0      -11.884360    3.871867   -2.048959
     85          1           0      -13.026333    2.364632   -1.987062
     86          1           0      -12.354420   -1.229510   -1.119423
     87          1           0      -13.457859    0.231191   -1.371194
     88          1           0      -13.041638    0.605683   -3.698856
     89          1           0      -11.463056   -0.608357   -3.675076
     90          1           0      -13.241905   -1.505343   -3.493988
     91          1           0       -9.556587   -4.932238   -0.092713
     92          1           0       -9.721589   -4.096522   -1.960551
     93          1           0       -8.161196   -5.341874   -1.561218
     94          1           0       -3.572535   -3.512041   -0.172905
     95          1           0       -1.872938   -6.117303    2.754410
     96          1           0       -2.074100   -4.648553    3.620924
     97          1           0       -3.481401   -5.761611    3.636586
     98          1           0        2.830298   -2.212169   -1.652078
     99          1           0        2.538158   -0.201955   -1.664631
    100          1           0        4.565406   -1.626941    0.445093
    101          1           0        5.053372    1.651545   -1.866490
    102          1           0        5.644075    0.276869   -2.822248
    103          1           0        3.995610    0.505031   -2.743425
    104          1           0        6.426716    1.235418   -0.062656
    105          1           0        6.511382   -0.464756    0.830137
    106          1           0        7.573372   -1.566669   -1.546575
    107          1           0        7.727252    0.314884   -2.107693
    108          1           0        8.966500    0.837184    0.279468
    109          1           0        8.787910   -1.102445    0.629995
    110          1           0       10.253891   -0.372305   -2.085004
    111          1           0        9.382147   -2.772554   -2.175016
    112          1           0       11.143997   -2.390878   -2.075672
    113          1           0       10.340397   -3.088972   -0.536188
    114          1           0       11.308048    0.603908    0.249092
    115          1           0       11.222488   -1.132673    0.870379
    116          1           0       13.206889   -1.599366   -1.047026
    117          1           0       12.780705    0.019666   -1.650905
    118          1           0       13.607323    1.093594    0.226907
    119          1           0       13.621405   -0.687339    1.136837
    120          1           0       15.402971    0.221044   -1.334617
    121          1           0       14.962667   -2.427434   -0.779165
    122          1           0       16.825044   -1.638356   -0.754848
    123          1           0       15.823548   -2.141224    0.781019
    124          1           0       15.893855    1.531721    0.293940
    125          1           0       16.448885    0.281170    1.560255
    126          1           0       18.176936   -0.339632    0.192403
    127          1           0       17.685870    0.976769   -1.244737
    128          1           0       18.218819    2.930794    0.661015
    129          1           0       18.479285    1.601312    1.694574
    130          1           0       20.472293    0.865671    0.241375
    131          1           0       19.594576    3.188062   -1.436736
    132          1           0       21.160200    2.433708   -1.669024
    133          1           0       19.640356    1.409579   -2.193146
    134          1           0       20.574819    2.425732    1.965565
    135          1           0       21.921324    2.482988    0.796404
    136          1           0       20.683187    3.855086    0.710662
    137          1           0       -7.268945    1.763640    0.219277
    138          1           0       -7.565350   -0.251148    0.029658
 ---------------------------------------------------------------------

 SCF Done:  E(RB3LYP) =  -2732.92455957     A.U. after   18 cycles

 Excitation energies and oscillator strengths:

 Excited State   1:      Singlet-A      1.9997 eV  620.01 nm  f=0.1655  <S**2>=0.000
     235 -> 237       -0.11628
     235 -> 238       -0.26417
     236 -> 237        0.63361
     236 -> 238       -0.10900
 This state for optimization and/or second-order correction.
 Total Energy, E(TD-HF/TD-KS) =  -2732.85107106
 Copying the excited state density for this state as the 1-particle RhoCI density.

 The electronic state is 1-A.
 Alpha  occ. eigenvalues --  -19.20972 -19.18727 -19.13130 -19.13022 -19.11280
 Alpha  occ. eigenvalues --  -14.36903 -14.36846 -14.33035 -14.29826 -10.33224
 Alpha  occ. eigenvalues --  -10.31588 -10.28621 -10.27146 -10.25767 -10.24342
 Alpha  occ. eigenvalues --  -10.23701 -10.23592 -10.23280 -10.23169 -10.23068
 Alpha  occ. eigenvalues --  -10.23039 -10.23017 -10.23008 -10.22899 -10.22802
 Alpha  occ. eigenvalues --  -10.22379 -10.22041 -10.21800 -10.21719 -10.21495
 Alpha  occ. eigenvalues --  -10.21451 -10.21201 -10.21183 -10.21090 -10.20695
 Alpha  occ. eigenvalues --  -10.20652 -10.20582 -10.20576 -10.20556 -10.20530
 Alpha  occ. eigenvalues --  -10.20429 -10.20404 -10.20157 -10.20094 -10.20020
 Alpha  occ. eigenvalues --  -10.19921 -10.19818 -10.19558 -10.19389 -10.19381
 Alpha  occ. eigenvalues --  -10.19370 -10.19345 -10.19084 -10.19009 -10.18934
 Alpha  occ. eigenvalues --  -10.18587 -10.18531 -10.18400 -10.18250 -10.18199
 Alpha  occ. eigenvalues --  -10.18072 -10.18015 -10.17974 -10.16964  -1.11852
 Alpha  occ. eigenvalues --   -1.10076  -1.01873  -0.99020  -0.98711  -0.97624
 Alpha  occ. eigenvalues --   -0.97432  -0.96779  -0.92973  -0.84974  -0.82506
 Alpha  occ. eigenvalues --   -0.82102  -0.81479  -0.81156  -0.80877  -0.80677
 Alpha  occ. eigenvalues --   -0.80527  -0.80078  -0.78751  -0.78293  -0.77805
 Alpha  occ. eigenvalues --   -0.76660  -0.76086  -0.75741  -0.74378  -0.73979
 Alpha  occ. eigenvalues --   -0.73668  -0.72847  -0.71992  -0.71277  -0.70475
 Alpha  occ. eigenvalues --   -0.69901  -0.68729  -0.68339  -0.67601  -0.66707
 Alpha  occ. eigenvalues --   -0.66606  -0.65983  -0.65774  -0.65675  -0.65124
 Alpha  occ. eigenvalues --   -0.63980  -0.61893  -0.61600  -0.60792  -0.60228
 Alpha  occ. eigenvalues --   -0.60206  -0.58292  -0.58029  -0.57588  -0.57273
 Alpha  occ. eigenvalues --   -0.56859  -0.56385  -0.56086  -0.55574  -0.55285
 Alpha  occ. eigenvalues --   -0.55090  -0.54646  -0.54247  -0.53516  -0.52431
 Alpha  occ. eigenvalues --   -0.52083  -0.51816  -0.51158  -0.50500  -0.50069
 Alpha  occ. eigenvalues --   -0.49437  -0.48916  -0.48710  -0.48554  -0.48315
 Alpha  occ. eigenvalues --   -0.48104  -0.47712  -0.47238  -0.47112  -0.46776
 Alpha  occ. eigenvalues --   -0.46707  -0.46355  -0.45956  -0.45760  -0.45590
 Alpha  occ. eigenvalues --   -0.45467  -0.45374  -0.44980  -0.44782  -0.44376
 Alpha  occ. eigenvalues --   -0.44238  -0.44013  -0.43910  -0.43490  -0.43365
 Alpha  occ. eigenvalues --   -0.43242  -0.42668  -0.42333  -0.42079  -0.41959
 Alpha  occ. eigenvalues --   -0.41716  -0.41615  -0.41528  -0.41439  -0.41222
 Alpha  occ. eigenvalues --   -0.40934  -0.40774  -0.40416  -0.40350  -0.40147
 Alpha  occ. eigenvalues --   -0.39688  -0.39648  -0.39512  -0.39197  -0.39096
 Alpha  occ. eigenvalues --   -0.38942  -0.38225  -0.38110  -0.38053  -0.37819
 Alpha  occ. eigenvalues --   -0.37768  -0.37634  -0.37567  -0.37496  -0.37307
 Alpha  occ. eigenvalues --   -0.37114  -0.37058  -0.36947  -0.36851  -0.36523
 Alpha  occ. eigenvalues --   -0.36354  -0.36061  -0.35870  -0.35617  -0.35549
 Alpha  occ. eigenvalues --   -0.35372  -0.35260  -0.34998  -0.34827  -0.34659
 Alpha  occ. eigenvalues --   -0.34346  -0.34270  -0.33981  -0.33754  -0.33701
 Alpha  occ. eigenvalues --   -0.33339  -0.33219  -0.32987  -0.32814  -0.32003
 Alpha  occ. eigenvalues --   -0.31883  -0.31868  -0.31803  -0.31559  -0.31231
 Alpha  occ. eigenvalues --   -0.31115  -0.30947  -0.30485  -0.30264  -0.30213
 Alpha  occ. eigenvalues --   -0.29864  -0.28792  -0.28573  -0.28231  -0.27730
 Alpha  occ. eigenvalues --   -0.27305  -0.27085  -0.26730  -0.26021  -0.25792
 Alpha  occ. eigenvalues --   -0.24827  -0.23585  -0.23263  -0.21537  -0.20545
 Alpha  occ. eigenvalues --   -0.18774
 Alpha virt. eigenvalues --   -0.10579  -0.08278  -0.05479  -0.03434  -0.01523
 Alpha virt. eigenvalues --   -0.00175   0.00034   0.00514   0.01574   0.02353
 Alpha virt. eigenvalues --    0.03219   0.03437   0.03825   0.03902   0.04083

 Mulliken charges:
               1
     1  C    0.083229
     2  C   -0.111718
     3  C   -0.068807
     4  C   -0.152679
     5  N   -0.092248
     6  C   -0.077646
     7  C    0.000408
     8  C   -0.107764
     9  C   -0.041763
    10  C    0.043224
    11  C    0.012675
    12  C   -0.100212
    13  C    0.255675
    14  O   -0.306237
    15  O   -0.245939
    16  N   -0.116008
    17  C    0.148406
    18  C   -0.115703
    19  C   -0.021386
    20  C    0.056529
    21  C    0.033517
    22  C    0.017905
    23  C    0.022192
    24  N   -0.291555
    25  C    0.199958
    26  C   -0.100021
    27  C   -0.093206
    28  C    0.071214
    29  C   -0.084478
    30  C    0.085538
    31  C   -0.121544
    32  N   -0.060554
    33  C    0.098307
    34  C   -0.106833
    35  C   -0.069420
    36  C    0.091658
    37  C   -0.020033
    38  C    0.143083
    39  O   -0.187811
    40  C   -0.165675
    41  C    0.199199
    42  O   -0.274212
    43  O   -0.264869
    44  C    0.163144
    45  C    0.199806
    46  C   -0.114104
    47  C   -0.198062
    48  C    0.125580
    49  C    0.033518
    50  C   -0.060669
    51  C   -0.005576
    52  C   -0.078754
    53  C   -0.067370
    54  C    0.021299
    55  C    0.007869
    56  C   -0.024389
    57  C   -0.058084
    58  C   -0.044247
    59  C    0.143011
    60  C   -0.103263
    61  C    0.048345
    62  C   -0.014236
    63  C   -0.033379
    64  C    0.063489
    65  H    0.036421
    66  H   -0.093230
    67  H    0.025911
    68  H    0.003390
    69  H    0.017704
    70  H    0.021406
    71  H    0.017069
    72  H    0.049849
    73  H    0.055565
    74  H    0.042784
    75  H    0.052887
    76  H    0.055196
    77  H    0.051065
    78  H    0.030506
    79  H    0.041398
    80  H   -0.071964
    81  H   -0.000653
    82  H    0.031036
    83  H    0.052293
    84  H    0.050865
    85  H    0.030547
    86  H    0.023070
    87  H   -0.004196
    88  H    0.053084
    89  H    0.051790
    90  H    0.029920
    91  H    0.089771
    92  H    0.056252
    93  H    0.094539
    94  H    0.075979
    95  H    0.041636
    96  H    0.024392
    97  H    0.045844
    98  H    0.058813
    99  H    0.047338
   100  H   -0.001474
   101  H   -0.005255
   102  H    0.015936
   103  H    0.012441
   104  H    0.032745
   105  H    0.018279
   106  H    0.034616
   107  H    0.029760
   108  H    0.021333
   109  H    0.011633
   110  H    0.009467
   111  H    0.036413
   112  H    0.026810
   113  H    0.020013
   114  H    0.009981
   115  H    0.010096
   116  H   -0.005495
   117  H   -0.020720
   118  H   -0.004615
   119  H    0.006865
   120  H   -0.013678
   121  H    0.033355
   122  H    0.038275
   123  H    0.013255
   124  H   -0.061154
   125  H    0.005040
   126  H    0.018659
   127  H    0.021265
   128  H    0.003716
   129  H   -0.038044
   130  H   -0.059299
   131  H    0.007644
   132  H    0.008322
   133  H    0.027471
   134  H   -0.016445
   135  H   -0.000862
   136  H    0.029963
   137  H    0.185476
   138  H    0.181609
 Sum of Mulliken charges =   0.00000

 Dipole moment (field-independent basis, Debye):
    X=              3.4316    Y=              3.3025    Z=              1.9253  Tot=              5.1370
 Quadrupole moment (field-independent basis, Debye-Ang):
   XX=           -353.9204   YY=           -383.6822   ZZ=           -400.4076
   XY=            -15.4477   XZ=              9.1930   YZ=             -3.5928

 Normal termination of Gaussian 09 at Sun Aug  4 05:36:29 2019.
