 Gaussian 09, Revision D.01,
 Gaussian 09:  ES64L-G09RevD.01 24-Apr-2013

 --------------------------
 # td=(NStates=1) B3LYP/SVP
 --------------------------

 --
 TD
 --
 Symbolic Z-matrix:
 Charge =  0 Multiplicity = 1

                         Standard orientation:
 ---------------------------------------------------------------------
 Center     Atomic      Atomic             Coordinates (Angstroms)
 Number     Number       Type             X           Y           Z
 ---------------------------------------------------------------------
      1          6           0       -5.061290   -1.863800    0.564235
      2          6           0       -4.845768    2.829958    1.357745
      3          6           0       -9.434645    3.326495   -0.207134
      4          6           0       -9.748192   -1.521879   -0.935468
      5          7           0       -5.201475    0.510901    0.925613
      6          6           0       -4.479848   -0.651500    0.945827
      7          6           0       -3.033065   -0.349461    1.288307
      8          6           0       -3.078257    1.043831    1.746101
      9          6           0       -4.397745    1.486558    1.333693
     10          6           0       -3.100091    1.156261    3.369414
     11          6           0       -2.052325   -0.755094    0.160074
     12          6           0       -0.566883   -0.741768    0.489939
     13          6           0        0.446877   -1.004085   -0.593882
     14          8           0        0.186213   -1.380412   -1.721321
     15          8           0        1.668016   -0.917146   -0.161676
     16          7           0       -7.165546    2.752340    0.468538
     17          6           0       -6.046827    3.435197    0.932064
     18          6           0       -6.445417    4.819753    0.985825
     19          6           0       -7.651110    4.932571    0.495678
     20          6           0       -8.159639    3.683597    0.244239
     21          6           0       -5.454600    5.803379    1.508766
     22          6           0       -8.412666    6.221028    0.413656
     23          6           0       -9.036337    6.635299   -0.716488
     24          7           0       -9.236813    0.814820   -0.445154
     25          6           0       -9.880559    1.992563   -0.512782
     26          6           0      -11.264635    1.826239   -0.970810
     27          6           0      -11.517624    0.425279   -1.213713
     28          6           0      -10.106401   -0.102612   -0.839137
     29          6           0      -12.218641    2.833652   -1.142782
     30          6           0      -12.569532   -0.419298   -1.623708
     31          6           0      -12.506821   -0.607299   -3.223102
     32          7           0       -7.417554   -1.349958   -0.190481
     33          6           0       -8.506137   -2.059837   -0.602331
     34          6           0       -7.994791   -3.379253   -0.718486
     35          6           0       -6.710614   -3.426119   -0.248167
     36          6           0       -6.359374   -2.119916    0.144848
     37          6           0       -8.804140   -4.637224   -1.135305
     38          6           0       -5.634278   -4.326859   -0.025055
     39          8           0       -5.570638   -5.509252    0.053511
     40          6           0       -4.403728   -3.322756    0.612036
     41          6           0       -3.841098   -3.822621    1.818411
     42          8           0       -4.238769   -3.408216    2.984572
     43          8           0       -3.049746   -4.738870    1.559588
     44          6           0       -2.205783   -5.341515    2.672105
     45          6           0        2.668921   -1.158665   -1.132520
     46          6           0        4.033761   -0.738712   -0.568272
     47          6           0        4.930568   -0.016347   -1.222142
     48          6           0        4.828047    0.618831   -2.656652
     49          6           0        6.271590    0.159834   -0.532975
     50          6           0        7.523416   -0.550357   -1.143783
     51          6           0        8.722817   -0.193700   -0.226790
     52          6           0       10.027406   -0.816041   -0.819801
     53          6           0       10.078824   -2.403937   -0.829546
     54          6           0       11.211087   -0.239046    0.003302
     55          6           0       12.661224   -0.611242   -0.548456
     56          6           0       13.805648    0.293010    0.237462
     57          6           0       15.231145   -0.116140   -0.233514
     58          6           0       15.582032   -1.658271    0.125867
     59          6           0       16.167705    0.930465    0.412744
     60          6           0       17.663727    0.753019   -0.041260
     61          6           0       18.619093    1.770407    0.575015
     62          6           0       20.055529    1.641001    0.070430
     63          6           0       20.158623    2.027282   -1.441173
     64          6           0       20.953187    2.461774    0.923909
     65          1           0       -4.146517    3.566210    1.886589
     66          1           0      -10.082311    4.172452   -0.485009
     67          1           0      -10.461650   -2.361841   -1.274377
     68          1           0       -3.069884   -1.336791    1.975827
     69          1           0       -2.320904    1.607803    1.172176
     70          1           0       -2.173387    1.066244    3.998857
     71          1           0       -3.302256    2.147730    3.886228
     72          1           0       -3.698883    0.426155    3.862658
     73          1           0       -2.397531   -1.677817   -0.389447
     74          1           0       -2.507154   -0.027938   -0.767807
     75          1           0       -0.290064    0.216517    0.655988
     76          1           0       -0.306099   -1.291693    1.352959
     77          1           0       -4.729092    6.257152    0.553632
     78          1           0       -6.001391    6.728313    1.792012
     79          1           0       -4.940771    5.491385    2.445468
     80          1           0       -8.360148    6.923208    1.426916
     81          1           0       -9.182319    6.152253   -1.595062
     82          1           0       -9.542519    7.533973   -0.625605
     83          1           0      -12.173608    3.683218   -0.304417
     84          1           0      -11.962691    3.254497   -2.254762
     85          1           0      -13.302193    2.386941   -1.396150
     86          1           0      -12.739862   -1.435940   -1.202470
     87          1           0      -13.460592    0.181133   -1.491023
     88          1           0      -12.382746    0.329369   -3.945527
     89          1           0      -11.739879   -1.317042   -3.257291
     90          1           0      -13.317317   -1.383663   -3.671451
     91          1           0       -9.795448   -4.596982   -0.593860
     92          1           0       -9.109525   -4.699556   -2.235185
     93          1           0       -8.085846   -5.553523   -1.003277
     94          1           0       -3.777354   -3.194018   -0.202941
     95          1           0       -1.834331   -6.254116    2.162998
     96          1           0       -1.553711   -4.652604    3.048897
     97          1           0       -2.834501   -5.555826    3.662824
     98          1           0        2.470825   -2.105863   -1.574463
     99          1           0        2.430046   -0.447242   -1.899533
    100          1           0        4.479210   -1.046859    0.439114
    101          1           0        5.002520    1.584160   -2.720761
    102          1           0        5.529142    0.194288   -3.398185
    103          1           0        3.890193    0.517602   -2.950487
    104          1           0        6.547929    1.348639   -0.448513
    105          1           0        6.160959   -0.042504    0.541474
    106          1           0        7.388976   -1.689993   -1.292468
    107          1           0        7.613522   -0.126976   -2.166897
    108          1           0        9.070213    0.844808   -0.334897
    109          1           0        8.462119   -0.312080    0.812978
    110          1           0        9.952990   -0.408178   -1.793216
    111          1           0        9.310334   -2.681262   -1.445346
    112          1           0       10.911447   -2.922662   -1.158194
    113          1           0        9.581316   -2.906806    0.171204
    114          1           0       11.086941    0.878827    0.200718
    115          1           0       11.003492   -0.620485    0.899879
    116          1           0       12.988715   -1.792016   -0.397651
    117          1           0       12.765935   -0.378191   -1.647549
    118          1           0       13.565364    1.268148   -0.130775
    119          1           0       13.827209    0.168172    1.395058
    120          1           0       15.233205   -0.020344   -1.430274
    121          1           0       15.038248   -2.520658   -0.318412
    122          1           0       16.589908   -1.789710   -0.014810
    123          1           0       15.345212   -1.938899    1.243420
    124          1           0       15.911573    1.913478    0.027274
    125          1           0       15.844975    0.916612    1.548242
    126          1           0       17.865654   -0.508525    0.221804
    127          1           0       17.792591    0.667423   -1.313245
    128          1           0       18.060270    2.758768    0.337328
    129          1           0       18.422826    1.517459    1.521824
    130          1           0       20.392192    0.554340    0.224977
    131          1           0       19.984299    3.036447   -1.590001
    132          1           0       21.406287    2.151850   -1.744033
    133          1           0       19.448530    1.378281   -2.175173
    134          1           0       20.833318    1.963628    1.916652
    135          1           0       22.011848    2.540125    0.784893
    136          1           0       20.790359    3.585438    0.796758
    137          1           0       -7.353014    1.726408    0.410538
    138          1           0       -7.560288   -0.417987    0.276637
 ---------------------------------------------------------------------

 SCF Done:  E(RB3LYP) =  -2733.00101184     A.U. after   16 cycles

 Excitation energies and oscillator strengths:

 Excited State   1:      Singlet-A      2.0659 eV  600.14 nm  f=0.1543  <S**2>=0.000
     235 -> 237       -0.14194
     235 -> 238       -0.30206
     236 -> 237        0.60989
     236 -> 238       -0.11976
 This state for optimization and/or second-order correction.
 Total Energy, E(TD-HF/TD-KS) =  -2732.92509094
 Copying the excited state density for this state as the 1-particle RhoCI density.

 The electronic state is 1-A.
 Alpha  occ. eigenvalues --  -19.19435 -19.18161 -19.13193 -19.11426 -19.09691
 Alpha  occ. eigenvalues --  -14.36196 -14.36101 -14.31731 -14.29959 -10.31079
 Alpha  occ. eigenvalues --  -10.30295 -10.28257 -10.26447 -10.24685 -10.23478
 Alpha  occ. eigenvalues --  -10.22761 -10.22562 -10.22554 -10.22472 -10.22429
 Alpha  occ. eigenvalues --  -10.22201 -10.21756 -10.21490 -10.21360 -10.21342
 Alpha  occ. eigenvalues --  -10.21287 -10.21110 -10.20934 -10.20821 -10.20687
 Alpha  occ. eigenvalues --  -10.20658 -10.20567 -10.20392 -10.20325 -10.20185
 Alpha  occ. eigenvalues --  -10.20036 -10.19872 -10.19856 -10.19804 -10.19785
 Alpha  occ. eigenvalues --  -10.19733 -10.19727 -10.19655 -10.19531 -10.19519
 Alpha  occ. eigenvalues --  -10.19467 -10.19466 -10.19465 -10.19381 -10.19271
 Alpha  occ. eigenvalues --  -10.19039 -10.19013 -10.18854 -10.18782 -10.18656
 Alpha  occ. eigenvalues --  -10.18455 -10.18423 -10.18302 -10.18241 -10.18023
 Alpha  occ. eigenvalues --  -10.17782 -10.17685 -10.17635 -10.17622  -1.11954
 Alpha  occ. eigenvalues --   -1.11751  -1.04724  -1.00154  -0.98949  -0.97950
 Alpha  occ. eigenvalues --   -0.95625  -0.95272  -0.93737  -0.83984  -0.82563
 Alpha  occ. eigenvalues --   -0.82392  -0.81578  -0.81402  -0.80691  -0.80508
 Alpha  occ. eigenvalues --   -0.80068  -0.79729  -0.79166  -0.78609  -0.78359
 Alpha  occ. eigenvalues --   -0.77067  -0.76400  -0.75568  -0.74898  -0.74174
 Alpha  occ. eigenvalues --   -0.73748  -0.73233  -0.72495  -0.71028  -0.70405
 Alpha  occ. eigenvalues --   -0.70299  -0.69351  -0.69174  -0.67865  -0.67605
 Alpha  occ. eigenvalues --   -0.67252  -0.66916  -0.66729  -0.65731  -0.65461
 Alpha  occ. eigenvalues --   -0.64840  -0.63514  -0.62826  -0.61754  -0.61392
 Alpha  occ. eigenvalues --   -0.60732  -0.58718  -0.58653  -0.58081  -0.57863
 Alpha  occ. eigenvalues --   -0.56989  -0.56644  -0.56312  -0.55912  -0.55519
 Alpha  occ. eigenvalues --   -0.54596  -0.54555  -0.53797  -0.53626  -0.52885
 Alpha  occ. eigenvalues --   -0.52291  -0.51887  -0.51738  -0.51524  -0.51363
 Alpha  occ. eigenvalues --   -0.50462  -0.49307  -0.49223  -0.48818  -0.48189
 Alpha  occ. eigenvalues --   -0.47791  -0.47652  -0.47311  -0.47268  -0.47201
 Alpha  occ. eigenvalues --   -0.46733  -0.46551  -0.46362  -0.46049  -0.45906
 Alpha  occ. eigenvalues --   -0.45581  -0.45282  -0.44966  -0.44905  -0.44523
 Alpha  occ. eigenvalues --   -0.44401  -0.43993  -0.43958  -0.43684  -0.43570
 Alpha  occ. eigenvalues --   -0.43399  -0.42935  -0.42728  -0.42685  -0.42477
 Alpha  occ. eigenvalues --   -0.42408  -0.42006  -0.41816  -0.41502  -0.41392
 Alpha  occ. eigenvalues --   -0.40992  -0.40827  -0.40598  -0.40312  -0.40171
 Alpha  occ. eigenvalues --   -0.39987  -0.39890  -0.39463  -0.39335  -0.39089
 Alpha  occ. eigenvalues --   -0.38767  -0.38623  -0.38584  -0.38467  -0.38402
 Alpha  occ. eigenvalues --   -0.38255  -0.38078  -0.37916  -0.37669  -0.37372
 Alpha  occ. eigenvalues --   -0.37168  -0.36953  -0.36901  -0.36697  -0.36625
 Alpha  occ. eigenvalues --   -0.36543  -0.36406  -0.36225  -0.36067  -0.35766
 Alpha  occ. eigenvalues --   -0.35607  -0.35545  -0.35067  -0.34917  -0.34389
 Alpha  occ. eigenvalues --   -0.34325  -0.33972  -0.33957  -0.33841  -0.33564
 Alpha  occ. eigenvalues --   -0.33228  -0.33179  -0.32999  -0.32725  -0.32227
 Alpha  occ. eigenvalues --   -0.32200  -0.32046  -0.31747  -0.31444  -0.31100
 Alpha  occ. eigenvalues --   -0.30926  -0.30899  -0.30560  -0.30489  -0.29884
 Alpha  occ. eigenvalues --   -0.29146  -0.29038  -0.27886  -0.27554  -0.27398
 Alpha  occ. eigenvalues --   -0.27022  -0.26435  -0.26079  -0.25672  -0.25650
 Alpha  occ. eigenvalues --   -0.25348  -0.25088  -0.24641  -0.21273  -0.19521
 Alpha  occ. eigenvalues --   -0.18425
 Alpha virt. eigenvalues --   -0.09715  -0.07461  -0.04141  -0.01437  -0.00231
 Alpha virt. eigenvalues --    0.00293   0.00483   0.01447   0.02439   0.03241
 Alpha virt. eigenvalues --    0.03715   0.03983   0.04423   0.04658   0.04781

 Mulliken charges:
               1
     1  C   -0.016112
     2  C   -0.068321
     3  C   -0.137712
     4  C   -0.076551
     5  N   -0.156721
     6  C   -0.090989
     7  C   -0.075985
     8  C    0.133511
     9  C   -0.062755
    10  C    0.032154
    11  C   -0.046567
    12  C    0.202041
    13  C    0.110611
    14  O   -0.255483
    15  O   -0.278037
    16  N   -0.091214
    17  C    0.097413
    18  C   -0.111451
    19  C    0.033103
    20  C    0.081684
    21  C    0.054417
    22  C   -0.112915
    23  C    0.044094
    24  N   -0.182337
    25  C    0.122820
    26  C   -0.144752
    27  C   -0.049373
    28  C    0.015458
    29  C   -0.014625
    30  C    0.077814
    31  C   -0.045501
    32  N   -0.022694
    33  C    0.036313
    34  C   -0.129829
    35  C    0.027783
    36  C    0.031183
    37  C    0.026514
    38  C    0.050686
    39  O   -0.132404
    40  C   -0.045285
    41  C    0.221835
    42  O   -0.345852
    43  O   -0.227539
    44  C    0.186124
    45  C    0.320395
    46  C   -0.083486
    47  C   -0.152301
    48  C    0.219227
    49  C   -0.006913
    50  C    0.024540
    51  C    0.002605
    52  C   -0.052901
    53  C    0.076735
    54  C    0.095120
    55  C   -0.030104
    56  C    0.016136
    57  C   -0.119953
    58  C    0.030885
    59  C    0.046047
    60  C   -0.150204
    61  C    0.129401
    62  C   -0.054717
    63  C   -0.019983
    64  C    0.038860
    65  H   -0.018641
    66  H   -0.022398
    67  H   -0.002305
    68  H    0.047206
    69  H    0.005381
    70  H   -0.000386
    71  H    0.009692
    72  H    0.027492
    73  H    0.018700
    74  H    0.015630
    75  H   -0.022045
    76  H    0.017708
    77  H    0.055105
    78  H   -0.001823
    79  H    0.042646
    80  H    0.056170
    81  H    0.005077
    82  H    0.005436
    83  H    0.057193
    84  H    0.036222
    85  H    0.029150
    86  H    0.019042
    87  H   -0.010669
    88  H    0.052600
    89  H   -0.011892
    90  H    0.006207
    91  H    0.040295
    92  H    0.029364
    93  H    0.060348
    94  H    0.020704
    95  H    0.067116
    96  H    0.019260
    97  H    0.066408
    98  H    0.020224
    99  H   -0.005921
   100  H    0.003820
   101  H   -0.030954
   102  H    0.021906
   103  H   -0.056328
   104  H    0.004394
   105  H   -0.010539
   106  H    0.022180
   107  H   -0.000048
   108  H   -0.007194
   109  H   -0.007327
   110  H   -0.026756
   111  H   -0.036582
   112  H    0.003935
   113  H    0.007127
   114  H   -0.011279
   115  H   -0.046613
   116  H    0.027790
   117  H    0.006703
   118  H   -0.004745
   119  H    0.016439
   120  H    0.006297
   121  H    0.016232
   122  H   -0.014039
   123  H    0.001464
   124  H   -0.008766
   125  H    0.015673
   126  H    0.013297
   127  H    0.015129
   128  H    0.005905
   129  H   -0.037965
   130  H    0.007671
   131  H   -0.013488
   132  H    0.010130
   133  H    0.048414
   134  H    0.012396
   135  H   -0.010807
   136  H    0.002846
   137  H    0.153666
   138  H    0.171776
 Sum of Mulliken charges =   0.00000

 Dipole moment (field-independent basis, Debye):
    X=              3.6965    Y=              3.9559    Z=              0.5735  Tot=              5.4444
 Quadrupole moment (field-independent basis, Debye-Ang):
   XX=           -375.5946   YY=           -375.5454   ZZ=           -394.3031
   XY=            -19.8875   XZ=             12.9446   YZ=              0.5681

 Normal termination of Gaussian 09 at Thu Aug  1 23:05:09 2019.
