 Gaussian 09, Revision D.01,
 Gaussian 09:  ES64L-G09RevD.01 24-Apr-2013

 --------------------------
 # td=(NStates=1) B3LYP/SVP
 --------------------------

 --
 TD
 --
 Symbolic Z-matrix:
 Charge =  0 Multiplicity = 1

                         Standard orientation:
 ---------------------------------------------------------------------
 Center     Atomic      Atomic             Coordinates (Angstroms)
 Number     Number       Type             X           Y           Z
 ---------------------------------------------------------------------
      1          6           0       -5.109016   -1.883405    0.421901
      2          6           0       -4.796151    2.688280    1.526747
      3          6           0       -9.267452    3.310141   -0.408998
      4          6           0       -9.831274   -1.600100   -1.096071
      5          7           0       -5.323267    0.453810    0.816268
      6          6           0       -4.612315   -0.683050    0.819030
      7          6           0       -3.157948   -0.556757    1.367279
      8          6           0       -3.153706    0.849237    1.891575
      9          6           0       -4.487077    1.361600    1.448806
     10          6           0       -3.032775    0.873619    3.423626
     11          6           0       -2.129777   -0.831890    0.153582
     12          6           0       -0.645566   -0.558528    0.571597
     13          6           0        0.376148   -1.057907   -0.470627
     14          8           0        0.171718   -1.451221   -1.548413
     15          8           0        1.727450   -0.448743   -0.123669
     16          7           0       -6.981388    2.667080    0.461801
     17          6           0       -5.834614    3.284940    1.152679
     18          6           0       -6.251109    4.761220    1.088088
     19          6           0       -7.498740    4.921681    0.564433
     20          6           0       -8.040064    3.575642    0.218254
     21          6           0       -5.363573    5.814851    1.693945
     22          6           0       -8.130944    6.182874    0.522732
     23          6           0       -8.978775    6.561452   -0.354601
     24          7           0       -9.132419    0.799596   -0.572506
     25          6           0       -9.716925    1.990097   -0.677166
     26          6           0      -11.196153    1.798897   -1.124166
     27          6           0      -11.359098    0.450609   -1.341798
     28          6           0      -10.121065   -0.149569   -0.908855
     29          6           0      -12.185384    2.940193   -1.428661
     30          6           0      -12.542417   -0.331949   -1.787922
     31          6           0      -12.726743   -0.384394   -3.398945
     32          7           0       -7.557534   -1.340852   -0.238327
     33          6           0       -8.619613   -2.153078   -0.706137
     34          6           0       -8.070112   -3.519137   -0.815946
     35          6           0       -6.773309   -3.416099   -0.437785
     36          6           0       -6.492391   -2.141000    0.015948
     37          6           0       -8.835623   -4.774717   -1.033888
     38          6           0       -5.665096   -4.289690   -0.057980
     39          8           0       -5.444370   -5.580650   -0.034440
     40          6           0       -4.540259   -3.248535    0.491447
     41          6           0       -3.993317   -3.734761    1.805940
     42          8           0       -4.330971   -3.242268    2.939498
     43          8           0       -3.130102   -4.725251    1.563820
     44          6           0       -2.435769   -5.202407    2.714133
     45          6           0        2.605927   -0.797014   -1.226413
     46          6           0        3.966994   -0.514774   -0.562935
     47          6           0        4.962403    0.256705   -1.065255
     48          6           0        5.020415    1.046371   -2.414910
     49          6           0        6.210474    0.397731   -0.186180
     50          6           0        7.456718   -0.150328   -0.948086
     51          6           0        8.739380   -0.206506   -0.042300
     52          6           0       10.045844   -0.862702   -0.587290
     53          6           0        9.969762   -2.307398   -0.610913
     54          6           0       11.248992   -0.296179    0.138391
     55          6           0       12.654786   -0.572254   -0.518229
     56          6           0       13.822771    0.037252    0.222136
     57          6           0       15.200034   -0.283233   -0.372157
     58          6           0       15.554084   -1.839983   -0.345300
     59          6           0       16.282357    0.685609    0.329981
     60          6           0       17.656843    0.542247   -0.282956
     61          6           0       18.578639    1.665473    0.396561
     62          6           0       20.115211    1.563607   -0.068425
     63          6           0       20.251726    2.021932   -1.657685
     64          6           0       20.988936    2.292094    0.919414
     65          1           0       -4.048176    3.308393    2.131010
     66          1           0       -9.941327    4.010802   -0.198518
     67          1           0      -10.546333   -2.198641   -1.570521
     68          1           0       -3.025439   -1.183295    2.223943
     69          1           0       -2.269558    1.504979    1.463465
     70          1           0       -2.177455    0.312664    3.924502
     71          1           0       -3.154635    1.855218    3.861250
     72          1           0       -3.907022    0.423539    3.792146
     73          1           0       -2.345333   -2.023093   -0.090129
     74          1           0       -2.413910   -0.311305   -0.586286
     75          1           0       -0.098909    0.388132    1.046555
     76          1           0       -0.464876   -1.367778    1.404278
     77          1           0       -4.071194    5.803299    1.351261
     78          1           0       -5.768292    6.769830    1.305489
     79          1           0       -5.625198    6.070764    2.897726
     80          1           0       -7.870688    6.664365    1.478881
     81          1           0       -9.309573    5.949876   -1.255371
     82          1           0       -9.424631    7.526613   -0.361577
     83          1           0      -12.529148    3.371438   -0.479264
     84          1           0      -11.739308    3.870644   -2.223731
     85          1           0      -13.170905    2.624184   -1.847557
     86          1           0      -12.404950   -1.347769   -1.427096
     87          1           0      -13.464294    0.077568   -1.370608
     88          1           0      -12.488825    0.943899   -3.421098
     89          1           0      -11.828576   -0.707480   -3.777140
     90          1           0      -13.587944   -0.821768   -3.836747
     91          1           0       -9.739661   -4.678256   -0.220980
     92          1           0       -9.348040   -4.915216   -2.029917
     93          1           0       -8.303859   -5.722658   -0.758687
     94          1           0       -3.694133   -3.286067   -0.119124
     95          1           0       -1.773484   -5.895835    2.412922
     96          1           0       -1.729449   -4.384165    3.220270
     97          1           0       -3.226584   -5.702652    3.369234
     98          1           0        2.709534   -1.779085   -1.711810
     99          1           0        2.318503   -0.275467   -2.255771
    100          1           0        4.051432   -1.068921    0.481026
    101          1           0        5.473875    2.000933   -2.473030
    102          1           0        5.637274    0.554100   -3.183406
    103          1           0        3.835597    1.094122   -2.842941
    104          1           0        6.375186    1.439150    0.161087
    105          1           0        6.034870   -0.038669    0.724035
    106          1           0        7.036672   -1.295208   -1.296417
    107          1           0        7.759852    0.420513   -1.931139
    108          1           0        8.965897    0.970845    0.302058
    109          1           0        8.479783   -0.700704    0.985139
    110          1           0       10.219365   -0.389694   -1.612920
    111          1           0        8.913862   -2.622383   -1.117127
    112          1           0       10.725561   -2.893505   -1.290210
    113          1           0        9.937312   -2.662068    0.436387
    114          1           0       11.233397    0.715734    0.338434
    115          1           0       11.258148   -0.645867    1.256456
    116          1           0       12.688310   -1.749454   -0.577395
    117          1           0       12.405067   -0.161223   -1.504866
    118          1           0       13.398847    1.154690    0.452782
    119          1           0       13.807984   -0.282340    1.216886
    120          1           0       15.248904    0.272612   -1.222194
    121          1           0       14.729712   -2.472281   -0.880087
    122          1           0       16.556111   -1.913913   -0.807330
    123          1           0       15.610847   -1.890609    0.786448
    124          1           0       15.920668    1.626306    0.518792
    125          1           0       16.129059    0.311468    1.364503
    126          1           0       18.230015   -0.453860    0.076210
    127          1           0       17.541692    0.675391   -1.412216
    128          1           0       18.047719    2.598668    0.358115
    129          1           0       18.712371    1.453148    1.410078
    130          1           0       20.192425    0.410987   -0.067213
    131          1           0       19.768911    3.135941   -1.555087
    132          1           0       21.245231    1.805267   -1.845500
    133          1           0       19.583369    1.435646   -2.282349
    134          1           0       20.686327    1.810049    1.930176
    135          1           0       22.030984    2.045285    0.559023
    136          1           0       20.988263    3.410728    0.720054
    137          1           0       -7.141513    1.742056    0.192202
    138          1           0       -7.529034   -0.353042   -0.112324
 ---------------------------------------------------------------------

 SCF Done:  E(RB3LYP) =  -2732.96212484     A.U. after   17 cycles

 Excitation energies and oscillator strengths:

 Excited State   1:      Singlet-A      2.0220 eV  613.19 nm  f=0.1712  <S**2>=0.000
     235 -> 238        0.28769
     236 -> 237        0.63486
 This state for optimization and/or second-order correction.
 Total Energy, E(TD-HF/TD-KS) =  -2732.88781890
 Copying the excited state density for this state as the 1-particle RhoCI density.

 The electronic state is 1-A.
 Alpha  occ. eigenvalues --  -19.19272 -19.16532 -19.15418 -19.12504 -19.12235
 Alpha  occ. eigenvalues --  -14.37011 -14.36254 -14.33499 -14.30766 -10.32349
 Alpha  occ. eigenvalues --  -10.32105 -10.28977 -10.25233 -10.24553 -10.24384
 Alpha  occ. eigenvalues --  -10.24333 -10.23977 -10.23557 -10.23554 -10.23527
 Alpha  occ. eigenvalues --  -10.23421 -10.22870 -10.22341 -10.22273 -10.21869
 Alpha  occ. eigenvalues --  -10.21642 -10.21517 -10.21169 -10.21128 -10.21060
 Alpha  occ. eigenvalues --  -10.21047 -10.20823 -10.20764 -10.20476 -10.20282
 Alpha  occ. eigenvalues --  -10.20225 -10.20084 -10.20060 -10.19840 -10.19713
 Alpha  occ. eigenvalues --  -10.19690 -10.19633 -10.19602 -10.19553 -10.19535
 Alpha  occ. eigenvalues --  -10.19439 -10.19321 -10.19163 -10.19123 -10.19118
 Alpha  occ. eigenvalues --  -10.19103 -10.18994 -10.18969 -10.18957 -10.18904
 Alpha  occ. eigenvalues --  -10.18524 -10.18396 -10.18200 -10.18099 -10.17945
 Alpha  occ. eigenvalues --  -10.17873 -10.17239 -10.17154 -10.17102  -1.09821
 Alpha  occ. eigenvalues --   -1.09574  -0.99857  -0.98803  -0.98016  -0.97370
 Alpha  occ. eigenvalues --   -0.95980  -0.94747  -0.92797  -0.85288  -0.83560
 Alpha  occ. eigenvalues --   -0.82552  -0.81763  -0.81723  -0.81041  -0.80624
 Alpha  occ. eigenvalues --   -0.79893  -0.79829  -0.78678  -0.78518  -0.77928
 Alpha  occ. eigenvalues --   -0.77084  -0.76376  -0.75289  -0.74659  -0.74218
 Alpha  occ. eigenvalues --   -0.73486  -0.72915  -0.71700  -0.71091  -0.70258
 Alpha  occ. eigenvalues --   -0.69832  -0.69231  -0.68656  -0.67195  -0.67035
 Alpha  occ. eigenvalues --   -0.66979  -0.66634  -0.66597  -0.66133  -0.65105
 Alpha  occ. eigenvalues --   -0.64055  -0.63303  -0.62376  -0.62006  -0.61882
 Alpha  occ. eigenvalues --   -0.60391  -0.59610  -0.58218  -0.58043  -0.57852
 Alpha  occ. eigenvalues --   -0.56334  -0.56279  -0.55858  -0.55772  -0.55355
 Alpha  occ. eigenvalues --   -0.54958  -0.54341  -0.53790  -0.53435  -0.52747
 Alpha  occ. eigenvalues --   -0.52579  -0.51888  -0.51611  -0.50822  -0.50637
 Alpha  occ. eigenvalues --   -0.49773  -0.49581  -0.49344  -0.48882  -0.48388
 Alpha  occ. eigenvalues --   -0.47979  -0.47723  -0.47392  -0.47275  -0.46732
 Alpha  occ. eigenvalues --   -0.46577  -0.46086  -0.45859  -0.45700  -0.45477
 Alpha  occ. eigenvalues --   -0.45233  -0.45012  -0.44871  -0.44821  -0.44320
 Alpha  occ. eigenvalues --   -0.44246  -0.43992  -0.43811  -0.43587  -0.43336
 Alpha  occ. eigenvalues --   -0.43117  -0.43003  -0.42891  -0.42602  -0.42403
 Alpha  occ. eigenvalues --   -0.41993  -0.41810  -0.41709  -0.41566  -0.41479
 Alpha  occ. eigenvalues --   -0.41007  -0.40956  -0.40485  -0.40409  -0.40153
 Alpha  occ. eigenvalues --   -0.40049  -0.39887  -0.39756  -0.39464  -0.39339
 Alpha  occ. eigenvalues --   -0.39143  -0.38925  -0.38786  -0.38449  -0.38261
 Alpha  occ. eigenvalues --   -0.38028  -0.37943  -0.37758  -0.37710  -0.37216
 Alpha  occ. eigenvalues --   -0.37139  -0.36945  -0.36894  -0.36795  -0.36526
 Alpha  occ. eigenvalues --   -0.36252  -0.36180  -0.36058  -0.35964  -0.35866
 Alpha  occ. eigenvalues --   -0.35551  -0.35437  -0.35281  -0.35146  -0.35084
 Alpha  occ. eigenvalues --   -0.34907  -0.34760  -0.34568  -0.34119  -0.33878
 Alpha  occ. eigenvalues --   -0.33675  -0.33302  -0.32808  -0.32637  -0.32540
 Alpha  occ. eigenvalues --   -0.31808  -0.31654  -0.31231  -0.30653  -0.30568
 Alpha  occ. eigenvalues --   -0.30368  -0.30292  -0.29953  -0.29862  -0.29748
 Alpha  occ. eigenvalues --   -0.29452  -0.29342  -0.29072  -0.28876  -0.28557
 Alpha  occ. eigenvalues --   -0.27385  -0.26799  -0.26790  -0.26720  -0.26397
 Alpha  occ. eigenvalues --   -0.24966  -0.24828  -0.23728  -0.23049  -0.20783
 Alpha  occ. eigenvalues --   -0.18820
 Alpha virt. eigenvalues --   -0.10328  -0.08767  -0.05198  -0.02642  -0.02057
 Alpha virt. eigenvalues --   -0.01377  -0.00739   0.01502   0.01660   0.02209
 Alpha virt. eigenvalues --    0.02529   0.03431   0.03991   0.04245   0.04476

 Mulliken charges:
               1
     1  C    0.065476
     2  C   -0.120380
     3  C   -0.014148
     4  C   -0.057060
     5  N   -0.168244
     6  C   -0.105786
     7  C    0.018236
     8  C   -0.066839
     9  C    0.001416
    10  C    0.075306
    11  C    0.109691
    12  C   -0.022188
    13  C    0.188236
    14  O   -0.152882
    15  O   -0.399015
    16  N   -0.148110
    17  C    0.229348
    18  C   -0.100351
    19  C    0.037793
    20  C    0.082268
    21  C   -0.039831
    22  C   -0.049842
    23  C   -0.018403
    24  N   -0.249622
    25  C    0.055635
    26  C   -0.136394
    27  C   -0.092849
    28  C    0.054808
    29  C    0.019825
    30  C    0.070214
    31  C   -0.012998
    32  N   -0.035426
    33  C    0.115303
    34  C   -0.101400
    35  C   -0.004634
    36  C    0.015111
    37  C    0.018890
    38  C    0.144328
    39  O   -0.255694
    40  C    0.013068
    41  C    0.208225
    42  O   -0.295177
    43  O   -0.271991
    44  C    0.192049
    45  C    0.204303
    46  C   -0.100565
    47  C   -0.109166
    48  C    0.033697
    49  C    0.141062
    50  C   -0.069185
    51  C   -0.053554
    52  C   -0.004874
    53  C    0.016894
    54  C   -0.008686
    55  C    0.020660
    56  C    0.011864
    57  C   -0.008992
    58  C    0.016882
    59  C    0.013913
    60  C    0.008587
    61  C    0.038029
    62  C   -0.173801
    63  C    0.020802
    64  C    0.052066
    65  H    0.001995
    66  H   -0.038559
    67  H   -0.034095
    68  H   -0.000034
    69  H    0.024356
    70  H    0.033798
    71  H   -0.002439
    72  H    0.000423
    73  H    0.053836
    74  H   -0.039092
    75  H    0.092147
    76  H    0.037031
    77  H    0.069024
    78  H    0.019291
    79  H    0.055573
    80  H    0.011444
    81  H    0.045965
    82  H    0.010481
    83  H    0.022494
    84  H    0.050327
    85  H    0.016646
    86  H   -0.008131
    87  H    0.008724
    88  H    0.025435
    89  H   -0.002281
    90  H    0.032994
    91  H    0.044154
    92  H    0.039982
    93  H    0.054422
    94  H    0.022582
    95  H   -0.002305
    96  H    0.041940
    97  H    0.055033
    98  H    0.025161
    99  H    0.016584
   100  H    0.026640
   101  H    0.005693
   102  H    0.023609
   103  H    0.031950
   104  H   -0.006223
   105  H   -0.045777
   106  H    0.027667
   107  H    0.025134
   108  H    0.009745
   109  H    0.003014
   110  H   -0.014803
   111  H    0.015357
   112  H    0.034238
   113  H    0.008673
   114  H   -0.046284
   115  H   -0.026914
   116  H    0.008776
   117  H   -0.009547
   118  H   -0.004159
   119  H   -0.039800
   120  H   -0.044286
   121  H    0.051565
   122  H    0.027037
   123  H    0.021772
   124  H   -0.037324
   125  H   -0.035345
   126  H    0.027618
   127  H    0.022961
   128  H   -0.015566
   129  H   -0.035373
   130  H   -0.003569
   131  H    0.033132
   132  H    0.007577
   133  H    0.010444
   134  H    0.040663
   135  H    0.005199
   136  H    0.020499
   137  H    0.113610
   138  H    0.131597
 Sum of Mulliken charges =   0.00000

 Dipole moment (field-independent basis, Debye):
    X=              0.3954    Y=              4.4292    Z=              1.2699  Tot=              4.6246
 Quadrupole moment (field-independent basis, Debye-Ang):
   XX=           -357.7748   YY=           -383.4240   ZZ=           -395.8764
   XY=            -25.4536   XZ=              7.6152   YZ=              4.3793

 Normal termination of Gaussian 09 at Sun Aug  4 07:57:30 2019.
