 Gaussian 09, Revision D.01,
 Gaussian 09:  ES64L-G09RevD.01 24-Apr-2013

 --------------------------
 # td=(NStates=1) B3LYP/SVP
 --------------------------

 --
 TD
 --
 Symbolic Z-matrix:
 Charge =  0 Multiplicity = 1

                         Standard orientation:
 ---------------------------------------------------------------------
 Center     Atomic      Atomic             Coordinates (Angstroms)
 Number     Number       Type             X           Y           Z
 ---------------------------------------------------------------------
      1          6           0       -5.129436   -1.944650    0.622526
      2          6           0       -4.672876    2.818978    1.266669
      3          6           0       -9.335283    3.420535   -0.204607
      4          6           0       -9.843964   -1.391996   -0.937245
      5          7           0       -5.181570    0.502508    0.870548
      6          6           0       -4.444928   -0.662024    0.859906
      7          6           0       -2.969203   -0.466239    1.195614
      8          6           0       -2.930321    0.934512    1.698601
      9          6           0       -4.339903    1.439271    1.232245
     10          6           0       -2.694535    0.980911    3.183106
     11          6           0       -2.062348   -0.881123    0.095238
     12          6           0       -0.573069   -0.890813    0.473342
     13          6           0        0.421154   -1.138573   -0.705789
     14          8           0        0.054837   -1.798647   -1.732515
     15          8           0        1.713594   -0.943015   -0.398301
     16          7           0       -7.139514    2.841401    0.523097
     17          6           0       -5.964048    3.431153    1.009378
     18          6           0       -6.175351    4.855509    0.948685
     19          6           0       -7.595212    5.025266    0.509095
     20          6           0       -8.033477    3.803550    0.218435
     21          6           0       -5.318379    5.910295    1.506593
     22          6           0       -8.230683    6.274414    0.512888
     23          6           0       -8.986625    6.651278   -0.483402
     24          7           0       -9.181496    1.045190   -0.371308
     25          6           0       -9.896731    2.202986   -0.501160
     26          6           0      -11.315879    1.919176   -0.926027
     27          6           0      -11.403798    0.554938   -1.185878
     28          6           0      -10.074942   -0.073884   -0.804684
     29          6           0      -12.277451    2.937894   -1.225928
     30          6           0      -12.622068   -0.204708   -1.686186
     31          6           0      -12.665857   -0.445679   -3.111122
     32          7           0       -7.534377   -1.216142   -0.140671
     33          6           0       -8.660095   -2.000369   -0.575024
     34          6           0       -8.251192   -3.414389   -0.541874
     35          6           0       -6.898629   -3.398722   -0.004076
     36          6           0       -6.479740   -2.021873    0.109661
     37          6           0       -9.036544   -4.548742   -0.909728
     38          6           0       -5.741873   -4.306823    0.191859
     39          8           0       -5.658550   -5.492359    0.055878
     40          6           0       -4.530308   -3.344646    0.508272
     41          6           0       -4.011123   -3.719281    1.845891
     42          8           0       -4.334307   -3.334454    2.889822
     43          8           0       -2.979791   -4.747495    1.759436
     44          6           0       -2.646698   -5.311405    3.039212
     45          6           0        2.688629   -1.417425   -1.290283
     46          6           0        3.996098   -0.798967   -0.868671
     47          6           0        5.063974   -0.213924   -1.489335
     48          6           0        5.119231    0.118025   -3.006765
     49          6           0        6.216831    0.132075   -0.705684
     50          6           0        7.452219   -0.664086   -1.101587
     51          6           0        8.709824   -0.383873   -0.316258
     52          6           0       10.148873   -0.871199   -0.821751
     53          6           0       10.026733   -2.302112   -0.964129
     54          6           0       11.361613   -0.169641   -0.054369
     55          6           0       12.682075   -0.672575   -0.451975
     56          6           0       13.784240    0.026264    0.225706
     57          6           0       15.141679   -0.150587   -0.295460
     58          6           0       15.652374   -1.715745   -0.197845
     59          6           0       16.257254    0.855539    0.302424
     60          6           0       17.726667    0.810704   -0.152409
     61          6           0       18.536775    1.788199    0.736997
     62          6           0       19.993292    1.789744    0.229362
     63          6           0       20.170657    2.585120   -1.066971
     64          6           0       20.896528    2.518864    1.367345
     65          1           0       -4.105401    3.568179    1.489422
     66          1           0      -10.055067    4.286026   -0.280268
     67          1           0      -10.764106   -1.955943   -1.146948
     68          1           0       -2.869106   -1.313905    2.047828
     69          1           0       -2.057403    1.789723    1.399250
     70          1           0       -1.684734    0.726141    3.558681
     71          1           0       -2.801312    1.971462    3.349130
     72          1           0       -3.507266    0.349352    3.859377
     73          1           0       -2.188010   -1.799773   -0.424569
     74          1           0       -2.060899   -0.111029   -0.912563
     75          1           0       -0.158309    0.072366    0.932704
     76          1           0       -0.284284   -1.694506    1.319630
     77          1           0       -4.476334    5.875373    0.806021
     78          1           0       -5.788075    6.926031    1.202621
     79          1           0       -5.269155    5.670898    2.558275
     80          1           0       -8.128123    7.038144    1.291224
     81          1           0       -9.010619    5.829159   -1.311745
     82          1           0       -9.444766    7.498221   -0.551142
     83          1           0      -12.362273    3.590888   -0.365770
     84          1           0      -12.042990    3.613518   -2.125696
     85          1           0      -13.243605    2.485973   -1.439171
     86          1           0      -12.842754   -1.199571   -1.213035
     87          1           0      -13.451209    0.355840   -1.528657
     88          1           0      -12.832565    0.554921   -3.797746
     89          1           0      -11.750936   -1.031560   -3.343875
     90          1           0      -13.509031   -1.150756   -3.348634
     91          1           0      -10.338173   -4.565480   -0.583990
     92          1           0       -8.905175   -4.761873   -2.129386
     93          1           0       -8.503150   -5.441897   -0.772289
     94          1           0       -3.841958   -3.496114   -0.280285
     95          1           0       -2.067497   -6.117419    2.929114
     96          1           0       -1.907895   -4.582306    3.724546
     97          1           0       -3.614200   -5.747379    3.571430
     98          1           0        2.525879   -2.422476   -1.252814
     99          1           0        2.495321   -1.027065   -2.324982
    100          1           0        4.195939   -1.221204    0.255156
    101          1           0        5.384302    1.031214   -3.211001
    102          1           0        5.742288   -0.740991   -3.499687
    103          1           0        4.071476   -0.031857   -3.503440
    104          1           0        6.320484    1.237128   -0.799023
    105          1           0        5.885635   -0.030011    0.359860
    106          1           0        7.448550   -1.724474   -1.087264
    107          1           0        7.849841   -0.489494   -2.253756
    108          1           0        8.748690    0.745514    0.099206
    109          1           0        8.708017   -0.859918    0.714732
    110          1           0       10.235771   -0.378461   -1.821242
    111          1           0        9.143223   -2.704052   -1.633443
    112          1           0       10.973993   -2.815439   -1.568295
    113          1           0       10.059892   -2.946300   -0.039739
    114          1           0       11.121564    0.921687    0.008755
    115          1           0       11.187619   -0.463619    0.994207
    116          1           0       12.856953   -1.829859   -0.267825
    117          1           0       12.759400   -0.429866   -1.645202
    118          1           0       13.228769    0.920409    0.223564
    119          1           0       13.834128   -0.206067    1.251243
    120          1           0       15.093474    0.015886   -1.450153
    121          1           0       14.984961   -2.517423   -0.606792
    122          1           0       16.673561   -1.888965   -0.695561
    123          1           0       15.552589   -2.109201    0.896805
    124          1           0       15.894445    1.903727    0.252391
    125          1           0       16.139865    0.480565    1.529679
    126          1           0       18.211785   -0.052474    0.124263
    127          1           0       17.829476    0.967977   -1.249770
    128          1           0       18.145162    2.806263    0.676892
    129          1           0       18.593127    1.688614    1.874946
    130          1           0       20.183344    0.745191    0.134167
    131          1           0       19.950578    3.666481   -1.003187
    132          1           0       21.317483    2.628310   -1.406091
    133          1           0       19.600423    2.378838   -2.146041
    134          1           0       21.009149    2.207786    2.520870
    135          1           0       21.970502    2.564428    0.807535
    136          1           0       20.443623    3.625213    1.474496
    137          1           0       -7.355975    1.826826    0.288154
    138          1           0       -7.661384    0.056756   -0.088305
 ---------------------------------------------------------------------

 SCF Done:  E(RB3LYP) =  -2732.96679970     A.U. after   18 cycles

 Excitation energies and oscillator strengths:

 Excited State   1:      Singlet-A      1.9794 eV  626.38 nm  f=0.1834  <S**2>=0.000
     235 -> 237        0.14598
     235 -> 238        0.28161
     236 -> 237        0.62666
 This state for optimization and/or second-order correction.
 Total Energy, E(TD-HF/TD-KS) =  -2732.89405868
 Copying the excited state density for this state as the 1-particle RhoCI density.

 The electronic state is 1-A.
 Alpha  occ. eigenvalues --  -19.18180 -19.15458 -19.13402 -19.12692 -19.11771
 Alpha  occ. eigenvalues --  -14.37001 -14.36136 -14.33047 -14.31985 -10.31954
 Alpha  occ. eigenvalues --  -10.31150 -10.28258 -10.24322 -10.24130 -10.23903
 Alpha  occ. eigenvalues --  -10.23783 -10.23746 -10.23709 -10.23365 -10.22700
 Alpha  occ. eigenvalues --  -10.22421 -10.22181 -10.22124 -10.21960 -10.21932
 Alpha  occ. eigenvalues --  -10.21817 -10.21614 -10.21404 -10.21400 -10.21015
 Alpha  occ. eigenvalues --  -10.20905 -10.20745 -10.20417 -10.20325 -10.20301
 Alpha  occ. eigenvalues --  -10.20165 -10.20063 -10.20043 -10.19969 -10.19871
 Alpha  occ. eigenvalues --  -10.19863 -10.19844 -10.19783 -10.19770 -10.19673
 Alpha  occ. eigenvalues --  -10.19671 -10.19631 -10.19516 -10.19468 -10.19457
 Alpha  occ. eigenvalues --  -10.19454 -10.19419 -10.19323 -10.19307 -10.19169
 Alpha  occ. eigenvalues --  -10.19086 -10.19073 -10.18996 -10.18938 -10.18743
 Alpha  occ. eigenvalues --  -10.18216 -10.18144 -10.18087 -10.16413  -1.09588
 Alpha  occ. eigenvalues --   -1.09154  -1.03994  -0.99505  -0.97882  -0.97766
 Alpha  occ. eigenvalues --   -0.96030  -0.95386  -0.91108  -0.84416  -0.83338
 Alpha  occ. eigenvalues --   -0.82740  -0.82614  -0.81949  -0.81518  -0.80768
 Alpha  occ. eigenvalues --   -0.80384  -0.79929  -0.79773  -0.79253  -0.77997
 Alpha  occ. eigenvalues --   -0.77092  -0.76515  -0.76112  -0.75624  -0.74935
 Alpha  occ. eigenvalues --   -0.73733  -0.73107  -0.72301  -0.71910  -0.71495
 Alpha  occ. eigenvalues --   -0.69940  -0.69170  -0.68779  -0.67790  -0.67178
 Alpha  occ. eigenvalues --   -0.67041  -0.65786  -0.65612  -0.65331  -0.64796
 Alpha  occ. eigenvalues --   -0.63527  -0.62672  -0.61984  -0.61444  -0.61333
 Alpha  occ. eigenvalues --   -0.60894  -0.59357  -0.57581  -0.57493  -0.57150
 Alpha  occ. eigenvalues --   -0.56762  -0.56179  -0.55995  -0.55417  -0.55389
 Alpha  occ. eigenvalues --   -0.54440  -0.54194  -0.53670  -0.53031  -0.52853
 Alpha  occ. eigenvalues --   -0.52336  -0.52007  -0.51857  -0.51242  -0.50727
 Alpha  occ. eigenvalues --   -0.50258  -0.49557  -0.49143  -0.49104  -0.48273
 Alpha  occ. eigenvalues --   -0.47878  -0.47847  -0.47334  -0.47081  -0.46998
 Alpha  occ. eigenvalues --   -0.46876  -0.46509  -0.46169  -0.45950  -0.45834
 Alpha  occ. eigenvalues --   -0.45658  -0.45489  -0.45289  -0.45034  -0.44760
 Alpha  occ. eigenvalues --   -0.44527  -0.44183  -0.44010  -0.43893  -0.43611
 Alpha  occ. eigenvalues --   -0.43461  -0.43315  -0.43231  -0.43206  -0.42904
 Alpha  occ. eigenvalues --   -0.42430  -0.42297  -0.42199  -0.41761  -0.41696
 Alpha  occ. eigenvalues --   -0.41529  -0.41339  -0.40672  -0.40646  -0.40170
 Alpha  occ. eigenvalues --   -0.40085  -0.39901  -0.39889  -0.39673  -0.39407
 Alpha  occ. eigenvalues --   -0.39117  -0.38918  -0.38660  -0.38568  -0.38385
 Alpha  occ. eigenvalues --   -0.38323  -0.38027  -0.37938  -0.37523  -0.37426
 Alpha  occ. eigenvalues --   -0.37342  -0.37206  -0.37003  -0.36733  -0.36578
 Alpha  occ. eigenvalues --   -0.36365  -0.36180  -0.35874  -0.35768  -0.35564
 Alpha  occ. eigenvalues --   -0.35510  -0.35336  -0.34738  -0.34579  -0.34312
 Alpha  occ. eigenvalues --   -0.34027  -0.34002  -0.33982  -0.33762  -0.33607
 Alpha  occ. eigenvalues --   -0.33410  -0.33396  -0.32801  -0.32541  -0.32238
 Alpha  occ. eigenvalues --   -0.32100  -0.31977  -0.31742  -0.31322  -0.31053
 Alpha  occ. eigenvalues --   -0.30711  -0.30602  -0.29980  -0.29824  -0.29503
 Alpha  occ. eigenvalues --   -0.28956  -0.28929  -0.28556  -0.28297  -0.28140
 Alpha  occ. eigenvalues --   -0.27872  -0.27489  -0.26990  -0.26281  -0.25556
 Alpha  occ. eigenvalues --   -0.25093  -0.24777  -0.23452  -0.22960  -0.19506
 Alpha  occ. eigenvalues --   -0.19246
 Alpha virt. eigenvalues --   -0.11042  -0.07347  -0.04618  -0.01690  -0.01513
 Alpha virt. eigenvalues --   -0.00702  -0.00119   0.00880   0.01114   0.03193
 Alpha virt. eigenvalues --    0.03342   0.03893   0.03925   0.04280   0.04571

 Mulliken charges:
               1
     1  C   -0.041347
     2  C    0.041635
     3  C   -0.102388
     4  C   -0.116398
     5  N   -0.127863
     6  C   -0.037505
     7  C    0.025519
     8  C   -0.105044
     9  C    0.062112
    10  C    0.068471
    11  C    0.040181
    12  C   -0.033667
    13  C    0.197719
    14  O   -0.302360
    15  O   -0.293317
    16  N   -0.080324
    17  C    0.052319
    18  C   -0.213979
    19  C    0.099915
    20  C    0.080007
    21  C    0.118859
    22  C   -0.110806
    23  C    0.034609
    24  N   -0.366454
    25  C    0.087609
    26  C   -0.109319
    27  C   -0.086320
    28  C    0.115600
    29  C    0.100765
    30  C    0.119990
    31  C   -0.036225
    32  N   -0.208154
    33  C    0.146388
    34  C   -0.084926
    35  C   -0.053802
    36  C    0.105410
    37  C    0.032116
    38  C    0.053072
    39  O   -0.141716
    40  C    0.010195
    41  C    0.200877
    42  O   -0.148278
    43  O   -0.375165
    44  C    0.179221
    45  C    0.327186
    46  C   -0.141772
    47  C   -0.171758
    48  C    0.097553
    49  C    0.139955
    50  C    0.020283
    51  C   -0.059520
    52  C   -0.040724
    53  C   -0.039260
    54  C    0.025949
    55  C   -0.023942
    56  C    0.118909
    57  C   -0.031441
    58  C   -0.052393
    59  C   -0.034939
    60  C    0.111974
    61  C   -0.013340
    62  C   -0.027457
    63  C   -0.057815
    64  C   -0.085933
    65  H   -0.127415
    66  H   -0.016489
    67  H   -0.014764
    68  H    0.054173
    69  H    0.030709
    70  H    0.022459
    71  H   -0.031609
    72  H    0.042315
    73  H    0.014872
    74  H    0.026493
    75  H    0.025241
    76  H    0.055406
    77  H    0.032843
    78  H    0.023978
    79  H    0.055729
    80  H    0.000526
    81  H    0.041881
    82  H   -0.044327
    83  H    0.017681
    84  H    0.036970
    85  H   -0.003061
    86  H    0.008515
    87  H   -0.043573
    88  H    0.033129
    89  H    0.010057
    90  H    0.010322
    91  H    0.069835
    92  H    0.036692
    93  H    0.003339
    94  H    0.046269
    95  H   -0.012755
    96  H    0.027616
    97  H    0.042459
    98  H   -0.007453
    99  H    0.010659
   100  H    0.008846
   101  H   -0.014869
   102  H    0.050646
   103  H    0.013268
   104  H    0.010802
   105  H    0.004347
   106  H   -0.004254
   107  H    0.011450
   108  H   -0.012857
   109  H   -0.012664
   110  H   -0.006871
   111  H    0.031863
   112  H    0.013403
   113  H    0.014552
   114  H    0.010760
   115  H   -0.021530
   116  H    0.018116
   117  H    0.005273
   118  H   -0.040366
   119  H   -0.034565
   120  H   -0.009604
   121  H    0.012890
   122  H    0.036500
   123  H    0.007518
   124  H    0.007349
   125  H    0.004226
   126  H   -0.021443
   127  H    0.013518
   128  H   -0.026242
   129  H    0.007767
   130  H   -0.007816
   131  H    0.008733
   132  H    0.016981
   133  H    0.031866
   134  H    0.046190
   135  H    0.030603
   136  H    0.024738
   137  H    0.153480
   138  H    0.279930
 Sum of Mulliken charges =   0.00000

 Dipole moment (field-independent basis, Debye):
    X=              1.3627    Y=              5.2699    Z=             -0.0412  Tot=              5.4434
 Quadrupole moment (field-independent basis, Debye-Ang):
   XX=           -338.4511   YY=           -384.4456   ZZ=           -397.5229
   XY=            -26.1690   XZ=             10.1476   YZ=              0.8188

 Normal termination of Gaussian 09 at Sat Aug  3 16:03:52 2019.
