 Gaussian 09, Revision D.01,
 Gaussian 09:  ES64L-G09RevD.01 24-Apr-2013

 --------------------------
 # td=(NStates=1) B3LYP/SVP
 --------------------------

 --
 TD
 --
 Symbolic Z-matrix:
 Charge =  0 Multiplicity = 1

                         Standard orientation:
 ---------------------------------------------------------------------
 Center     Atomic      Atomic             Coordinates (Angstroms)
 Number     Number       Type             X           Y           Z
 ---------------------------------------------------------------------
      1          6           0       -4.990563   -1.848526    0.395433
      2          6           0       -4.995509    2.853051    1.402586
      3          6           0       -9.607541    3.141815   -0.329342
      4          6           0       -9.825297   -1.691483   -0.861837
      5          7           0       -5.316976    0.557877    0.816879
      6          6           0       -4.531875   -0.620361    0.825427
      7          6           0       -3.073710   -0.341196    1.157885
      8          6           0       -3.171996    1.069318    1.721051
      9          6           0       -4.529884    1.499861    1.265640
     10          6           0       -3.032109    1.285233    3.300514
     11          6           0       -2.154539   -0.592409    0.049621
     12          6           0       -0.633204   -0.362034    0.385682
     13          6           0        0.384276   -0.673647   -0.785866
     14          8           0       -0.015681   -1.051510   -1.828099
     15          8           0        1.608197   -0.338196   -0.443971
     16          7           0       -7.344324    2.641005    0.462072
     17          6           0       -6.299709    3.512379    0.980222
     18          6           0       -6.617137    4.886884    0.958493
     19          6           0       -7.920006    4.930460    0.484411
     20          6           0       -8.318316    3.534184    0.168283
     21          6           0       -5.762909    6.041153    1.387039
     22          6           0       -8.620892    6.070368    0.281089
     23          6           0       -9.378351    6.359571   -0.855516
     24          7           0       -9.190235    0.667402   -0.561357
     25          6           0       -9.965389    1.827152   -0.541520
     26          6           0      -11.381665    1.451423   -0.964907
     27          6           0      -11.485470    0.113574   -1.105290
     28          6           0      -10.129786   -0.285584   -0.799551
     29          6           0      -12.534156    2.513061   -0.990521
     30          6           0      -12.693852   -0.756808   -1.289757
     31          6           0      -12.945340   -1.022913   -2.738619
     32          7           0       -7.402345   -1.353039   -0.257535
     33          6           0       -8.479241   -2.175249   -0.639765
     34          6           0       -7.995228   -3.532021   -0.635343
     35          6           0       -6.634044   -3.529677   -0.286009
     36          6           0       -6.289483   -2.106100   -0.003406
     37          6           0       -8.636911   -4.865438   -0.938269
     38          6           0       -5.448721   -4.405951   -0.007242
     39          8           0       -5.311838   -5.528208   -0.002923
     40          6           0       -4.379219   -3.207927    0.499789
     41          6           0       -3.756181   -3.710346    1.731555
     42          8           0       -3.998676   -3.289522    2.853358
     43          8           0       -2.891574   -4.755856    1.551467
     44          6           0       -2.271722   -5.306242    2.771473
     45          6           0        2.659054   -0.664603   -1.313418
     46          6           0        4.018242   -0.370880   -0.585535
     47          6           0        5.009132    0.374320   -1.125611
     48          6           0        4.982809    1.213191   -2.233183
     49          6           0        6.260313    0.402799   -0.160010
     50          6           0        7.564249   -0.060234   -0.873571
     51          6           0        8.904381   -0.029560   -0.017784
     52          6           0       10.094995   -0.536645   -0.729046
     53          6           0        9.969085   -2.109038   -0.871134
     54          6           0       11.406835   -0.103778    0.101245
     55          6           0       12.787687   -0.575411   -0.700001
     56          6           0       13.929940   -0.141011    0.159714
     57          6           0       15.414594   -0.352720   -0.392932
     58          6           0       15.853073   -1.847662   -0.530361
     59          6           0       16.421054    0.372803    0.437359
     60          6           0       17.844245    0.565916   -0.187598
     61          6           0       18.781484    1.346798    0.703689
     62          6           0       20.182226    1.421708    0.145403
     63          6           0       20.367121    2.005210   -1.286035
     64          6           0       21.073623    2.159440    1.213798
     65          1           0       -4.218131    3.485455    1.770798
     66          1           0      -10.543249    3.802318   -0.298107
     67          1           0      -10.594133   -2.588194   -0.904819
     68          1           0       -2.793790   -1.043665    1.987609
     69          1           0       -2.304340    1.689618    1.298381
     70          1           0       -2.032174    0.784248    3.556640
     71          1           0       -3.067688    2.317902    3.682430
     72          1           0       -3.712230    0.547209    3.812259
     73          1           0       -2.133318   -1.577620   -0.534857
     74          1           0       -2.154265    0.052749   -0.702828
     75          1           0       -0.444313    0.886753    0.543946
     76          1           0       -0.124267   -0.967323    1.304940
     77          1           0       -4.846844    6.147351    0.623389
     78          1           0       -6.366378    7.057298    1.162685
     79          1           0       -5.271380    5.892470    2.455123
     80          1           0       -8.466958    6.947868    0.773830
     81          1           0       -9.525087    5.814304   -1.820613
     82          1           0      -10.067809    7.156583   -0.648399
     83          1           0      -13.220562    2.701950    0.134617
     84          1           0      -12.041472    3.467016   -1.604559
     85          1           0      -13.346954    2.248425   -1.622059
     86          1           0      -12.670769   -1.535425   -0.706379
     87          1           0      -13.574315   -0.170988   -0.947141
     88          1           0      -13.161677   -0.149113   -3.351958
     89          1           0      -11.890042   -1.332256   -3.195836
     90          1           0      -13.715090   -1.742361   -2.934214
     91          1           0       -9.892294   -4.650521   -0.767494
     92          1           0       -8.657710   -5.110846   -2.205968
     93          1           0       -8.203142   -5.800939   -0.275763
     94          1           0       -3.477033   -3.290299   -0.425909
     95          1           0       -1.841129   -6.299429    2.469296
     96          1           0       -1.778573   -4.577815    3.418594
     97          1           0       -3.093287   -5.634850    3.427198
     98          1           0        2.796623   -1.793678   -1.492593
     99          1           0        2.506375   -0.275520   -2.229687
    100          1           0        4.241765   -0.963722    0.384672
    101          1           0        5.571413    2.044890   -2.088296
    102          1           0        5.591384    0.748332   -3.105300
    103          1           0        4.011136    1.714908   -2.533161
    104          1           0        6.367758    1.497870    0.019331
    105          1           0        6.149207   -0.234244    0.836772
    106          1           0        7.442437   -1.161202   -1.234166
    107          1           0        7.642792    0.632507   -1.844283
    108          1           0        9.166504    1.050308    0.299095
    109          1           0        8.427406   -0.763627    0.947910
    110          1           0       10.208527   -0.272812   -1.868650
    111          1           0        8.969087   -2.547303   -1.156340
    112          1           0       10.909357   -2.498228   -1.517620
    113          1           0       10.171754   -2.430424    0.243029
    114          1           0       11.296311    0.944257   -0.054431
    115          1           0       11.399047   -0.310305    1.123937
    116          1           0       12.825510   -1.583437   -0.737822
    117          1           0       12.836433   -0.010567   -1.730895
    118          1           0       13.879585    0.996218    0.360543
    119          1           0       13.836847   -0.667544    1.142595
    120          1           0       15.485212   -0.016234   -1.426056
    121          1           0       15.060612   -2.555177   -1.068832
    122          1           0       16.788562   -1.780002   -1.115957
    123          1           0       16.068848   -2.117131    0.536811
    124          1           0       16.127478    1.382565    0.726003
    125          1           0       16.433352   -0.062579    1.347501
    126          1           0       18.439035   -0.330818   -0.432223
    127          1           0       17.949718    1.208851   -1.199861
    128          1           0       18.375747    2.489902    0.913148
    129          1           0       18.687104    1.127676    1.651873
    130          1           0       20.646456    0.458331    0.160900
    131          1           0       20.008629    3.071239   -1.250953
    132          1           0       21.373898    2.226063   -1.515136
    133          1           0       19.728460    1.343117   -2.016200
    134          1           0       20.918281    1.724428    2.254639
    135          1           0       22.113694    1.962246    0.984853
    136          1           0       20.903261    3.287393    1.185436
    137          1           0       -7.216885    1.680308    0.453919
    138          1           0       -7.765367   -0.388401   -0.178964
 ---------------------------------------------------------------------

 SCF Done:  E(RB3LYP) =  -2733.02111631     A.U. after   16 cycles

 Excitation energies and oscillator strengths:

 Excited State   1:      Singlet-A      1.9332 eV  641.35 nm  f=0.1920  <S**2>=0.000
     235 -> 237       -0.12484
     235 -> 238       -0.26575
     236 -> 237        0.63408
 This state for optimization and/or second-order correction.
 Total Energy, E(TD-HF/TD-KS) =  -2732.95007374
 Copying the excited state density for this state as the 1-particle RhoCI density.

 The electronic state is 1-A.
 Alpha  occ. eigenvalues --  -19.18346 -19.16664 -19.14094 -19.12371 -19.11151
 Alpha  occ. eigenvalues --  -14.37265 -14.36170 -14.32378 -14.30890 -10.31310
 Alpha  occ. eigenvalues --  -10.30678 -10.28898 -10.24808 -10.24686 -10.24649
 Alpha  occ. eigenvalues --  -10.24228 -10.23491 -10.23445 -10.23369 -10.22882
 Alpha  occ. eigenvalues --  -10.22818 -10.22357 -10.22173 -10.22172 -10.21840
 Alpha  occ. eigenvalues --  -10.21739 -10.21645 -10.21284 -10.21270 -10.20870
 Alpha  occ. eigenvalues --  -10.20677 -10.20573 -10.20374 -10.20346 -10.20156
 Alpha  occ. eigenvalues --  -10.20136 -10.19942 -10.19908 -10.19893 -10.19877
 Alpha  occ. eigenvalues --  -10.19848 -10.19822 -10.19603 -10.19587 -10.19541
 Alpha  occ. eigenvalues --  -10.19443 -10.19378 -10.19205 -10.18984 -10.18869
 Alpha  occ. eigenvalues --  -10.18724 -10.18696 -10.18675 -10.18653 -10.18638
 Alpha  occ. eigenvalues --  -10.18612 -10.18553 -10.18432 -10.18413 -10.18299
 Alpha  occ. eigenvalues --  -10.18178 -10.18154 -10.17346 -10.17245  -1.11455
 Alpha  occ. eigenvalues --   -1.08819  -1.07179  -1.02836  -0.98379  -0.97534
 Alpha  occ. eigenvalues --   -0.96776  -0.94656  -0.93248  -0.84187  -0.83578
 Alpha  occ. eigenvalues --   -0.82738  -0.81799  -0.81388  -0.80697  -0.80647
 Alpha  occ. eigenvalues --   -0.79557  -0.79462  -0.79171  -0.77504  -0.76909
 Alpha  occ. eigenvalues --   -0.76270  -0.75811  -0.74994  -0.74370  -0.73984
 Alpha  occ. eigenvalues --   -0.73233  -0.72253  -0.71945  -0.71828  -0.70067
 Alpha  occ. eigenvalues --   -0.69309  -0.68622  -0.67816  -0.67443  -0.67371
 Alpha  occ. eigenvalues --   -0.66636  -0.66286  -0.66269  -0.65205  -0.65099
 Alpha  occ. eigenvalues --   -0.63975  -0.63177  -0.62447  -0.62204  -0.61527
 Alpha  occ. eigenvalues --   -0.60897  -0.58612  -0.58129  -0.57527  -0.57383
 Alpha  occ. eigenvalues --   -0.56830  -0.56566  -0.56223  -0.55984  -0.55154
 Alpha  occ. eigenvalues --   -0.54945  -0.54431  -0.53562  -0.53188  -0.52861
 Alpha  occ. eigenvalues --   -0.52078  -0.51820  -0.51248  -0.50432  -0.50154
 Alpha  occ. eigenvalues --   -0.50062  -0.49009  -0.48210  -0.48140  -0.47793
 Alpha  occ. eigenvalues --   -0.47758  -0.47451  -0.47004  -0.46931  -0.46755
 Alpha  occ. eigenvalues --   -0.46540  -0.46387  -0.46253  -0.45662  -0.45601
 Alpha  occ. eigenvalues --   -0.45246  -0.45025  -0.44878  -0.44755  -0.44461
 Alpha  occ. eigenvalues --   -0.44330  -0.43930  -0.43792  -0.43633  -0.43607
 Alpha  occ. eigenvalues --   -0.43181  -0.42743  -0.42614  -0.42336  -0.42096
 Alpha  occ. eigenvalues --   -0.41862  -0.41669  -0.41405  -0.41301  -0.41249
 Alpha  occ. eigenvalues --   -0.41087  -0.40915  -0.40556  -0.40498  -0.40190
 Alpha  occ. eigenvalues --   -0.40029  -0.39784  -0.39665  -0.39529  -0.39414
 Alpha  occ. eigenvalues --   -0.39115  -0.38788  -0.38568  -0.38485  -0.38397
 Alpha  occ. eigenvalues --   -0.38270  -0.38007  -0.37865  -0.37500  -0.37334
 Alpha  occ. eigenvalues --   -0.37105  -0.36933  -0.36827  -0.36679  -0.36487
 Alpha  occ. eigenvalues --   -0.36431  -0.36300  -0.36256  -0.35774  -0.35568
 Alpha  occ. eigenvalues --   -0.35339  -0.35306  -0.35027  -0.34956  -0.34826
 Alpha  occ. eigenvalues --   -0.34354  -0.34337  -0.34072  -0.33935  -0.33476
 Alpha  occ. eigenvalues --   -0.33396  -0.33153  -0.32851  -0.32476  -0.32402
 Alpha  occ. eigenvalues --   -0.32380  -0.31993  -0.31738  -0.31252  -0.31077
 Alpha  occ. eigenvalues --   -0.30769  -0.30645  -0.30467  -0.30230  -0.29958
 Alpha  occ. eigenvalues --   -0.29368  -0.29316  -0.28106  -0.27929  -0.27837
 Alpha  occ. eigenvalues --   -0.27665  -0.27141  -0.26647  -0.26038  -0.25615
 Alpha  occ. eigenvalues --   -0.25157  -0.24485  -0.23600  -0.23381  -0.19455
 Alpha  occ. eigenvalues --   -0.18344
 Alpha virt. eigenvalues --   -0.10422  -0.07289  -0.04384  -0.02625  -0.00359
 Alpha virt. eigenvalues --    0.00201   0.00700   0.01304   0.02075   0.03034
 Alpha virt. eigenvalues --    0.03401   0.03586   0.04102   0.04351   0.04514

 Mulliken charges:
               1
     1  C    0.121698
     2  C   -0.029367
     3  C   -0.142144
     4  C   -0.110198
     5  N   -0.165591
     6  C   -0.085092
     7  C    0.050928
     8  C   -0.066796
     9  C   -0.011350
    10  C    0.035869
    11  C    0.158934
    12  C   -0.149788
    13  C    0.153273
    14  O   -0.205409
    15  O   -0.263978
    16  N   -0.039126
    17  C    0.068448
    18  C   -0.079231
    19  C    0.130051
    20  C    0.135061
    21  C    0.007113
    22  C   -0.127580
    23  C   -0.050887
    24  N   -0.269954
    25  C    0.088483
    26  C   -0.129014
    27  C   -0.117942
    28  C    0.082288
    29  C   -0.013693
    30  C    0.207469
    31  C   -0.005461
    32  N   -0.053019
    33  C    0.033426
    34  C   -0.108197
    35  C   -0.041967
    36  C    0.050140
    37  C   -0.075810
    38  C    0.101333
    39  O   -0.050771
    40  C   -0.203802
    41  C    0.217814
    42  O   -0.251737
    43  O   -0.330372
    44  C    0.201539
    45  C    0.284522
    46  C   -0.129598
    47  C   -0.135092
    48  C    0.125659
    49  C    0.054740
    50  C   -0.080865
    51  C    0.003819
    52  C   -0.091910
    53  C   -0.061038
    54  C    0.049953
    55  C    0.075723
    56  C   -0.018427
    57  C   -0.035201
    58  C   -0.016485
    59  C    0.109790
    60  C   -0.001389
    61  C    0.057269
    62  C   -0.089877
    63  C    0.033616
    64  C   -0.004111
    65  H   -0.055456
    66  H    0.028344
    67  H    0.028845
    68  H    0.009189
    69  H    0.008954
    70  H    0.014491
    71  H    0.035718
    72  H    0.031199
    73  H    0.031929
    74  H   -0.046920
    75  H    0.052239
    76  H    0.046251
    77  H    0.045837
    78  H    0.042111
    79  H    0.062334
    80  H   -0.024596
    81  H    0.042299
    82  H    0.017608
    83  H    0.055018
    84  H    0.044627
    85  H    0.001456
    86  H   -0.049065
    87  H   -0.011180
    88  H    0.007697
    89  H    0.019471
    90  H    0.008985
    91  H    0.027277
    92  H    0.067999
    93  H    0.089571
    94  H    0.088991
    95  H    0.045324
    96  H    0.035005
    97  H    0.012843
    98  H    0.027183
    99  H   -0.022803
   100  H    0.017893
   101  H   -0.026517
   102  H    0.035950
   103  H    0.033811
   104  H    0.008254
   105  H    0.020361
   106  H    0.013691
   107  H    0.002208
   108  H    0.007207
   109  H    0.020827
   110  H    0.016830
   111  H    0.033390
   112  H    0.034110
   113  H    0.008270
   114  H   -0.007533
   115  H   -0.006140
   116  H   -0.021597
   117  H    0.015437
   118  H   -0.001563
   119  H   -0.009126
   120  H   -0.027095
   121  H    0.033584
   122  H    0.018243
   123  H    0.007008
   124  H   -0.022014
   125  H   -0.048531
   126  H   -0.002016
   127  H    0.015522
   128  H   -0.024522
   129  H   -0.071304
   130  H   -0.011782
   131  H   -0.000813
   132  H   -0.005851
   133  H    0.042930
   134  H    0.014433
   135  H   -0.002652
   136  H    0.015887
   137  H    0.112244
   138  H    0.145505
 Sum of Mulliken charges =   0.00000

 Dipole moment (field-independent basis, Debye):
    X=              2.6345    Y=              4.1045    Z=              0.4225  Tot=              4.8955
 Quadrupole moment (field-independent basis, Debye-Ang):
   XX=           -334.5407   YY=           -380.7312   ZZ=           -397.9533
   XY=            -16.8552   XZ=              6.4681   YZ=             -2.2218

 Normal termination of Gaussian 09 at Sun Aug  4 04:48:13 2019.
