 Gaussian 09, Revision D.01,
 Gaussian 09:  ES64L-G09RevD.01 24-Apr-2013

 --------------------------
 # td=(NStates=1) B3LYP/SVP
 --------------------------

 --
 TD
 --
 Symbolic Z-matrix:
 Charge =  0 Multiplicity = 1

                         Standard orientation:
 ---------------------------------------------------------------------
 Center     Atomic      Atomic             Coordinates (Angstroms)
 Number     Number       Type             X           Y           Z
 ---------------------------------------------------------------------
      1          6           0       -5.149186   -1.890730    0.623765
      2          6           0       -4.820287    2.826208    1.509424
      3          6           0       -9.307542    3.338349   -0.293516
      4          6           0       -9.749491   -1.383397   -1.064167
      5          7           0       -5.173936    0.538098    0.843586
      6          6           0       -4.557901   -0.674748    0.850094
      7          6           0       -3.117539   -0.445319    1.281461
      8          6           0       -3.041644    0.961467    1.823138
      9          6           0       -4.423778    1.452372    1.344025
     10          6           0       -2.969106    0.997897    3.421474
     11          6           0       -2.054307   -0.648509    0.096667
     12          6           0       -0.611278   -0.965595    0.629577
     13          6           0        0.329250   -1.226726   -0.433027
     14          8           0        0.093107   -1.690864   -1.516246
     15          8           0        1.648128   -0.846140   -0.028205
     16          7           0       -6.979024    2.787530    0.422248
     17          6           0       -5.947046    3.501112    1.072758
     18          6           0       -6.243806    4.841797    1.020760
     19          6           0       -7.580188    4.978814    0.513583
     20          6           0       -8.038342    3.671913    0.211567
     21          6           0       -5.362171    5.856661    1.615410
     22          6           0       -8.267270    6.287907    0.385595
     23          6           0       -9.129655    6.662358   -0.574988
     24          7           0       -9.198236    0.882805   -0.428118
     25          6           0       -9.900817    2.089273   -0.567328
     26          6           0      -11.268828    1.819346   -1.130970
     27          6           0      -11.358154    0.486617   -1.273715
     28          6           0       -9.983395   -0.007997   -1.042187
     29          6           0      -12.230624    2.902693   -1.352404
     30          6           0      -12.571974   -0.200485   -1.757666
     31          6           0      -12.581359   -0.412758   -3.393342
     32          7           0       -7.504677   -1.228891   -0.227720
     33          6           0       -8.548339   -2.027463   -0.617199
     34          6           0       -8.203024   -3.349999   -0.571603
     35          6           0       -6.857482   -3.380197   -0.188612
     36          6           0       -6.475730   -1.989740    0.090671
     37          6           0       -9.002870   -4.607321   -1.022200
     38          6           0       -5.749842   -4.274197    0.168279
     39          8           0       -5.614840   -5.413914    0.011070
     40          6           0       -4.455620   -3.267048    0.577389
     41          6           0       -3.803164   -3.715457    1.759775
     42          8           0       -4.121181   -3.296983    2.875206
     43          8           0       -3.025551   -4.746260    1.628070
     44          6           0       -2.502107   -5.357891    2.737687
     45          6           0        2.625381   -1.319973   -1.003539
     46          6           0        3.921656   -0.779811   -0.558829
     47          6           0        4.971709   -0.217943   -1.192008
     48          6           0        5.007894    0.285890   -2.649055
     49          6           0        6.282711    0.121900   -0.460842
     50          6           0        7.493287   -0.619821   -0.989140
     51          6           0        8.794336   -0.338221   -0.288830
     52          6           0       10.161420   -1.028590   -0.870338
     53          6           0       10.035251   -2.513752   -0.757901
     54          6           0       11.257395   -0.517645    0.010795
     55          6           0       12.673687   -0.737620   -0.608079
     56          6           0       13.844047   -0.129855    0.161997
     57          6           0       15.248510   -0.192481   -0.421524
     58          6           0       15.700636   -1.653530   -0.464641
     59          6           0       16.167935    0.860658    0.276458
     60          6           0       17.503782    1.003811   -0.222149
     61          6           0       18.414938    1.844346    0.613516
     62          6           0       19.950341    2.022657    0.114998
     63          6           0       20.145133    2.545799   -1.315221
     64          6           0       20.856222    2.664748    1.115806
     65          1           0       -3.989880    3.442658    1.842643
     66          1           0      -10.080365    4.057333   -0.403543
     67          1           0      -10.531426   -2.000268   -1.107361
     68          1           0       -2.920462   -1.308365    2.024742
     69          1           0       -2.174695    1.408051    1.452587
     70          1           0       -1.829923    0.581448    3.812469
     71          1           0       -2.976958    1.985106    4.011709
     72          1           0       -3.520738    0.267309    3.940874
     73          1           0       -2.222595   -1.742810   -0.275738
     74          1           0       -1.942183   -0.016914   -0.574714
     75          1           0       -0.126524   -0.087639    1.408822
     76          1           0       -0.718101   -1.776247    1.494830
     77          1           0       -4.574436    6.126820    0.732796
     78          1           0       -5.974937    6.763693    1.903550
     79          1           0       -4.936703    5.546503    2.583263
     80          1           0       -8.261030    7.058800    1.272288
     81          1           0       -9.189337    5.853616   -1.346344
     82          1           0       -9.692012    7.629916   -0.586512
     83          1           0      -12.476796    3.448366   -0.461459
     84          1           0      -11.934010    3.552786   -2.305561
     85          1           0      -13.205944    2.510857   -1.591359
     86          1           0      -12.502376   -1.213517   -1.507660
     87          1           0      -13.406079    0.567287   -1.709405
     88          1           0      -12.760867    0.399977   -3.841269
     89          1           0      -11.536434   -0.856922   -3.669199
     90          1           0      -13.354211   -1.210722   -3.644225
     91          1           0       -9.897038   -4.698634   -0.185941
     92          1           0       -9.526045   -4.256743   -2.008811
     93          1           0       -8.249231   -5.495560   -0.933203
     94          1           0       -3.692840   -3.373209   -0.185793
     95          1           0       -1.651345   -6.111565    2.515852
     96          1           0       -1.970712   -4.484168    3.219514
     97          1           0       -3.203717   -5.856537    3.509956
     98          1           0        2.738986   -2.522353   -0.818112
     99          1           0        2.315406   -1.034982   -2.125031
    100          1           0        4.103792   -0.979209    0.593398
    101          1           0        5.621771    1.272088   -2.573806
    102          1           0        5.543638   -0.384301   -3.357437
    103          1           0        4.189739    0.202908   -3.053062
    104          1           0        6.263328    1.332994   -0.578746
    105          1           0        6.019022    0.014238    0.622161
    106          1           0        7.329900   -1.693791   -0.950891
    107          1           0        7.629144   -0.393117   -2.205820
    108          1           0        8.782608    0.743124   -0.223160
    109          1           0        8.481274   -0.850764    0.792419
    110          1           0       10.269304   -0.570063   -1.865273
    111          1           0        9.187174   -2.789868   -1.374361
    112          1           0       10.992220   -3.101954   -1.212663
    113          1           0       10.023895   -2.941886    0.152480
    114          1           0       11.065131    0.653898    0.244741
    115          1           0       11.263406   -0.961713    1.018125
    116          1           0       12.985891   -1.735117   -0.760319
    117          1           0       12.782733   -0.220949   -1.478663
    118          1           0       13.447393    0.924343    0.190042
    119          1           0       13.981773   -0.634401    1.141555
    120          1           0       15.216597    0.230013   -1.509699
    121          1           0       15.230413   -2.482264   -1.034177
    122          1           0       16.969380   -1.771424   -0.649012
    123          1           0       15.524374   -2.078993    0.455050
    124          1           0       15.596927    1.867988    0.164456
    125          1           0       16.322366    0.504020    1.545014
    126          1           0       17.997112   -0.027545   -0.364810
    127          1           0       17.425278    1.243470   -1.262391
    128          1           0       18.141037    2.928504    0.711410
    129          1           0       18.573805    1.259389    1.506357
    130          1           0       20.754525    1.062805    0.012298
    131          1           0       19.663932    3.509213   -1.486989
    132          1           0       21.128602    2.781944   -1.604390
    133          1           0       19.875695    1.922105   -2.116504
    134          1           0       20.704446    2.031855    2.002137
    135          1           0       21.864135    2.808584    0.923925
    136          1           0       20.632565    3.878236    1.528644
    137          1           0       -6.905520    1.846139    0.012917
    138          1           0       -7.679385   -0.356036   -0.078651
 ---------------------------------------------------------------------

 SCF Done:  E(RB3LYP) =  -2732.98609292     A.U. after   17 cycles

 Excitation energies and oscillator strengths:

 Excited State   1:      Singlet-A      2.0474 eV  605.58 nm  f=0.1816  <S**2>=0.000
     235 -> 237       -0.19461
     235 -> 238       -0.24790
     236 -> 237        0.61484
     236 -> 238       -0.14599
 This state for optimization and/or second-order correction.
 Total Energy, E(TD-HF/TD-KS) =  -2732.91085338
 Copying the excited state density for this state as the 1-particle RhoCI density.

 The electronic state is 1-A.
 Alpha  occ. eigenvalues --  -19.18669 -19.16987 -19.13704 -19.13601 -19.10609
 Alpha  occ. eigenvalues --  -14.36718 -14.35866 -14.32007 -14.30119 -10.31840
 Alpha  occ. eigenvalues --  -10.30640 -10.28824 -10.26024 -10.25668 -10.24045
 Alpha  occ. eigenvalues --  -10.24021 -10.23178 -10.23024 -10.22764 -10.22602
 Alpha  occ. eigenvalues --  -10.22466 -10.22408 -10.21756 -10.21321 -10.21221
 Alpha  occ. eigenvalues --  -10.21114 -10.21038 -10.20988 -10.20971 -10.20917
 Alpha  occ. eigenvalues --  -10.20619 -10.20533 -10.20518 -10.20388 -10.20350
 Alpha  occ. eigenvalues --  -10.20108 -10.20067 -10.20029 -10.20008 -10.19820
 Alpha  occ. eigenvalues --  -10.19777 -10.19741 -10.19715 -10.19650 -10.19629
 Alpha  occ. eigenvalues --  -10.19523 -10.19382 -10.19316 -10.19305 -10.19272
 Alpha  occ. eigenvalues --  -10.19249 -10.18973 -10.18924 -10.18843 -10.18535
 Alpha  occ. eigenvalues --  -10.18492 -10.18392 -10.18256 -10.18038 -10.17778
 Alpha  occ. eigenvalues --  -10.17751 -10.17693 -10.16643 -10.16326  -1.12342
 Alpha  occ. eigenvalues --   -1.08125  -1.06872  -1.00864  -1.00477  -0.99426
 Alpha  occ. eigenvalues --   -0.96955  -0.95907  -0.93440  -0.84436  -0.82539
 Alpha  occ. eigenvalues --   -0.81881  -0.81753  -0.81474  -0.81230  -0.80770
 Alpha  occ. eigenvalues --   -0.80656  -0.80383  -0.79528  -0.79107  -0.77768
 Alpha  occ. eigenvalues --   -0.77285  -0.76827  -0.76247  -0.75510  -0.74703
 Alpha  occ. eigenvalues --   -0.74116  -0.73196  -0.72743  -0.72186  -0.70440
 Alpha  occ. eigenvalues --   -0.70139  -0.69491  -0.69076  -0.68464  -0.68344
 Alpha  occ. eigenvalues --   -0.67856  -0.67368  -0.66980  -0.66517  -0.65016
 Alpha  occ. eigenvalues --   -0.64346  -0.64013  -0.62878  -0.62544  -0.61532
 Alpha  occ. eigenvalues --   -0.61125  -0.58815  -0.58323  -0.57987  -0.57917
 Alpha  occ. eigenvalues --   -0.56504  -0.56481  -0.56176  -0.55572  -0.54985
 Alpha  occ. eigenvalues --   -0.54626  -0.54414  -0.53897  -0.53170  -0.52975
 Alpha  occ. eigenvalues --   -0.52856  -0.52464  -0.51989  -0.51223  -0.50946
 Alpha  occ. eigenvalues --   -0.50562  -0.49892  -0.49363  -0.48931  -0.48684
 Alpha  occ. eigenvalues --   -0.48387  -0.48119  -0.47980  -0.47881  -0.47341
 Alpha  occ. eigenvalues --   -0.46951  -0.46592  -0.46116  -0.46026  -0.45865
 Alpha  occ. eigenvalues --   -0.45785  -0.45692  -0.45614  -0.45016  -0.44977
 Alpha  occ. eigenvalues --   -0.44882  -0.44653  -0.44301  -0.43952  -0.43728
 Alpha  occ. eigenvalues --   -0.43684  -0.43561  -0.43480  -0.43008  -0.42927
 Alpha  occ. eigenvalues --   -0.42407  -0.42136  -0.42012  -0.41859  -0.41635
 Alpha  occ. eigenvalues --   -0.41531  -0.41441  -0.41260  -0.40632  -0.40576
 Alpha  occ. eigenvalues --   -0.40402  -0.40073  -0.40067  -0.39934  -0.39564
 Alpha  occ. eigenvalues --   -0.39354  -0.39037  -0.38694  -0.38612  -0.38279
 Alpha  occ. eigenvalues --   -0.38232  -0.38110  -0.37909  -0.37823  -0.37657
 Alpha  occ. eigenvalues --   -0.37573  -0.37296  -0.37009  -0.36836  -0.36584
 Alpha  occ. eigenvalues --   -0.36492  -0.36443  -0.36199  -0.36058  -0.35750
 Alpha  occ. eigenvalues --   -0.35623  -0.35354  -0.35193  -0.35108  -0.34866
 Alpha  occ. eigenvalues --   -0.34795  -0.34629  -0.34098  -0.33754  -0.33659
 Alpha  occ. eigenvalues --   -0.33073  -0.33026  -0.32934  -0.32586  -0.32148
 Alpha  occ. eigenvalues --   -0.32030  -0.31975  -0.31547  -0.31349  -0.31040
 Alpha  occ. eigenvalues --   -0.30493  -0.30242  -0.30118  -0.30073  -0.29805
 Alpha  occ. eigenvalues --   -0.29385  -0.29116  -0.28734  -0.28176  -0.27871
 Alpha  occ. eigenvalues --   -0.27411  -0.27070  -0.26772  -0.26557  -0.26468
 Alpha  occ. eigenvalues --   -0.25340  -0.24273  -0.24067  -0.22901  -0.20249
 Alpha  occ. eigenvalues --   -0.18940
 Alpha virt. eigenvalues --   -0.10701  -0.07452  -0.04252  -0.02165  -0.01511
 Alpha virt. eigenvalues --   -0.00615   0.00133   0.00561   0.02289   0.03389
 Alpha virt. eigenvalues --    0.03722   0.03728   0.04448   0.04505   0.04881

 Mulliken charges:
               1
     1  C    0.043462
     2  C   -0.038352
     3  C   -0.062969
     4  C   -0.019110
     5  N   -0.113067
     6  C   -0.049699
     7  C   -0.086689
     8  C    0.072912
     9  C   -0.064288
    10  C   -0.018747
    11  C    0.130936
    12  C   -0.113741
    13  C    0.236489
    14  O   -0.207881
    15  O   -0.359455
    16  N   -0.124261
    17  C    0.136640
    18  C   -0.117863
    19  C    0.037397
    20  C    0.171013
    21  C    0.058688
    22  C   -0.100703
    23  C   -0.040257
    24  N   -0.243355
    25  C   -0.013153
    26  C   -0.118997
    27  C   -0.114950
    28  C    0.092416
    29  C    0.109787
    30  C    0.110306
    31  C    0.003746
    32  N    0.133594
    33  C    0.006043
    34  C   -0.137909
    35  C   -0.053344
    36  C    0.038376
    37  C    0.019213
    38  C    0.086792
    39  O   -0.099364
    40  C   -0.047238
    41  C    0.142943
    42  O   -0.271433
    43  O   -0.222931
    44  C    0.131463
    45  C    0.204287
    46  C   -0.103630
    47  C   -0.188732
    48  C    0.209281
    49  C    0.025159
    50  C    0.004298
    51  C   -0.026015
    52  C   -0.009478
    53  C    0.070800
    54  C    0.004070
    55  C    0.133344
    56  C   -0.016006
    57  C   -0.055718
    58  C    0.011695
    59  C   -0.037418
    60  C    0.066323
    61  C    0.101480
    62  C   -0.157202
    63  C    0.088004
    64  C    0.018708
    65  H   -0.034402
    66  H   -0.044348
    67  H   -0.073935
    68  H    0.031648
    69  H   -0.013783
    70  H    0.002411
    71  H    0.034303
    72  H    0.027905
    73  H    0.037690
    74  H   -0.066230
    75  H    0.052004
    76  H    0.063602
    77  H    0.056303
    78  H    0.017231
    79  H    0.037115
    80  H    0.031015
    81  H    0.033216
    82  H    0.038711
    83  H    0.023996
    84  H    0.046203
    85  H   -0.026837
    86  H   -0.014445
    87  H    0.022260
    88  H   -0.033354
    89  H    0.021961
    90  H    0.021526
    91  H    0.049745
    92  H    0.055466
    93  H    0.077049
    94  H    0.045835
    95  H    0.040976
    96  H    0.018323
    97  H    0.054390
    98  H    0.043372
    99  H    0.060177
   100  H    0.008817
   101  H    0.030422
   102  H    0.010172
   103  H   -0.101125
   104  H    0.020385
   105  H   -0.004820
   106  H    0.000583
   107  H    0.002583
   108  H   -0.002062
   109  H    0.005575
   110  H   -0.005985
   111  H    0.010072
   112  H    0.010713
   113  H   -0.017476
   114  H    0.002169
   115  H   -0.010364
   116  H   -0.033597
   117  H   -0.045982
   118  H   -0.010834
   119  H   -0.006521
   120  H   -0.009276
   121  H    0.022438
   122  H    0.023363
   123  H   -0.027843
   124  H    0.013865
   125  H   -0.002905
   126  H   -0.008614
   127  H   -0.029184
   128  H    0.020493
   129  H   -0.000721
   130  H    0.004594
   131  H   -0.016575
   132  H   -0.028187
   133  H   -0.008271
   134  H    0.008218
   135  H   -0.002279
   136  H   -0.015482
   137  H    0.154345
   138  H    0.036490
 Sum of Mulliken charges =   0.00000

 Dipole moment (field-independent basis, Debye):
    X=              0.0004    Y=              2.9030    Z=             -0.7268  Tot=              2.9926
 Quadrupole moment (field-independent basis, Debye-Ang):
   XX=           -349.1375   YY=           -380.5637   ZZ=           -397.7757
   XY=            -35.2245   XZ=              5.1742   YZ=             -3.0413

 Normal termination of Gaussian 09 at Sun Aug  4 21:11:58 2019.
