 Gaussian 09, Revision D.01,
 Gaussian 09:  ES64L-G09RevD.01 24-Apr-2013

 --------------------------
 # td=(NStates=1) B3LYP/SVP
 --------------------------

 --
 TD
 --
 Symbolic Z-matrix:
 Charge =  0 Multiplicity = 1

                         Standard orientation:
 ---------------------------------------------------------------------
 Center     Atomic      Atomic             Coordinates (Angstroms)
 Number     Number       Type             X           Y           Z
 ---------------------------------------------------------------------
      1          6           0       -5.026063   -1.906876    0.483011
      2          6           0       -4.786957    2.751905    1.387493
      3          6           0       -9.399324    3.301405   -0.176289
      4          6           0       -9.750132   -1.505510   -1.006040
      5          7           0       -5.182120    0.422040    0.848243
      6          6           0       -4.452079   -0.768938    0.867705
      7          6           0       -3.033350   -0.499549    1.357278
      8          6           0       -3.077680    0.909875    1.881378
      9          6           0       -4.380178    1.417728    1.288661
     10          6           0       -3.194951    1.017392    3.483761
     11          6           0       -2.040025   -0.627311    0.225619
     12          6           0       -0.498911   -0.663985    0.577683
     13          6           0        0.328270   -1.043585   -0.560168
     14          8           0        0.057001   -1.440091   -1.588646
     15          8           0        1.681672   -0.707545   -0.221596
     16          7           0       -7.113345    2.713600    0.479461
     17          6           0       -6.036752    3.330239    0.935830
     18          6           0       -6.347853    4.744620    1.035135
     19          6           0       -7.675577    4.937222    0.506842
     20          6           0       -8.113455    3.646128    0.131781
     21          6           0       -5.456981    5.836652    1.643594
     22          6           0       -8.310130    6.207158    0.568761
     23          6           0       -9.246837    6.727825   -0.444203
     24          7           0       -9.199604    0.861651   -0.608435
     25          6           0       -9.877500    1.988606   -0.709730
     26          6           0      -11.210295    1.709609   -1.134494
     27          6           0      -11.413321    0.381410   -1.280107
     28          6           0      -10.092341   -0.128881   -0.947265
     29          6           0      -12.208921    2.805111   -1.281731
     30          6           0      -12.500645   -0.374888   -1.830127
     31          6           0      -12.378020   -0.734373   -3.303656
     32          7           0       -7.387126   -1.256574   -0.284946
     33          6           0       -8.500287   -2.050517   -0.718238
     34          6           0       -8.062792   -3.409648   -0.619711
     35          6           0       -6.755380   -3.385998   -0.271300
     36          6           0       -6.371334   -2.046524    0.027831
     37          6           0       -8.902104   -4.571530   -1.107044
     38          6           0       -5.570918   -4.256157    0.079256
     39          8           0       -5.519556   -5.485282    0.054282
     40          6           0       -4.401207   -3.303559    0.569469
     41          6           0       -4.068635   -3.765196    1.927264
     42          8           0       -4.410715   -3.170730    2.890217
     43          8           0       -3.124044   -4.701362    1.850287
     44          6           0       -2.678673   -5.379150    3.098021
     45          6           0        2.669966   -1.074104   -1.211532
     46          6           0        4.032145   -0.709605   -0.648821
     47          6           0        4.923447    0.171204   -1.202934
     48          6           0        4.872305    0.715794   -2.535025
     49          6           0        6.268074    0.395993   -0.440639
     50          6           0        7.501424   -0.356534   -1.097876
     51          6           0        8.808570   -0.203153   -0.280392
     52          6           0       10.143511   -0.716069   -0.938877
     53          6           0       10.099158   -2.273155   -1.039843
     54          6           0       11.310051   -0.191928   -0.052225
     55          6           0       12.650910   -0.470402   -0.710186
     56          6           0       13.803483   -0.020380    0.244463
     57          6           0       15.244981   -0.214804   -0.325269
     58          6           0       15.693736   -1.736011   -0.397889
     59          6           0       16.275129    0.530127    0.487058
     60          6           0       17.716696    0.560919    0.004569
     61          6           0       18.662120    1.500089    0.693549
     62          6           0       20.049846    1.687640    0.124362
     63          6           0       20.032364    2.187289   -1.319560
     64          6           0       20.915340    2.366316    1.112962
     65          1           0       -4.044509    3.465689    1.778980
     66          1           0      -10.261737    4.066184   -0.252420
     67          1           0      -10.647181   -1.984678   -1.474161
     68          1           0       -2.823627   -1.325985    2.146959
     69          1           0       -2.193434    1.457596    1.380082
     70          1           0       -2.055823    0.788478    4.059074
     71          1           0       -3.536815    2.037376    3.841228
     72          1           0       -3.732631    0.360971    4.016207
     73          1           0       -2.232633   -1.634133   -0.147189
     74          1           0       -2.185753    0.198583   -0.626240
     75          1           0       -0.344818    0.335467    0.974084
     76          1           0       -0.252810   -1.548310    1.303380
     77          1           0       -4.566305    6.176807    0.964161
     78          1           0       -6.006783    6.753192    1.860084
     79          1           0       -5.145656    5.341712    2.654793
     80          1           0       -7.921583    6.998636    1.205382
     81          1           0       -9.682871    6.043979   -1.218800
     82          1           0       -9.596280    7.732355   -0.372272
     83          1           0      -12.290035    3.311264   -0.246610
     84          1           0      -11.928101    3.436789   -2.078223
     85          1           0      -13.284846    2.383684   -1.399116
     86          1           0      -12.661380   -1.283627   -1.268921
     87          1           0      -13.611900    0.044429   -1.853488
     88          1           0      -12.128069    0.242113   -4.036174
     89          1           0      -11.555109   -1.235147   -3.770212
     90          1           0      -13.323335   -1.327780   -3.640819
     91          1           0       -9.948408   -4.579421   -0.754173
     92          1           0       -9.364158   -4.460386   -2.022333
     93          1           0       -8.455559   -5.627266   -0.916332
     94          1           0       -3.453101   -3.745400    0.048469
     95          1           0       -1.992768   -6.106384    2.581415
     96          1           0       -2.011896   -4.839802    3.734075
     97          1           0       -3.557467   -5.749207    3.627837
     98          1           0        2.617049   -2.005684   -1.316276
     99          1           0        2.484868   -0.464752   -2.198817
    100          1           0        4.257315   -1.131430    0.252510
    101          1           0        5.096824    1.794050   -2.648787
    102          1           0        5.443243    0.121470   -3.197154
    103          1           0        3.894180    0.809702   -3.084309
    104          1           0        6.409912    1.492652   -0.331737
    105          1           0        6.223392   -0.053110    0.626516
    106          1           0        7.268460   -1.283873   -1.454296
    107          1           0        7.776827    0.045969   -2.102604
    108          1           0        9.054153    0.864840   -0.155169
    109          1           0        8.714544   -0.632081    0.820363
    110          1           0       10.344013   -0.375221   -2.066824
    111          1           0        9.451176   -2.480895   -1.958671
    112          1           0       11.073485   -2.896335   -1.352920
    113          1           0        9.797256   -2.575925    0.060102
    114          1           0       11.106983    0.945711    0.013178
    115          1           0       11.425634   -0.612680    1.015076
    116          1           0       12.839748   -1.478593   -1.150503
    117          1           0       12.548777    0.035489   -1.593415
    118          1           0       13.674091    1.092343    0.511690
    119          1           0       13.880638   -0.337770    1.149860
    120          1           0       15.140492    0.037838   -1.269593
    121          1           0       14.911040   -2.276153   -1.001972
    122          1           0       16.494241   -1.755130   -0.929617
    123          1           0       15.887831   -2.052301    0.607930
    124          1           0       16.075557    1.521786    0.603144
    125          1           0       16.265514    0.372313    1.692742
    126          1           0       18.184930   -0.366568   -0.171130
    127          1           0       17.785571    1.143776   -1.087709
    128          1           0       18.410912    2.601068    1.059494
    129          1           0       18.820692    0.947662    1.667190
    130          1           0       20.441912    0.691097    0.100725
    131          1           0       19.723809    3.285765   -1.515890
    132          1           0       21.016076    2.231446   -1.768407
    133          1           0       19.445084    1.666659   -1.952443
    134          1           0       20.984305    1.965298    2.075493
    135          1           0       21.946550    2.775406    0.646996
    136          1           0       20.405878    3.391759    1.164960
    137          1           0       -7.327161    1.615017    0.403929
    138          1           0       -7.589425   -0.182934   -0.091981
 ---------------------------------------------------------------------

 SCF Done:  E(RB3LYP) =  -2733.07838290     A.U. after   17 cycles

 Excitation energies and oscillator strengths:

 Excited State   1:      Singlet-A      2.0950 eV  591.82 nm  f=0.1127  <S**2>=0.000
     235 -> 237       -0.21985
     235 -> 238        0.32749
     236 -> 237        0.56857
     236 -> 238        0.12180
 This state for optimization and/or second-order correction.
 Total Energy, E(TD-HF/TD-KS) =  -2733.00139443
 Copying the excited state density for this state as the 1-particle RhoCI density.

 The electronic state is 1-A.
 Alpha  occ. eigenvalues --  -19.17932 -19.14524 -19.13365 -19.12055 -19.11992
 Alpha  occ. eigenvalues --  -14.37676 -14.37314 -14.31644 -14.30375 -10.30729
 Alpha  occ. eigenvalues --  -10.30595 -10.28137 -10.25402 -10.24488 -10.23752
 Alpha  occ. eigenvalues --  -10.23524 -10.23231 -10.22648 -10.22470 -10.22166
 Alpha  occ. eigenvalues --  -10.21826 -10.21407 -10.21260 -10.21240 -10.21235
 Alpha  occ. eigenvalues --  -10.21189 -10.21101 -10.21048 -10.21042 -10.20983
 Alpha  occ. eigenvalues --  -10.20936 -10.20840 -10.20759 -10.20393 -10.20315
 Alpha  occ. eigenvalues --  -10.20276 -10.20264 -10.20256 -10.19980 -10.19961
 Alpha  occ. eigenvalues --  -10.19853 -10.19819 -10.19685 -10.19444 -10.19306
 Alpha  occ. eigenvalues --  -10.19225 -10.19075 -10.18912 -10.18707 -10.18609
 Alpha  occ. eigenvalues --  -10.18437 -10.18336 -10.18294 -10.18250 -10.18144
 Alpha  occ. eigenvalues --  -10.17972 -10.17970 -10.17761 -10.17536 -10.17430
 Alpha  occ. eigenvalues --  -10.17297 -10.17171 -10.16905 -10.16141  -1.10268
 Alpha  occ. eigenvalues --   -1.09784  -1.01586  -1.01510  -1.00155  -0.98452
 Alpha  occ. eigenvalues --   -0.97979  -0.94788  -0.93656  -0.84222  -0.82318
 Alpha  occ. eigenvalues --   -0.81794  -0.81650  -0.81195  -0.81133  -0.80893
 Alpha  occ. eigenvalues --   -0.80374  -0.79716  -0.79604  -0.78837  -0.77294
 Alpha  occ. eigenvalues --   -0.76622  -0.76104  -0.75643  -0.74296  -0.74115
 Alpha  occ. eigenvalues --   -0.73863  -0.72847  -0.72463  -0.71662  -0.70659
 Alpha  occ. eigenvalues --   -0.70070  -0.69521  -0.69007  -0.68792  -0.67848
 Alpha  occ. eigenvalues --   -0.67670  -0.67123  -0.66236  -0.65641  -0.64627
 Alpha  occ. eigenvalues --   -0.64102  -0.63097  -0.62432  -0.62054  -0.61799
 Alpha  occ. eigenvalues --   -0.60943  -0.59352  -0.58452  -0.58223  -0.58037
 Alpha  occ. eigenvalues --   -0.57117  -0.56790  -0.56130  -0.55194  -0.55039
 Alpha  occ. eigenvalues --   -0.54876  -0.54206  -0.53939  -0.53304  -0.53229
 Alpha  occ. eigenvalues --   -0.52912  -0.52148  -0.51977  -0.51140  -0.50236
 Alpha  occ. eigenvalues --   -0.50090  -0.49708  -0.49199  -0.48783  -0.47971
 Alpha  occ. eigenvalues --   -0.47794  -0.47496  -0.47280  -0.47121  -0.47037
 Alpha  occ. eigenvalues --   -0.46819  -0.46328  -0.46068  -0.45991  -0.45884
 Alpha  occ. eigenvalues --   -0.45572  -0.45404  -0.45196  -0.45051  -0.44843
 Alpha  occ. eigenvalues --   -0.44372  -0.44338  -0.44143  -0.43963  -0.43854
 Alpha  occ. eigenvalues --   -0.43589  -0.43355  -0.43103  -0.42768  -0.42548
 Alpha  occ. eigenvalues --   -0.42283  -0.42129  -0.41834  -0.41737  -0.41471
 Alpha  occ. eigenvalues --   -0.41346  -0.41111  -0.41063  -0.40371  -0.40257
 Alpha  occ. eigenvalues --   -0.40025  -0.39762  -0.39510  -0.39419  -0.39345
 Alpha  occ. eigenvalues --   -0.39176  -0.38918  -0.38767  -0.38508  -0.38224
 Alpha  occ. eigenvalues --   -0.37969  -0.37921  -0.37750  -0.37555  -0.37451
 Alpha  occ. eigenvalues --   -0.37367  -0.37313  -0.37206  -0.36772  -0.36759
 Alpha  occ. eigenvalues --   -0.36717  -0.36458  -0.36317  -0.36089  -0.35871
 Alpha  occ. eigenvalues --   -0.35734  -0.35683  -0.35269  -0.35125  -0.34982
 Alpha  occ. eigenvalues --   -0.34877  -0.34766  -0.34590  -0.34329  -0.34153
 Alpha  occ. eigenvalues --   -0.33141  -0.33133  -0.32966  -0.32856  -0.32375
 Alpha  occ. eigenvalues --   -0.32015  -0.31887  -0.31669  -0.31217  -0.31200
 Alpha  occ. eigenvalues --   -0.31159  -0.30938  -0.30414  -0.29909  -0.29641
 Alpha  occ. eigenvalues --   -0.29065  -0.28564  -0.28264  -0.27857  -0.27845
 Alpha  occ. eigenvalues --   -0.27640  -0.27313  -0.26793  -0.26438  -0.26259
 Alpha  occ. eigenvalues --   -0.24674  -0.24166  -0.23236  -0.22904  -0.19570
 Alpha  occ. eigenvalues --   -0.19286
 Alpha virt. eigenvalues --   -0.10153  -0.08118  -0.04088  -0.03137  -0.00185
 Alpha virt. eigenvalues --    0.00261   0.00833   0.01298   0.02233   0.03619
 Alpha virt. eigenvalues --    0.03800   0.04291   0.04690   0.05032   0.05393

 Mulliken charges:
               1
     1  C    0.076153
     2  C   -0.082150
     3  C   -0.122507
     4  C   -0.055117
     5  N   -0.212357
     6  C   -0.093950
     7  C   -0.002343
     8  C    0.015573
     9  C   -0.021614
    10  C    0.043695
    11  C   -0.010810
    12  C    0.047881
    13  C    0.152004
    14  O   -0.133971
    15  O   -0.406946
    16  N   -0.102869
    17  C    0.117050
    18  C   -0.177970
    19  C    0.102325
    20  C    0.151227
    21  C    0.057247
    22  C   -0.093028
    23  C   -0.054905
    24  N   -0.233498
    25  C    0.006968
    26  C   -0.160216
    27  C    0.001315
    28  C   -0.049872
    29  C    0.081610
    30  C    0.045143
    31  C   -0.060785
    32  N   -0.082752
    33  C    0.127352
    34  C   -0.142262
    35  C    0.005050
    36  C    0.083863
    37  C    0.139916
    38  C    0.070040
    39  O   -0.184928
    40  C   -0.103207
    41  C    0.189720
    42  O   -0.199382
    43  O   -0.328161
    44  C    0.188061
    45  C    0.403230
    46  C   -0.074913
    47  C   -0.125461
    48  C    0.073712
    49  C    0.046693
    50  C    0.073279
    51  C    0.027771
    52  C   -0.139247
    53  C   -0.036100
    54  C   -0.000925
    55  C    0.099237
    56  C    0.091659
    57  C    0.011445
    58  C    0.104505
    59  C    0.081073
    60  C    0.021172
    61  C   -0.055899
    62  C   -0.034097
    63  C    0.069419
    64  C    0.031442
    65  H   -0.022477
    66  H    0.014536
    67  H   -0.009363
    68  H    0.022921
    69  H    0.013619
    70  H    0.014594
    71  H    0.022375
    72  H    0.004499
    73  H    0.005248
    74  H    0.035608
    75  H    0.035594
    76  H    0.046472
    77  H    0.054134
    78  H    0.008517
    79  H    0.048100
    80  H    0.003605
    81  H    0.046682
    82  H    0.027051
    83  H    0.038036
    84  H    0.019626
    85  H    0.012172
    86  H    0.000866
    87  H    0.020255
    88  H    0.015116
    89  H    0.004970
    90  H    0.026800
    91  H   -0.015038
    92  H   -0.019447
    93  H    0.063079
    94  H    0.080429
    95  H    0.045691
    96  H    0.029485
    97  H    0.053318
    98  H   -0.067455
    99  H    0.017268
   100  H   -0.049079
   101  H    0.007885
   102  H    0.021806
   103  H    0.002097
   104  H    0.008900
   105  H    0.009914
   106  H   -0.030481
   107  H   -0.018793
   108  H   -0.008565
   109  H    0.012870
   110  H    0.007426
   111  H    0.024084
   112  H    0.025414
   113  H    0.030499
   114  H    0.009285
   115  H    0.009557
   116  H   -0.010012
   117  H   -0.049585
   118  H   -0.021193
   119  H   -0.075088
   120  H   -0.067278
   121  H    0.000561
   122  H   -0.042421
   123  H    0.002922
   124  H   -0.053696
   125  H   -0.012393
   126  H   -0.011853
   127  H   -0.002440
   128  H    0.002264
   129  H   -0.020099
   130  H   -0.028752
   131  H   -0.004559
   132  H   -0.007863
   133  H   -0.017338
   134  H    0.006346
   135  H    0.013891
   136  H   -0.009584
   137  H    0.204632
   138  H    0.189245
 Sum of Mulliken charges =   0.00000

 Dipole moment (field-independent basis, Debye):
    X=              0.9559    Y=              3.2811    Z=              0.5670  Tot=              3.4643
 Quadrupole moment (field-independent basis, Debye-Ang):
   XX=           -352.5044   YY=           -380.0307   ZZ=           -388.5087
   XY=            -21.5625   XZ=              0.5577   YZ=             -3.5428

 Normal termination of Gaussian 09 at Thu Aug  1 18:05:11 2019.
