 Gaussian 09, Revision D.01,
 Gaussian 09:  ES64L-G09RevD.01 24-Apr-2013

 --------------------------
 # td=(NStates=1) B3LYP/SVP
 --------------------------

 --
 TD
 --
 Symbolic Z-matrix:
 Charge =  0 Multiplicity = 1

                         Standard orientation:
 ---------------------------------------------------------------------
 Center     Atomic      Atomic             Coordinates (Angstroms)
 Number     Number       Type             X           Y           Z
 ---------------------------------------------------------------------
      1          6           0       -5.154688   -1.827238    0.523632
      2          6           0       -4.829055    2.907463    1.387028
      3          6           0       -9.385730    3.215007   -0.323643
      4          6           0       -9.856329   -1.539054   -0.830645
      5          7           0       -5.251752    0.592301    0.814963
      6          6           0       -4.594527   -0.581033    0.895583
      7          6           0       -3.067729   -0.483860    1.207665
      8          6           0       -3.082391    1.014887    1.783636
      9          6           0       -4.354913    1.518654    1.295555
     10          6           0       -2.918422    1.033637    3.291283
     11          6           0       -2.042220   -0.668718    0.008637
     12          6           0       -0.679601   -0.663090    0.561139
     13          6           0        0.336357   -1.159536   -0.556140
     14          8           0        0.034845   -1.902741   -1.492330
     15          8           0        1.594277   -0.641444   -0.268817
     16          7           0       -7.128950    2.743961    0.496500
     17          6           0       -6.044178    3.365230    0.960543
     18          6           0       -6.364643    4.796094    1.021107
     19          6           0       -7.615782    5.002344    0.442922
     20          6           0       -8.174009    3.654562    0.218868
     21          6           0       -5.490164    5.903890    1.536802
     22          6           0       -8.330413    6.303274    0.203997
     23          6           0       -9.147152    6.583808   -0.719746
     24          7           0       -9.270263    0.844122   -0.592557
     25          6           0       -9.976396    1.998341   -0.664083
     26          6           0      -11.300017    1.764411   -0.975491
     27          6           0      -11.457465    0.389434   -1.178049
     28          6           0      -10.117680   -0.180418   -0.821576
     29          6           0      -12.239765    2.893169   -1.269639
     30          6           0      -12.673763   -0.323389   -1.625886
     31          6           0      -12.352523   -0.767707   -3.093499
     32          7           0       -7.516827   -1.251841   -0.182240
     33          6           0       -8.597324   -2.070544   -0.487346
     34          6           0       -8.135827   -3.474673   -0.590616
     35          6           0       -6.811644   -3.437978   -0.117913
     36          6           0       -6.439456   -2.042422    0.149118
     37          6           0       -8.914493   -4.743181   -0.877367
     38          6           0       -5.636302   -4.241403    0.173934
     39          8           0       -5.445796   -5.442430    0.037922
     40          6           0       -4.530747   -3.260700    0.612866
     41          6           0       -3.909525   -3.709371    1.911603
     42          8           0       -4.171901   -3.187269    2.960089
     43          8           0       -2.959984   -4.622981    1.716757
     44          6           0       -2.410243   -5.291081    2.908508
     45          6           0        2.612636   -1.094136   -1.224020
     46          6           0        3.929796   -0.694402   -0.583378
     47          6           0        4.920875   -0.151211   -1.136039
     48          6           0        4.911109    0.533801   -2.585214
     49          6           0        6.228998    0.102756   -0.486756
     50          6           0        7.475809   -0.520466   -1.089133
     51          6           0        8.812253   -0.260555   -0.366852
     52          6           0       10.144843   -0.686820   -0.878463
     53          6           0       10.077300   -2.298367   -1.200704
     54          6           0       11.361805   -0.249258   -0.044081
     55          6           0       12.696283   -0.570525   -0.680134
     56          6           0       13.858869   -0.071730    0.092827
     57          6           0       15.250517   -0.176433   -0.592425
     58          6           0       15.662308   -1.663127   -0.610183
     59          6           0       16.360842    0.561714    0.351469
     60          6           0       17.729055    0.790031   -0.241142
     61          6           0       18.672844    1.675495    0.673514
     62          6           0       20.166450    1.682004    0.311058
     63          6           0       20.318339    2.430131   -1.036516
     64          6           0       20.916101    2.373500    1.608490
     65          1           0       -4.043427    3.579592    1.832414
     66          1           0      -10.130082    4.232603   -0.471949
     67          1           0      -10.678138   -2.288251   -1.117401
     68          1           0       -2.911820   -1.076054    2.020775
     69          1           0       -2.263635    1.788746    1.292064
     70          1           0       -1.967169    0.700070    3.615409
     71          1           0       -3.185101    2.134109    3.614690
     72          1           0       -3.777473    0.548355    3.876975
     73          1           0       -2.269045   -1.487210   -0.575776
     74          1           0       -2.529974    0.271446   -0.501180
     75          1           0       -0.384301    0.341142    0.868535
     76          1           0       -0.568627   -1.335387    1.494383
     77          1           0       -4.398634    5.792940    1.104368
     78          1           0       -6.056669    6.687267    1.303011
     79          1           0       -5.408569    5.775894    2.636339
     80          1           0       -8.174625    7.057827    0.927996
     81          1           0       -9.473253    5.816693   -1.520484
     82          1           0       -9.465756    7.634115   -0.827139
     83          1           0      -12.716974    3.644965   -0.469296
     84          1           0      -11.675858    3.360958   -2.015688
     85          1           0      -13.159698    2.483006   -1.774210
     86          1           0      -12.954298   -1.155623   -0.837155
     87          1           0      -13.542266    0.408094   -1.587683
     88          1           0      -12.428801    0.028445   -3.884202
     89          1           0      -11.505322   -1.305643   -3.406001
     90          1           0      -13.277395   -1.464207   -3.380895
     91          1           0       -9.746465   -4.873541   -0.253838
     92          1           0       -9.241827   -4.679420   -1.960940
     93          1           0       -8.260903   -5.536585   -0.829240
     94          1           0       -3.620482   -3.446390   -0.235395
     95          1           0       -1.764374   -5.967371    2.525876
     96          1           0       -1.806644   -4.479999    3.587227
     97          1           0       -3.168791   -5.711666    3.459355
     98          1           0        2.603559   -2.267870   -1.126540
     99          1           0        2.440751   -0.502445   -2.356346
    100          1           0        3.978775   -1.076329    0.469801
    101          1           0        5.646746    1.546049   -2.637244
    102          1           0        5.244209   -0.458600   -3.297796
    103          1           0        3.855065    0.834321   -3.034882
    104          1           0        6.460200    1.235864   -0.323648
    105          1           0        6.327414   -0.327164    0.480483
    106          1           0        7.260773   -1.600314   -1.157423
    107          1           0        7.670470   -0.219143   -2.219868
    108          1           0        8.996913    0.972260   -0.189546
    109          1           0        8.660834   -0.709661    0.633325
    110          1           0       10.233589   -0.279330   -1.928707
    111          1           0        9.279743   -2.559628   -1.975091
    112          1           0       11.081033   -2.585815   -1.859402
    113          1           0       10.093321   -2.775805   -0.279275
    114          1           0       11.439201    0.798641    0.169613
    115          1           0       11.155967   -0.741318    0.892724
    116          1           0       12.765906   -1.667618   -0.947261
    117          1           0       12.851592    0.015637   -1.674982
    118          1           0       13.776037    0.957825    0.285233
    119          1           0       13.718843   -0.479183    0.999225
    120          1           0       15.034372    0.190374   -1.659308
    121          1           0       14.963448   -2.054468   -1.283269
    122          1           0       16.672843   -1.632264   -0.943105
    123          1           0       15.535787   -2.095078    0.497779
    124          1           0       15.822319    1.420367    0.685274
    125          1           0       16.304663    0.098111    1.370935
    126          1           0       18.257803   -0.161652   -0.550604
    127          1           0       17.576231    1.420457   -1.264570
    128          1           0       18.375940    2.828638    0.996320
    129          1           0       18.719751    1.084148    1.722211
    130          1           0       20.647215    0.570198    0.286789
    131          1           0       20.106923    3.544205   -0.807891
    132          1           0       21.471566    2.272015   -1.207314
    133          1           0       19.828487    2.086917   -1.859492
    134          1           0       20.984210    1.857691    2.533477
    135          1           0       22.043171    2.344333    1.359768
    136          1           0       20.629370    3.463388    1.623150
    137          1           0       -7.266594    1.716789    0.468393
    138          1           0       -7.778657   -0.215611   -0.258129
 ---------------------------------------------------------------------

 SCF Done:  E(RB3LYP) =  -2733.10703856     A.U. after   17 cycles

 Excitation energies and oscillator strengths:

 Excited State   1:      Singlet-A      2.0871 eV  594.05 nm  f=0.1367  <S**2>=0.000
     235 -> 238       -0.33368
     236 -> 237        0.62007
 This state for optimization and/or second-order correction.
 Total Energy, E(TD-HF/TD-KS) =  -2733.03033909
 Copying the excited state density for this state as the 1-particle RhoCI density.

 The electronic state is 1-A.
 Alpha  occ. eigenvalues --  -19.18483 -19.17792 -19.13670 -19.11844 -19.11408
 Alpha  occ. eigenvalues --  -14.36775 -14.36383 -14.32802 -14.29478 -10.32466
 Alpha  occ. eigenvalues --  -10.31133 -10.27269 -10.27212 -10.24704 -10.23885
 Alpha  occ. eigenvalues --  -10.23471 -10.23217 -10.23211 -10.23143 -10.23059
 Alpha  occ. eigenvalues --  -10.23018 -10.21931 -10.21816 -10.21475 -10.21397
 Alpha  occ. eigenvalues --  -10.20823 -10.20807 -10.20796 -10.20760 -10.20712
 Alpha  occ. eigenvalues --  -10.20396 -10.20367 -10.20255 -10.20236 -10.20080
 Alpha  occ. eigenvalues --  -10.19973 -10.19954 -10.19820 -10.19740 -10.19737
 Alpha  occ. eigenvalues --  -10.19722 -10.19721 -10.19665 -10.19664 -10.19591
 Alpha  occ. eigenvalues --  -10.19579 -10.19333 -10.19331 -10.19313 -10.19237
 Alpha  occ. eigenvalues --  -10.19130 -10.18975 -10.18924 -10.18871 -10.18788
 Alpha  occ. eigenvalues --  -10.18553 -10.18542 -10.18432 -10.18216 -10.18172
 Alpha  occ. eigenvalues --  -10.18172 -10.17568 -10.17171 -10.15881  -1.09299
 Alpha  occ. eigenvalues --   -1.07956  -1.01566  -1.00595  -1.00436  -0.97752
 Alpha  occ. eigenvalues --   -0.96903  -0.94598  -0.93718  -0.84432  -0.83097
 Alpha  occ. eigenvalues --   -0.82109  -0.82079  -0.81374  -0.80511  -0.80207
 Alpha  occ. eigenvalues --   -0.79469  -0.79119  -0.78993  -0.78904  -0.77874
 Alpha  occ. eigenvalues --   -0.77103  -0.76687  -0.75558  -0.74929  -0.74267
 Alpha  occ. eigenvalues --   -0.73695  -0.72587  -0.72211  -0.71148  -0.70955
 Alpha  occ. eigenvalues --   -0.69745  -0.69365  -0.68252  -0.67469  -0.67268
 Alpha  occ. eigenvalues --   -0.67185  -0.66302  -0.65779  -0.65620  -0.65190
 Alpha  occ. eigenvalues --   -0.64685  -0.62549  -0.62263  -0.61915  -0.61290
 Alpha  occ. eigenvalues --   -0.60831  -0.58993  -0.58535  -0.57149  -0.57006
 Alpha  occ. eigenvalues --   -0.56833  -0.55688  -0.55613  -0.55233  -0.54943
 Alpha  occ. eigenvalues --   -0.54350  -0.53951  -0.53714  -0.53172  -0.52877
 Alpha  occ. eigenvalues --   -0.52303  -0.51526  -0.51202  -0.50709  -0.49734
 Alpha  occ. eigenvalues --   -0.49528  -0.48936  -0.48697  -0.48610  -0.48512
 Alpha  occ. eigenvalues --   -0.48164  -0.47496  -0.47126  -0.47115  -0.46592
 Alpha  occ. eigenvalues --   -0.46551  -0.46401  -0.46104  -0.45866  -0.45666
 Alpha  occ. eigenvalues --   -0.45403  -0.45003  -0.44710  -0.44416  -0.44150
 Alpha  occ. eigenvalues --   -0.43959  -0.43920  -0.43678  -0.43538  -0.43458
 Alpha  occ. eigenvalues --   -0.43194  -0.43136  -0.43000  -0.42722  -0.42375
 Alpha  occ. eigenvalues --   -0.42210  -0.42121  -0.41581  -0.41475  -0.41275
 Alpha  occ. eigenvalues --   -0.41194  -0.40758  -0.40703  -0.40488  -0.40415
 Alpha  occ. eigenvalues --   -0.40234  -0.40140  -0.39998  -0.39605  -0.39418
 Alpha  occ. eigenvalues --   -0.39347  -0.39232  -0.39188  -0.38739  -0.38570
 Alpha  occ. eigenvalues --   -0.38423  -0.38124  -0.37925  -0.37700  -0.37515
 Alpha  occ. eigenvalues --   -0.37378  -0.36953  -0.36804  -0.36678  -0.36628
 Alpha  occ. eigenvalues --   -0.36492  -0.36408  -0.36323  -0.36266  -0.35986
 Alpha  occ. eigenvalues --   -0.35790  -0.35748  -0.35408  -0.34899  -0.34770
 Alpha  occ. eigenvalues --   -0.34302  -0.34151  -0.34104  -0.33899  -0.33624
 Alpha  occ. eigenvalues --   -0.33343  -0.32748  -0.32673  -0.32391  -0.32340
 Alpha  occ. eigenvalues --   -0.32029  -0.31739  -0.31589  -0.31382  -0.31148
 Alpha  occ. eigenvalues --   -0.30880  -0.30576  -0.30522  -0.30472  -0.29493
 Alpha  occ. eigenvalues --   -0.29376  -0.29069  -0.29019  -0.28364  -0.28073
 Alpha  occ. eigenvalues --   -0.28033  -0.27306  -0.26540  -0.26143  -0.26026
 Alpha  occ. eigenvalues --   -0.25828  -0.24576  -0.24566  -0.21937  -0.19694
 Alpha  occ. eigenvalues --   -0.18451
 Alpha virt. eigenvalues --   -0.09540  -0.07758  -0.04270  -0.01311  -0.01109
 Alpha virt. eigenvalues --    0.00337   0.00704   0.00832   0.01820   0.02934
 Alpha virt. eigenvalues --    0.03778   0.04288   0.04318   0.04379   0.04747

 Mulliken charges:
               1
     1  C    0.047764
     2  C   -0.158301
     3  C   -0.089950
     4  C   -0.111042
     5  N   -0.160859
     6  C   -0.111665
     7  C    0.027503
     8  C   -0.130374
     9  C   -0.010082
    10  C    0.071189
    11  C    0.098331
    12  C    0.041880
    13  C    0.203165
    14  O   -0.238012
    15  O   -0.334971
    16  N   -0.054254
    17  C    0.204442
    18  C   -0.215874
    19  C    0.046481
    20  C    0.030103
    21  C    0.173123
    22  C   -0.017900
    23  C   -0.047448
    24  N   -0.248298
    25  C    0.049691
    26  C   -0.107381
    27  C   -0.113565
    28  C    0.082713
    29  C    0.071555
    30  C    0.054460
    31  C   -0.018329
    32  N   -0.094618
    33  C    0.045908
    34  C   -0.180683
    35  C    0.013985
    36  C    0.096284
    37  C    0.171785
    38  C    0.057796
    39  O   -0.183788
    40  C   -0.114060
    41  C    0.201069
    42  O   -0.223278
    43  O   -0.306908
    44  C    0.228631
    45  C    0.192440
    46  C   -0.109132
    47  C   -0.041302
    48  C   -0.079842
    49  C    0.081458
    50  C   -0.020300
    51  C   -0.002582
    52  C   -0.069699
    53  C   -0.038585
    54  C    0.089843
    55  C   -0.011057
    56  C    0.094938
    57  C   -0.136149
    58  C    0.087514
    59  C    0.059943
    60  C    0.054713
    61  C   -0.045467
    62  C   -0.164823
    63  C    0.048996
    64  C    0.007755
    65  H   -0.015159
    66  H    0.025787
    67  H    0.010287
    68  H   -0.041887
    69  H    0.030005
    70  H    0.020673
    71  H    0.007726
    72  H    0.034963
    73  H   -0.000213
    74  H    0.029922
    75  H    0.023210
    76  H    0.051193
    77  H    0.045189
    78  H   -0.029158
    79  H    0.025812
    80  H   -0.005112
    81  H    0.043993
    82  H    0.024424
    83  H    0.045825
    84  H    0.012508
    85  H   -0.005570
    86  H    0.033574
    87  H    0.011191
    88  H    0.017615
    89  H    0.017912
    90  H    0.005790
    91  H    0.022507
    92  H    0.022845
    93  H    0.007282
    94  H    0.097755
    95  H    0.013500
    96  H    0.044009
    97  H    0.023302
    98  H    0.055260
    99  H    0.067684
   100  H   -0.002961
   101  H    0.063697
   102  H    0.056626
   103  H    0.042309
   104  H    0.016002
   105  H   -0.029540
   106  H    0.001581
   107  H    0.002551
   108  H    0.004997
   109  H   -0.013971
   110  H   -0.013913
   111  H    0.036447
   112  H    0.023870
   113  H    0.004429
   114  H   -0.017098
   115  H   -0.017451
   116  H    0.010880
   117  H   -0.011525
   118  H   -0.037740
   119  H   -0.056707
   120  H    0.002476
   121  H   -0.009035
   122  H   -0.006925
   123  H    0.019866
   124  H   -0.038706
   125  H   -0.018354
   126  H    0.017791
   127  H    0.013483
   128  H    0.024014
   129  H    0.002532
   130  H    0.015678
   131  H    0.017688
   132  H    0.015184
   133  H    0.005877
   134  H    0.015875
   135  H   -0.002200
   136  H    0.021495
   137  H    0.152092
   138  H    0.169164
 Sum of Mulliken charges =   0.00000

 Dipole moment (field-independent basis, Debye):
    X=              2.6209    Y=              3.8231    Z=              1.3082  Tot=              4.8163
 Quadrupole moment (field-independent basis, Debye-Ang):
   XX=           -359.9470   YY=           -383.3332   ZZ=           -392.6828
   XY=            -21.4763   XZ=             11.1704   YZ=             -4.3341

 Normal termination of Gaussian 09 at Tue Jul 30 13:08:58 2019.
