 Gaussian 09, Revision D.01,
 Gaussian 09:  ES64L-G09RevD.01 24-Apr-2013

 --------------------------
 # td=(NStates=1) B3LYP/SVP
 --------------------------

 --
 TD
 --
 Symbolic Z-matrix:
 Charge =  0 Multiplicity = 1

                         Standard orientation:
 ---------------------------------------------------------------------
 Center     Atomic      Atomic             Coordinates (Angstroms)
 Number     Number       Type             X           Y           Z
 ---------------------------------------------------------------------
      1          6           0       -5.155430   -1.944571    0.555472
      2          6           0       -4.759331    2.747354    1.420321
      3          6           0       -9.337836    3.367693   -0.303825
      4          6           0       -9.757953   -1.434474   -0.814000
      5          7           0       -5.209944    0.359699    0.943069
      6          6           0       -4.534832   -0.777117    0.734464
      7          6           0       -3.071750   -0.569384    1.187305
      8          6           0       -3.016728    0.930772    1.719911
      9          6           0       -4.379160    1.377273    1.389701
     10          6           0       -2.788748    1.007486    3.321186
     11          6           0       -2.068281   -0.726908    0.103204
     12          6           0       -0.559245   -0.804631    0.483057
     13          6           0        0.314656   -1.109257   -0.633628
     14          8           0        0.082170   -1.669165   -1.770783
     15          8           0        1.610506   -0.885524   -0.304272
     16          7           0       -7.076367    2.757701    0.499631
     17          6           0       -5.938291    3.374309    1.005295
     18          6           0       -6.300105    4.748735    1.130101
     19          6           0       -7.574072    4.997261    0.623016
     20          6           0       -8.060545    3.680573    0.171905
     21          6           0       -5.458479    5.896019    1.645880
     22          6           0       -8.288247    6.287305    0.369759
     23          6           0       -9.041923    6.610867   -0.803582
     24          7           0       -9.139064    0.859612   -0.388277
     25          6           0       -9.803348    2.083737   -0.604024
     26          6           0      -11.172653    1.925337   -1.051382
     27          6           0      -11.420755    0.585213   -1.118608
     28          6           0      -10.024214   -0.074478   -0.853147
     29          6           0      -12.336852    2.886968   -1.106384
     30          6           0      -12.635057   -0.285842   -1.543626
     31          6           0      -12.701389   -0.517043   -3.044847
     32          7           0       -7.379019   -1.295414   -0.205713
     33          6           0       -8.492969   -1.992104   -0.516395
     34          6           0       -8.118563   -3.376978   -0.658861
     35          6           0       -6.824047   -3.465448   -0.280508
     36          6           0       -6.414403   -2.147487    0.016783
     37          6           0       -9.018687   -4.541693   -0.997027
     38          6           0       -5.682174   -4.268012    0.008114
     39          8           0       -5.469813   -5.536895   -0.099864
     40          6           0       -4.457132   -3.325923    0.603358
     41          6           0       -3.929339   -3.828359    1.863799
     42          8           0       -4.334445   -3.447175    2.939558
     43          8           0       -2.940303   -4.780492    1.709273
     44          6           0       -2.541770   -5.498366    2.907048
     45          6           0        2.726950   -1.151594   -1.287891
     46          6           0        3.958713   -0.785903   -0.676670
     47          6           0        4.923624   -0.046834   -1.318851
     48          6           0        4.885914    0.579016   -2.657593
     49          6           0        6.228541    0.321939   -0.608142
     50          6           0        7.420933   -0.288276   -1.146611
     51          6           0        8.739827   -0.033170   -0.358966
     52          6           0        9.998755   -0.619566   -0.973779
     53          6           0        9.979343   -2.112823   -1.138346
     54          6           0       11.167101   -0.096944    0.026578
     55          6           0       12.574499   -0.513151   -0.482041
     56          6           0       13.832996    0.008914    0.300303
     57          6           0       15.224084   -0.038098   -0.399766
     58          6           0       15.596160   -1.557830   -0.591476
     59          6           0       16.285555    0.643048    0.407567
     60          6           0       17.765030    0.720295   -0.215534
     61          6           0       18.551988    1.655592    0.698155
     62          6           0       20.065744    1.641596    0.341328
     63          6           0       20.433995    2.077152   -1.057395
     64          6           0       21.006521    2.303835    1.510634
     65          1           0       -4.265093    3.350344    1.864496
     66          1           0      -10.038586    4.315785   -0.457988
     67          1           0      -10.550373   -1.951678   -1.308719
     68          1           0       -2.835110   -1.490621    2.022658
     69          1           0       -2.178479    1.606087    1.408214
     70          1           0       -1.770702    0.572868    3.677233
     71          1           0       -2.873962    2.118599    3.697595
     72          1           0       -3.526713    0.437052    3.902827
     73          1           0       -2.179715   -1.644680   -0.480865
     74          1           0       -2.193515   -0.082059   -0.769189
     75          1           0       -0.467366    0.260573    1.021822
     76          1           0       -0.287962   -1.681440    1.319264
     77          1           0       -4.734994    6.108355    0.749290
     78          1           0       -5.932267    6.911045    2.126461
     79          1           0       -4.801220    5.314058    2.491518
     80          1           0       -8.195237    7.199790    1.101292
     81          1           0       -9.189821    5.987385   -1.619230
     82          1           0       -9.589703    7.486232   -0.851715
     83          1           0      -11.828959    3.824822   -0.321787
     84          1           0      -12.535433    3.333634   -2.327423
     85          1           0      -13.401890    2.385166   -0.684233
     86          1           0      -12.492380   -1.310861   -0.871247
     87          1           0      -13.686954    0.343934   -1.279955
     88          1           0      -12.963387    0.508609   -3.565543
     89          1           0      -11.780722   -0.870640   -3.476578
     90          1           0      -13.507376   -1.186671   -3.349406
     91          1           0       -9.836206   -4.473668   -0.237191
     92          1           0       -9.376834   -4.431841   -2.194201
     93          1           0       -8.492475   -5.495755   -0.690929
     94          1           0       -3.691528   -3.211176   -0.174590
     95          1           0       -2.067706   -6.487160    2.450811
     96          1           0       -1.912293   -4.910277    3.562408
     97          1           0       -3.533579   -5.703898    3.460824
     98          1           0        2.861309   -2.283591   -1.731491
     99          1           0        2.426459   -0.528071   -2.203013
    100          1           0        4.418206   -1.362645    0.348099
    101          1           0        5.103439    1.646895   -2.573025
    102          1           0        5.718739    0.252656   -3.181266
    103          1           0        3.994780    0.267162   -3.202743
    104          1           0        6.374806    1.582961   -0.716899
    105          1           0        5.855081    0.129878    0.486161
    106          1           0        7.485919   -1.370775   -1.441275
    107          1           0        7.520050    0.046047   -2.252001
    108          1           0        8.809406    1.076840   -0.265490
    109          1           0        8.610203   -0.603601    0.559303
    110          1           0       10.374951   -0.005326   -1.970050
    111          1           0        9.162094   -2.255692   -1.820413
    112          1           0       10.954162   -2.696559   -1.543641
    113          1           0        9.757042   -2.710867   -0.189372
    114          1           0       11.063691    0.957513    0.114297
    115          1           0       11.052350   -0.436563    1.129957
    116          1           0       12.661438   -1.675659   -0.613866
    117          1           0       12.408687   -0.146563   -1.532677
    118          1           0       13.504692    1.036285    0.632082
    119          1           0       13.772546   -0.406285    1.237560
    120          1           0       15.184323    0.406675   -1.443499
    121          1           0       14.782859   -2.020854   -1.244844
    122          1           0       16.552254   -1.796188   -1.096280
    123          1           0       15.533649   -2.209482    0.284714
    124          1           0       16.051417    1.812727    0.683912
    125          1           0       15.791765    0.058019    1.358300
    126          1           0       18.190988   -0.163794   -0.161459
    127          1           0       17.454790    1.022104   -1.241188
    128          1           0       18.229690    2.746297    0.670749
    129          1           0       18.345865    1.016217    1.731763
    130          1           0       20.352784    0.626121    0.501802
    131          1           0       20.041291    3.151408   -1.227609
    132          1           0       21.423197    2.054525   -1.247081
    133          1           0       20.165508    1.325796   -1.884991
    134          1           0       20.702408    1.768199    2.511812
    135          1           0       22.044827    2.170981    1.043708
    136          1           0       20.639838    3.319328    1.539076
    137          1           0       -7.290274    1.818813    0.182566
    138          1           0       -7.422591   -0.126151    0.032062
 ---------------------------------------------------------------------

 SCF Done:  E(RB3LYP) =  -2732.97044329     A.U. after   17 cycles

 Excitation energies and oscillator strengths:

 Excited State   1:      Singlet-A      2.0199 eV  613.82 nm  f=0.1860  <S**2>=0.000
     235 -> 238       -0.29874
     236 -> 237        0.63585
 This state for optimization and/or second-order correction.
 Total Energy, E(TD-HF/TD-KS) =  -2732.89621446
 Copying the excited state density for this state as the 1-particle RhoCI density.

 The electronic state is 1-A.
 Alpha  occ. eigenvalues --  -19.17142 -19.16900 -19.12144 -19.11779 -19.11646
 Alpha  occ. eigenvalues --  -14.37702 -14.37085 -14.32533 -14.31646 -10.31831
 Alpha  occ. eigenvalues --  -10.31196 -10.28491 -10.26317 -10.25097 -10.24606
 Alpha  occ. eigenvalues --  -10.24096 -10.23866 -10.23684 -10.23638 -10.23079
 Alpha  occ. eigenvalues --  -10.22889 -10.22842 -10.22839 -10.22790 -10.22556
 Alpha  occ. eigenvalues --  -10.22463 -10.22084 -10.22052 -10.21694 -10.21453
 Alpha  occ. eigenvalues --  -10.21339 -10.21234 -10.21109 -10.21073 -10.20906
 Alpha  occ. eigenvalues --  -10.20837 -10.20782 -10.20621 -10.20387 -10.20116
 Alpha  occ. eigenvalues --  -10.19961 -10.19934 -10.19792 -10.19762 -10.19620
 Alpha  occ. eigenvalues --  -10.19608 -10.19462 -10.19410 -10.19338 -10.19251
 Alpha  occ. eigenvalues --  -10.19248 -10.19242 -10.19149 -10.18947 -10.18901
 Alpha  occ. eigenvalues --  -10.18852 -10.18500 -10.18483 -10.18389 -10.18375
 Alpha  occ. eigenvalues --  -10.18096 -10.18084 -10.18072 -10.17987  -1.07800
 Alpha  occ. eigenvalues --   -1.06697  -1.00841  -0.99841  -0.98021  -0.97856
 Alpha  occ. eigenvalues --   -0.96094  -0.94416  -0.92917  -0.85145  -0.83387
 Alpha  occ. eigenvalues --   -0.82065  -0.81582  -0.81407  -0.81232  -0.80864
 Alpha  occ. eigenvalues --   -0.80679  -0.79933  -0.79283  -0.79090  -0.77759
 Alpha  occ. eigenvalues --   -0.76932  -0.75791  -0.75590  -0.74708  -0.74198
 Alpha  occ. eigenvalues --   -0.73708  -0.73433  -0.73100  -0.71999  -0.70787
 Alpha  occ. eigenvalues --   -0.69948  -0.68639  -0.68425  -0.68072  -0.67218
 Alpha  occ. eigenvalues --   -0.67060  -0.66725  -0.66099  -0.65852  -0.64967
 Alpha  occ. eigenvalues --   -0.64504  -0.63348  -0.62899  -0.61977  -0.61016
 Alpha  occ. eigenvalues --   -0.60831  -0.59199  -0.58823  -0.58468  -0.57531
 Alpha  occ. eigenvalues --   -0.56425  -0.55593  -0.55178  -0.55111  -0.54736
 Alpha  occ. eigenvalues --   -0.54560  -0.54309  -0.53889  -0.53811  -0.53265
 Alpha  occ. eigenvalues --   -0.52252  -0.51497  -0.51399  -0.51229  -0.50280
 Alpha  occ. eigenvalues --   -0.49413  -0.48595  -0.48450  -0.48363  -0.48256
 Alpha  occ. eigenvalues --   -0.47986  -0.47096  -0.47052  -0.46903  -0.46690
 Alpha  occ. eigenvalues --   -0.46377  -0.46333  -0.46206  -0.45848  -0.45588
 Alpha  occ. eigenvalues --   -0.45297  -0.45218  -0.44617  -0.44541  -0.44337
 Alpha  occ. eigenvalues --   -0.44212  -0.44151  -0.43725  -0.43552  -0.43350
 Alpha  occ. eigenvalues --   -0.43150  -0.42912  -0.42865  -0.42587  -0.42454
 Alpha  occ. eigenvalues --   -0.42176  -0.41822  -0.41713  -0.41615  -0.41105
 Alpha  occ. eigenvalues --   -0.41079  -0.40876  -0.40717  -0.40543  -0.40466
 Alpha  occ. eigenvalues --   -0.40111  -0.39839  -0.39760  -0.39690  -0.39411
 Alpha  occ. eigenvalues --   -0.39022  -0.38948  -0.38864  -0.38644  -0.38384
 Alpha  occ. eigenvalues --   -0.38262  -0.37916  -0.37737  -0.37376  -0.37352
 Alpha  occ. eigenvalues --   -0.37153  -0.37136  -0.36903  -0.36762  -0.36670
 Alpha  occ. eigenvalues --   -0.36264  -0.36226  -0.35857  -0.35731  -0.35529
 Alpha  occ. eigenvalues --   -0.35318  -0.35186  -0.34993  -0.34910  -0.34570
 Alpha  occ. eigenvalues --   -0.34506  -0.34208  -0.34107  -0.33903  -0.33754
 Alpha  occ. eigenvalues --   -0.33604  -0.33558  -0.33047  -0.33020  -0.32264
 Alpha  occ. eigenvalues --   -0.32054  -0.31414  -0.31106  -0.31090  -0.30689
 Alpha  occ. eigenvalues --   -0.30342  -0.30037  -0.29960  -0.29925  -0.29496
 Alpha  occ. eigenvalues --   -0.29297  -0.29003  -0.28388  -0.28155  -0.27838
 Alpha  occ. eigenvalues --   -0.27637  -0.27258  -0.26938  -0.26882  -0.26434
 Alpha  occ. eigenvalues --   -0.24453  -0.24362  -0.23994  -0.23543  -0.20103
 Alpha  occ. eigenvalues --   -0.19291
 Alpha virt. eigenvalues --   -0.10828  -0.08008  -0.05066  -0.03180  -0.02075
 Alpha virt. eigenvalues --   -0.01118  -0.00718  -0.00150   0.01115   0.01863
 Alpha virt. eigenvalues --    0.03329   0.03717   0.03793   0.04001   0.04165

 Mulliken charges:
               1
     1  C    0.047397
     2  C    0.119671
     3  C   -0.139858
     4  C   -0.080253
     5  N   -0.193451
     6  C   -0.055074
     7  C   -0.043455
     8  C   -0.035288
     9  C    0.034723
    10  C   -0.025726
    11  C    0.025491
    12  C   -0.042765
    13  C    0.233818
    14  O   -0.307285
    15  O   -0.333511
    16  N   -0.070691
    17  C    0.126603
    18  C   -0.111089
    19  C    0.057758
    20  C    0.023524
    21  C   -0.028734
    22  C   -0.095053
    23  C    0.001965
    24  N   -0.304046
    25  C    0.141805
    26  C   -0.084024
    27  C   -0.064699
    28  C    0.024610
    29  C   -0.110370
    30  C   -0.040471
    31  C    0.021988
    32  N   -0.047266
    33  C    0.110834
    34  C   -0.204265
    35  C    0.149283
    36  C   -0.017669
    37  C    0.053919
    38  C    0.038370
    39  O   -0.243704
    40  C   -0.008548
    41  C    0.215098
    42  O   -0.227343
    43  O   -0.330390
    44  C    0.147350
    45  C    0.207658
    46  C   -0.084592
    47  C   -0.202748
    48  C    0.185393
    49  C    0.000968
    50  C    0.003878
    51  C    0.073828
    52  C   -0.139241
    53  C    0.011219
    54  C    0.003580
    55  C   -0.011014
    56  C    0.069465
    57  C   -0.009084
    58  C    0.001886
    59  C   -0.106348
    60  C    0.136967
    61  C   -0.033538
    62  C   -0.115042
    63  C    0.069332
    64  C   -0.003866
    65  H   -0.214333
    66  H    0.028350
    67  H   -0.023585
    68  H    0.056724
    69  H    0.026177
    70  H    0.029616
    71  H    0.026641
    72  H    0.031302
    73  H    0.002824
    74  H    0.000305
    75  H    0.056174
    76  H    0.078266
    77  H    0.056762
    78  H    0.069339
    79  H    0.044327
    80  H    0.033032
    81  H    0.017467
    82  H    0.010906
    83  H    0.052563
    84  H    0.056958
    85  H    0.072763
    86  H    0.044450
    87  H    0.024830
    88  H    0.021921
    89  H    0.014097
    90  H    0.018035
    91  H    0.035823
    92  H    0.066398
    93  H    0.049095
    94  H    0.059608
    95  H    0.064618
    96  H    0.032417
    97  H    0.047703
    98  H    0.063178
    99  H    0.044228
   100  H    0.036546
   101  H    0.009108
   102  H   -0.012596
   103  H    0.000712
   104  H    0.021861
   105  H    0.016802
   106  H   -0.010333
   107  H   -0.012290
   108  H    0.002020
   109  H   -0.001709
   110  H    0.016308
   111  H    0.009402
   112  H    0.037526
   113  H    0.019153
   114  H   -0.019045
   115  H   -0.011214
   116  H    0.013971
   117  H   -0.011525
   118  H   -0.018690
   119  H   -0.030731
   120  H   -0.011275
   121  H    0.007394
   122  H    0.013009
   123  H   -0.001624
   124  H    0.008497
   125  H    0.006106
   126  H   -0.037196
   127  H    0.011077
   128  H    0.012853
   129  H    0.028360
   130  H   -0.025295
   131  H    0.017413
   132  H   -0.031355
   133  H    0.011689
   134  H    0.030570
   135  H    0.032216
   136  H    0.005233
   137  H    0.128899
   138  H    0.251297
 Sum of Mulliken charges =   0.00000

 Dipole moment (field-independent basis, Debye):
    X=              1.6322    Y=              4.9240    Z=             -0.3945  Tot=              5.2024
 Quadrupole moment (field-independent basis, Debye-Ang):
   XX=           -342.2230   YY=           -390.2800   ZZ=           -396.5996
   XY=            -33.6691   XZ=              4.2220   YZ=             -4.3523

 Normal termination of Gaussian 09 at Wed Jul 24 05:53:37 2019.
