 Gaussian 09, Revision D.01,
 Gaussian 09:  ES64L-G09RevD.01 24-Apr-2013

 --------------------------
 # td=(NStates=1) B3LYP/SVP
 --------------------------

 --
 TD
 --
 Symbolic Z-matrix:
 Charge =  0 Multiplicity = 1

                         Standard orientation:
 ---------------------------------------------------------------------
 Center     Atomic      Atomic             Coordinates (Angstroms)
 Number     Number       Type             X           Y           Z
 ---------------------------------------------------------------------
      1          6           0       -5.068877   -1.930664    0.494255
      2          6           0       -4.775353    2.766342    1.401034
      3          6           0       -9.420507    3.287989   -0.166979
      4          6           0       -9.689490   -1.432631   -0.969208
      5          7           0       -5.253222    0.390191    0.883809
      6          6           0       -4.507475   -0.752806    0.829440
      7          6           0       -3.006256   -0.535230    1.387192
      8          6           0       -3.077072    0.872006    1.767988
      9          6           0       -4.448155    1.389414    1.356929
     10          6           0       -3.122359    0.931177    3.438396
     11          6           0       -2.017237   -0.641805    0.183191
     12          6           0       -0.618548   -0.571577    0.571159
     13          6           0        0.349938   -0.816884   -0.773634
     14          8           0        0.104452   -1.229016   -1.853137
     15          8           0        1.623798   -0.663876   -0.182366
     16          7           0       -7.164055    2.727397    0.544411
     17          6           0       -5.993993    3.367837    1.032324
     18          6           0       -6.298590    4.772838    0.997479
     19          6           0       -7.558147    5.012892    0.637008
     20          6           0       -8.049955    3.596949    0.228226
     21          6           0       -5.272617    5.783234    1.400458
     22          6           0       -8.334907    6.282669    0.512960
     23          6           0       -9.241064    6.660443   -0.489084
     24          7           0       -9.206312    0.876223   -0.526957
     25          6           0       -9.914190    1.943906   -0.588492
     26          6           0      -11.349865    1.741182   -0.948024
     27          6           0      -11.390713    0.464321   -1.191766
     28          6           0      -10.058912   -0.200777   -0.924298
     29          6           0      -12.386385    2.769069   -0.974652
     30          6           0      -12.577275   -0.405463   -1.695099
     31          6           0      -12.498035   -0.678159   -3.288512
     32          7           0       -7.407605   -1.328984   -0.249470
     33          6           0       -8.575988   -2.121440   -0.638826
     34          6           0       -8.125123   -3.452485   -0.737284
     35          6           0       -6.753765   -3.423424   -0.241945
     36          6           0       -6.438632   -2.135476   -0.039436
     37          6           0       -8.887579   -4.662979   -1.347539
     38          6           0       -5.679821   -4.257809    0.013616
     39          8           0       -5.569434   -5.518436   -0.055719
     40          6           0       -4.504073   -3.283273    0.495087
     41          6           0       -3.892863   -3.744565    1.828900
     42          8           0       -4.015375   -3.307657    2.950140
     43          8           0       -3.151620   -4.848141    1.578260
     44          6           0       -2.494264   -5.554172    2.750776
     45          6           0        2.636945   -0.803589   -1.197912
     46          6           0        3.933740   -0.472029   -0.651673
     47          6           0        4.932583    0.170538   -1.210868
     48          6           0        5.047868    0.767933   -2.630991
     49          6           0        6.208728    0.457070   -0.419024
     50          6           0        7.460990   -0.267225   -0.957429
     51          6           0        8.739591   -0.115521    0.010156
     52          6           0       10.001403   -0.765220   -0.568174
     53          6           0        9.893732   -2.228887   -0.424729
     54          6           0       11.200657   -0.158232    0.239740
     55          6           0       12.685210   -0.555462   -0.467748
     56          6           0       13.847718    0.125001    0.212820
     57          6           0       15.228287   -0.210292   -0.433915
     58          6           0       15.585973   -1.732022   -0.524821
     59          6           0       16.293741    0.632028    0.363886
     60          6           0       17.694902    0.669292   -0.231616
     61          6           0       18.740310    1.462274    0.575561
     62          6           0       20.124868    1.463105   -0.011289
     63          6           0       20.241514    2.143425   -1.398357
     64          6           0       21.192274    2.104200    1.002872
     65          1           0       -3.909710    3.544795    1.630026
     66          1           0      -10.080512    4.011661   -0.038828
     67          1           0      -10.510926   -1.978099   -1.396114
     68          1           0       -2.754251   -1.448545    2.087327
     69          1           0       -2.262923    1.471091    1.422458
     70          1           0       -2.116918    0.492416    3.582555
     71          1           0       -3.475027    1.999899    3.825176
     72          1           0       -3.976174    0.304341    3.648384
     73          1           0       -2.259518   -1.584729   -0.309318
     74          1           0       -2.147969    0.115889   -0.691622
     75          1           0       -0.036417    0.189824    1.048237
     76          1           0       -0.181320   -1.389916    1.191120
     77          1           0       -4.301667    5.475559    0.756117
     78          1           0       -5.416493    6.925712    1.041549
     79          1           0       -5.022224    5.886645    2.434996
     80          1           0       -8.287462    7.115825    1.033629
     81          1           0       -9.597202    6.122749   -1.289525
     82          1           0       -9.662325    7.526938   -0.518404
     83          1           0      -12.789250    3.677812   -0.195149
     84          1           0      -12.294131    3.428222   -2.097848
     85          1           0      -13.513496    2.200596   -1.080051
     86          1           0      -12.260661   -1.346178   -1.053753
     87          1           0      -13.624589    0.168688   -1.334647
     88          1           0      -12.444248    0.152371   -4.012342
     89          1           0      -11.635818   -1.181945   -3.371192
     90          1           0      -13.282542   -1.194230   -3.590848
     91          1           0       -9.786960   -4.881011   -0.684309
     92          1           0       -9.123523   -4.275249   -2.473354
     93          1           0       -8.112852   -5.530886   -1.190325
     94          1           0       -3.639822   -3.511264   -0.223067
     95          1           0       -2.003958   -6.543021    2.269388
     96          1           0       -1.900444   -4.827268    3.317605
     97          1           0       -3.458940   -5.748990    3.494420
     98          1           0        2.466002   -1.848851   -1.667242
     99          1           0        2.374577   -0.168099   -2.123370
    100          1           0        4.050912   -0.904523    0.411701
    101          1           0        5.307950    1.892323   -2.324916
    102          1           0        6.010248    0.185729   -3.089488
    103          1           0        4.093779    0.631611   -3.205614
    104          1           0        6.396026    1.483559   -0.409134
    105          1           0        6.182832    0.419731    0.670627
    106          1           0        7.082978   -1.401765   -0.981267
    107          1           0        7.634648    0.148691   -1.932787
    108          1           0        8.680505    1.037536    0.015856
    109          1           0        8.414410   -0.391441    1.188016
    110          1           0       10.157827   -0.432268   -1.668724
    111          1           0        8.980394   -2.676927   -0.816405
    112          1           0       10.812724   -2.851994   -0.900019
    113          1           0        9.871786   -2.372957    0.746974
    114          1           0       11.482557    1.000164    0.240651
    115          1           0       11.158401   -0.672327    1.282377
    116          1           0       12.578679   -1.616445   -0.389495
    117          1           0       12.522679   -0.240560   -1.629244
    118          1           0       13.688543    1.108755    0.249223
    119          1           0       13.807539   -0.254843    1.290546
    120          1           0       15.231093    0.123610   -1.526523
    121          1           0       14.640071   -1.912432   -1.164512
    122          1           0       16.593542   -2.043867   -0.891918
    123          1           0       15.609006   -2.034403    0.430093
    124          1           0       16.116823    1.788390    0.494746
    125          1           0       16.162661    0.219682    1.432274
    126          1           0       18.041660   -0.506065   -0.392650
    127          1           0       17.638534    1.079789   -1.235827
    128          1           0       18.374008    2.591950    0.776365
    129          1           0       18.564280    1.138019    1.612119
    130          1           0       20.415421    0.408577   -0.221860
    131          1           0       19.988879    3.269020   -1.342562
    132          1           0       21.345495    2.045551   -1.669795
    133          1           0       19.367038    1.618404   -2.043175
    134          1           0       21.119590    1.648914    2.076555
    135          1           0       22.184128    2.223338    0.330020
    136          1           0       20.662799    3.139713    1.158304
    137          1           0       -7.243443    1.682061    0.567412
    138          1           0       -7.490872   -0.404046   -0.168377
 ---------------------------------------------------------------------

 SCF Done:  E(RB3LYP) =  -2732.95490976     A.U. after   17 cycles

 Excitation energies and oscillator strengths:

 Excited State   1:      Singlet-A      2.2259 eV  557.01 nm  f=0.1552  <S**2>=0.000
     235 -> 237        0.49160
     235 -> 238        0.14772
     236 -> 237       -0.43493
     236 -> 238        0.19212
 This state for optimization and/or second-order correction.
 Total Energy, E(TD-HF/TD-KS) =  -2732.87310989
 Copying the excited state density for this state as the 1-particle RhoCI density.

 The electronic state is 1-A.
 Alpha  occ. eigenvalues --  -19.17373 -19.16310 -19.14868 -19.11863 -19.10400
 Alpha  occ. eigenvalues --  -14.38195 -14.36155 -14.32654 -14.30147 -10.32097
 Alpha  occ. eigenvalues --  -10.30854 -10.26462 -10.26436 -10.25103 -10.25069
 Alpha  occ. eigenvalues --  -10.24595 -10.23928 -10.23595 -10.22696 -10.22626
 Alpha  occ. eigenvalues --  -10.22441 -10.22223 -10.22151 -10.21955 -10.21699
 Alpha  occ. eigenvalues --  -10.21646 -10.21607 -10.21528 -10.21458 -10.21217
 Alpha  occ. eigenvalues --  -10.21082 -10.21048 -10.20883 -10.20808 -10.20776
 Alpha  occ. eigenvalues --  -10.20478 -10.20426 -10.20277 -10.20186 -10.20115
 Alpha  occ. eigenvalues --  -10.20008 -10.19976 -10.19824 -10.19756 -10.19738
 Alpha  occ. eigenvalues --  -10.19660 -10.19576 -10.19387 -10.19183 -10.19172
 Alpha  occ. eigenvalues --  -10.19171 -10.19167 -10.19133 -10.19095 -10.19037
 Alpha  occ. eigenvalues --  -10.18957 -10.18809 -10.18769 -10.18432 -10.18152
 Alpha  occ. eigenvalues --  -10.17985 -10.17688 -10.17503 -10.17386  -1.09263
 Alpha  occ. eigenvalues --   -1.07519  -1.02171  -1.00139  -0.99850  -0.98757
 Alpha  occ. eigenvalues --   -0.98001  -0.94467  -0.94013  -0.85240  -0.83033
 Alpha  occ. eigenvalues --   -0.82452  -0.81778  -0.81616  -0.81384  -0.80672
 Alpha  occ. eigenvalues --   -0.80343  -0.79850  -0.79614  -0.79448  -0.77401
 Alpha  occ. eigenvalues --   -0.76816  -0.75785  -0.75046  -0.74819  -0.74172
 Alpha  occ. eigenvalues --   -0.73470  -0.72355  -0.72131  -0.71398  -0.70590
 Alpha  occ. eigenvalues --   -0.69355  -0.68994  -0.68001  -0.67232  -0.67074
 Alpha  occ. eigenvalues --   -0.66755  -0.66282  -0.65877  -0.65335  -0.64767
 Alpha  occ. eigenvalues --   -0.64162  -0.63609  -0.63277  -0.62484  -0.61762
 Alpha  occ. eigenvalues --   -0.60554  -0.59270  -0.58315  -0.58185  -0.57822
 Alpha  occ. eigenvalues --   -0.56702  -0.56241  -0.55956  -0.55694  -0.55350
 Alpha  occ. eigenvalues --   -0.54928  -0.54564  -0.54054  -0.53976  -0.53005
 Alpha  occ. eigenvalues --   -0.52492  -0.51890  -0.51421  -0.50868  -0.49741
 Alpha  occ. eigenvalues --   -0.49461  -0.49043  -0.48972  -0.48485  -0.48291
 Alpha  occ. eigenvalues --   -0.47860  -0.47420  -0.47128  -0.46847  -0.46639
 Alpha  occ. eigenvalues --   -0.46421  -0.46236  -0.46011  -0.45791  -0.45646
 Alpha  occ. eigenvalues --   -0.45524  -0.45330  -0.44965  -0.44779  -0.44711
 Alpha  occ. eigenvalues --   -0.44689  -0.43975  -0.43901  -0.43562  -0.43367
 Alpha  occ. eigenvalues --   -0.43054  -0.42793  -0.42728  -0.42528  -0.42371
 Alpha  occ. eigenvalues --   -0.42249  -0.42224  -0.41973  -0.41685  -0.41611
 Alpha  occ. eigenvalues --   -0.41183  -0.40893  -0.40818  -0.40596  -0.40416
 Alpha  occ. eigenvalues --   -0.40267  -0.39916  -0.39786  -0.39713  -0.39217
 Alpha  occ. eigenvalues --   -0.39084  -0.38841  -0.38674  -0.38416  -0.38137
 Alpha  occ. eigenvalues --   -0.37780  -0.37697  -0.37592  -0.37505  -0.37350
 Alpha  occ. eigenvalues --   -0.37287  -0.36994  -0.36940  -0.36720  -0.36518
 Alpha  occ. eigenvalues --   -0.36496  -0.36242  -0.36147  -0.35926  -0.35690
 Alpha  occ. eigenvalues --   -0.35569  -0.35394  -0.35296  -0.34979  -0.34689
 Alpha  occ. eigenvalues --   -0.34266  -0.34228  -0.34179  -0.33762  -0.33327
 Alpha  occ. eigenvalues --   -0.33128  -0.32945  -0.32892  -0.32616  -0.32539
 Alpha  occ. eigenvalues --   -0.32071  -0.31824  -0.31499  -0.31245  -0.31237
 Alpha  occ. eigenvalues --   -0.31152  -0.30664  -0.30531  -0.30138  -0.30052
 Alpha  occ. eigenvalues --   -0.29412  -0.29131  -0.28820  -0.28654  -0.27451
 Alpha  occ. eigenvalues --   -0.27359  -0.27071  -0.26754  -0.25732  -0.25532
 Alpha  occ. eigenvalues --   -0.25063  -0.24733  -0.23870  -0.23777  -0.19845
 Alpha  occ. eigenvalues --   -0.19519
 Alpha virt. eigenvalues --   -0.10460  -0.07150  -0.04153  -0.02772  -0.00307
 Alpha virt. eigenvalues --    0.00079   0.00810   0.01110   0.01994   0.03095
 Alpha virt. eigenvalues --    0.03773   0.03897   0.04041   0.04186   0.04404

 Mulliken charges:
               1
     1  C    0.133617
     2  C   -0.101076
     3  C   -0.013190
     4  C   -0.057016
     5  N   -0.194714
     6  C   -0.125224
     7  C   -0.041335
     8  C   -0.011890
     9  C    0.016329
    10  C    0.024828
    11  C    0.078458
    12  C    0.003622
    13  C    0.172231
    14  O   -0.176688
    15  O   -0.358966
    16  N   -0.016511
    17  C    0.093583
    18  C   -0.080199
    19  C    0.083337
    20  C    0.035266
    21  C    0.007024
    22  C   -0.002941
    23  C    0.018904
    24  N   -0.207369
    25  C    0.005478
    26  C   -0.030176
    27  C   -0.019361
    28  C    0.023821
    29  C   -0.129883
    30  C   -0.069093
    31  C    0.131531
    32  N    0.070090
    33  C    0.095049
    34  C   -0.124387
    35  C    0.040645
    36  C    0.012112
    37  C    0.027932
    38  C    0.012665
    39  O   -0.232127
    40  C   -0.100125
    41  C    0.192207
    42  O   -0.230681
    43  O   -0.329082
    44  C    0.119661
    45  C    0.206967
    46  C   -0.074077
    47  C   -0.123394
    48  C    0.013284
    49  C    0.092789
    50  C   -0.041029
    51  C   -0.045667
    52  C   -0.026626
    53  C    0.001216
    54  C   -0.057616
    55  C   -0.055266
    56  C    0.134157
    57  C   -0.104571
    58  C    0.046571
    59  C   -0.029058
    60  C    0.006114
    61  C    0.012622
    62  C   -0.076937
    63  C   -0.038151
    64  C   -0.029590
    65  H    0.021401
    66  H   -0.081619
    67  H   -0.044165
    68  H    0.053907
    69  H   -0.004547
    70  H    0.036176
    71  H    0.033144
    72  H    0.031654
    73  H    0.002800
    74  H    0.022668
    75  H    0.010227
    76  H    0.019367
    77  H    0.042199
    78  H    0.035207
    79  H    0.036557
    80  H   -0.052677
    81  H   -0.003041
    82  H   -0.024039
    83  H    0.073419
    84  H    0.044413
    85  H    0.028091
    86  H    0.039523
    87  H    0.034925
    88  H    0.012957
    89  H   -0.026701
    90  H   -0.015926
    91  H    0.046452
    92  H    0.065022
    93  H    0.070805
    94  H    0.072213
    95  H    0.085434
    96  H    0.044236
    97  H    0.061215
    98  H    0.030614
    99  H    0.011812
   100  H    0.007282
   101  H    0.046671
   102  H    0.061792
   103  H    0.030506
   104  H   -0.036992
   105  H   -0.026314
   106  H    0.021799
   107  H    0.008517
   108  H    0.004533
   109  H    0.025351
   110  H    0.005904
   111  H    0.018014
   112  H    0.038284
   113  H    0.012604
   114  H    0.026117
   115  H    0.012966
   116  H    0.003316
   117  H    0.009730
   118  H   -0.043036
   119  H   -0.002478
   120  H   -0.007735
   121  H    0.041971
   122  H    0.026131
   123  H   -0.027839
   124  H   -0.000843
   125  H   -0.002183
   126  H    0.002647
   127  H   -0.002835
   128  H   -0.008405
   129  H   -0.013279
   130  H   -0.001228
   131  H    0.015778
   132  H    0.028790
   133  H    0.039154
   134  H    0.034805
   135  H    0.037380
   136  H    0.011034
   137  H    0.175464
   138  H    0.054812
 Sum of Mulliken charges =   0.00000

 Dipole moment (field-independent basis, Debye):
    X=              1.0123    Y=              6.2331    Z=              0.1676  Tot=              6.3170
 Quadrupole moment (field-independent basis, Debye-Ang):
   XX=           -364.1692   YY=           -386.0336   ZZ=           -397.0610
   XY=            -40.2061   XZ=             10.9938   YZ=             -0.3088

 Normal termination of Gaussian 09 at Mon Jul 29 11:00:44 2019.
