 Gaussian 09, Revision D.01,
 Gaussian 09:  ES64L-G09RevD.01 24-Apr-2013

 --------------------------
 # td=(NStates=1) B3LYP/SVP
 --------------------------

 --
 TD
 --
 Symbolic Z-matrix:
 Charge =  0 Multiplicity = 1

                         Standard orientation:
 ---------------------------------------------------------------------
 Center     Atomic      Atomic             Coordinates (Angstroms)
 Number     Number       Type             X           Y           Z
 ---------------------------------------------------------------------
      1          6           0       -4.992559   -1.854796    0.405546
      2          6           0       -4.661511    2.762130    1.579652
      3          6           0       -9.293009    3.405045   -0.072064
      4          6           0       -9.891086   -1.374441   -0.921603
      5          7           0       -5.143284    0.395255    0.979910
      6          6           0       -4.441038   -0.795361    0.938220
      7          6           0       -2.978886   -0.612014    1.248332
      8          6           0       -2.992836    0.747779    1.920038
      9          6           0       -4.368862    1.340650    1.461588
     10          6           0       -3.007856    0.658528    3.453681
     11          6           0       -2.104479   -0.804640    0.046414
     12          6           0       -0.630195   -0.851627    0.523582
     13          6           0        0.442433   -1.298843   -0.571366
     14          8           0        0.040735   -1.977239   -1.562373
     15          8           0        1.531371   -0.860751   -0.227743
     16          7           0       -6.913041    2.794750    0.606401
     17          6           0       -5.765010    3.378820    1.098476
     18          6           0       -6.048312    4.822406    1.002667
     19          6           0       -7.311716    4.981001    0.564261
     20          6           0       -7.912900    3.671669    0.297104
     21          6           0       -5.062603    5.960201    1.431508
     22          6           0       -7.917254    6.326866    0.269006
     23          6           0       -8.584375    6.743223   -0.844684
     24          7           0       -9.084214    0.950745   -0.491872
     25          6           0       -9.743028    2.103608   -0.399643
     26          6           0      -11.210345    1.981225   -0.938921
     27          6           0      -11.419025    0.625867   -1.137972
     28          6           0      -10.119549    0.008601   -0.929029
     29          6           0      -12.123172    3.118635   -1.120598
     30          6           0      -12.696234   -0.182416   -1.592537
     31          6           0      -12.845083   -0.281952   -3.113549
     32          7           0       -7.555236   -1.137889   -0.185985
     33          6           0       -8.710602   -1.939100   -0.545080
     34          6           0       -8.281492   -3.312335   -0.559016
     35          6           0       -6.865936   -3.338953   -0.256402
     36          6           0       -6.471687   -1.978844    0.097989
     37          6           0       -9.085453   -4.507830   -1.007191
     38          6           0       -5.756499   -4.248849    0.012457
     39          8           0       -5.760169   -5.504915    0.000050
     40          6           0       -4.628797   -3.404749    0.334842
     41          6           0       -4.032820   -3.867021    1.726341
     42          8           0       -4.380238   -3.542888    2.796937
     43          8           0       -3.082469   -4.871615    1.442240
     44          6           0       -2.587086   -5.608257    2.516859
     45          6           0        2.684308   -1.264109   -1.065742
     46          6           0        3.894003   -0.686723   -0.548369
     47          6           0        4.873457   -0.016857   -1.233677
     48          6           0        4.766415    0.451595   -2.611854
     49          6           0        6.209906    0.317369   -0.560591
     50          6           0        7.385689   -0.292366   -1.047536
     51          6           0        8.715817    0.114023   -0.335678
     52          6           0       10.054613   -0.526608   -0.925670
     53          6           0        9.979987   -2.072423   -0.961855
     54          6           0       11.275861   -0.120781   -0.132637
     55          6           0       12.622073   -0.457752   -0.757615
     56          6           0       13.739285    0.045143    0.108161
     57          6           0       15.224868   -0.131507   -0.489835
     58          6           0       15.368341   -1.659785   -0.425829
     59          6           0       16.240131    0.548177    0.464067
     60          6           0       17.625642    0.685559   -0.140688
     61          6           0       18.650181    1.536071    0.748599
     62          6           0       20.114547    1.530213    0.337150
     63          6           0       20.282682    2.121474   -1.182765
     64          6           0       20.935717    2.279210    1.310408
     65          1           0       -4.127770    3.454198    2.126509
     66          1           0      -10.061590    4.097846   -0.077661
     67          1           0      -10.730376   -2.240054   -1.452995
     68          1           0       -2.730327   -1.300046    1.978362
     69          1           0       -2.361355    1.460514    1.440961
     70          1           0       -2.047589    0.411917    3.964108
     71          1           0       -3.206150    1.925024    3.721792
     72          1           0       -3.770705    0.007530    3.771285
     73          1           0       -2.250717   -1.815823   -0.273682
     74          1           0       -2.189069   -0.146194   -0.833186
     75          1           0       -0.252025    0.081210    1.035955
     76          1           0       -0.444647   -1.784627    1.213687
     77          1           0       -4.311006    5.907039    0.708389
     78          1           0       -5.539176    6.867565    1.498484
     79          1           0       -4.952592    5.663667    2.633875
     80          1           0       -7.755960    7.081788    1.071881
     81          1           0       -8.595916    6.090025   -1.784057
     82          1           0       -9.051129    7.604781   -0.823415
     83          1           0      -12.292443    3.772649   -0.185148
     84          1           0      -11.673863    3.689244   -1.852572
     85          1           0      -13.366683    2.913254   -1.412729
     86          1           0      -12.560238   -1.193219   -1.229131
     87          1           0      -13.486792    0.505659   -1.240779
     88          1           0      -12.851931    0.690190   -3.586331
     89          1           0      -12.119453   -0.768893   -3.566820
     90          1           0      -13.698303   -0.867381   -3.452539
     91          1           0       -9.999202   -4.647317   -0.531747
     92          1           0       -9.286785   -4.398721   -2.085568
     93          1           0       -8.308407   -5.207730   -0.797947
     94          1           0       -3.849567   -3.555615   -0.313210
     95          1           0       -1.884434   -6.329370    1.976237
     96          1           0       -1.949858   -4.913277    3.292193
     97          1           0       -3.492109   -6.012598    3.019282
     98          1           0        2.725750   -2.444301   -0.864628
     99          1           0        2.327696   -1.039695   -2.218139
    100          1           0        4.297578   -1.123199    0.435522
    101          1           0        4.974858    1.543722   -2.715675
    102          1           0        5.215873   -0.062085   -3.460905
    103          1           0        3.714859    0.192054   -3.039752
    104          1           0        6.393003    1.445954   -0.559851
    105          1           0        6.208376    0.243505    0.608609
    106          1           0        7.358556   -1.489297   -1.094137
    107          1           0        7.730904   -0.084211   -2.123772
    108          1           0        8.931421    1.253260   -0.327173
    109          1           0        8.648203   -0.250992    0.657384
    110          1           0       10.105316   -0.316319   -2.120716
    111          1           0        8.927768   -2.373574   -1.365495
    112          1           0       10.876014   -2.364413   -1.735820
    113          1           0       10.021942   -2.667613    0.028805
    114          1           0       11.269123    1.038543   -0.161400
    115          1           0       11.205533   -0.367124    0.884342
    116          1           0       12.583496   -1.653925   -0.898518
    117          1           0       12.716690    0.005261   -1.618589
    118          1           0       13.722528    1.194769    0.267665
    119          1           0       13.653674   -0.399878    1.146136
    120          1           0       15.109747    0.238294   -1.446240
    121          1           0       14.718157   -2.143683   -1.466214
    122          1           0       16.579231   -1.795968   -0.594353
    123          1           0       15.092751   -2.075398    0.669225
    124          1           0       15.768504    1.584615    0.564556
    125          1           0       16.294039    0.199910    1.492331
    126          1           0       18.182118   -0.264788   -0.421123
    127          1           0       17.653933    1.256320   -1.113134
    128          1           0       18.289625    2.650595    1.155455
    129          1           0       18.664335    1.042028    1.707213
    130          1           0       20.482082    0.347419    0.316085
    131          1           0       19.845385    3.162511   -1.149274
    132          1           0       21.322976    1.959162   -1.513273
    133          1           0       19.607442    1.685389   -1.754431
    134          1           0       20.768924    1.968799    2.347375
    135          1           0       22.172755    2.325270    1.174351
    136          1           0       20.651499    3.317415    1.273130
    137          1           0       -7.090848    1.775313    0.450432
    138          1           0       -7.715036   -0.162570   -0.123262
 ---------------------------------------------------------------------

 SCF Done:  E(RB3LYP) =  -2733.03859347     A.U. after   16 cycles

 Excitation energies and oscillator strengths:

 Excited State   1:      Singlet-A      2.0679 eV  599.56 nm  f=0.2128  <S**2>=0.000
     235 -> 237       -0.10995
     235 -> 238       -0.21521
     236 -> 237        0.65606
 This state for optimization and/or second-order correction.
 Total Energy, E(TD-HF/TD-KS) =  -2732.96259925
 Copying the excited state density for this state as the 1-particle RhoCI density.

 The electronic state is 1-A.
 Alpha  occ. eigenvalues --  -19.20142 -19.16441 -19.13883 -19.10702 -19.10667
 Alpha  occ. eigenvalues --  -14.37201 -14.35779 -14.31970 -14.30963 -10.31755
 Alpha  occ. eigenvalues --  -10.30949 -10.27963 -10.26608 -10.24888 -10.24757
 Alpha  occ. eigenvalues --  -10.24144 -10.24053 -10.23409 -10.22299 -10.22186
 Alpha  occ. eigenvalues --  -10.22129 -10.21688 -10.21649 -10.21642 -10.21350
 Alpha  occ. eigenvalues --  -10.21186 -10.20964 -10.20729 -10.20715 -10.20661
 Alpha  occ. eigenvalues --  -10.20622 -10.20608 -10.20607 -10.20530 -10.20527
 Alpha  occ. eigenvalues --  -10.20436 -10.20433 -10.20379 -10.20244 -10.20173
 Alpha  occ. eigenvalues --  -10.20145 -10.20035 -10.19835 -10.19681 -10.19606
 Alpha  occ. eigenvalues --  -10.19489 -10.19483 -10.19416 -10.19289 -10.19269
 Alpha  occ. eigenvalues --  -10.19234 -10.19201 -10.18962 -10.18912 -10.18827
 Alpha  occ. eigenvalues --  -10.18787 -10.18698 -10.18469 -10.18391 -10.18351
 Alpha  occ. eigenvalues --  -10.18110 -10.17698 -10.17417 -10.16555  -1.13809
 Alpha  occ. eigenvalues --   -1.09244  -1.02068  -0.99439  -0.98319  -0.97770
 Alpha  occ. eigenvalues --   -0.95224  -0.94538  -0.91775  -0.84182  -0.84078
 Alpha  occ. eigenvalues --   -0.82388  -0.81627  -0.81500  -0.81036  -0.80716
 Alpha  occ. eigenvalues --   -0.79943  -0.79356  -0.78986  -0.78901  -0.78558
 Alpha  occ. eigenvalues --   -0.76885  -0.76458  -0.75364  -0.75264  -0.74718
 Alpha  occ. eigenvalues --   -0.74233  -0.73544  -0.72545  -0.71966  -0.71081
 Alpha  occ. eigenvalues --   -0.69767  -0.69528  -0.68715  -0.68158  -0.67953
 Alpha  occ. eigenvalues --   -0.66776  -0.66253  -0.66148  -0.65682  -0.65210
 Alpha  occ. eigenvalues --   -0.63255  -0.62484  -0.62302  -0.62005  -0.61222
 Alpha  occ. eigenvalues --   -0.60885  -0.59181  -0.58862  -0.57867  -0.57487
 Alpha  occ. eigenvalues --   -0.56990  -0.56470  -0.56353  -0.55436  -0.54756
 Alpha  occ. eigenvalues --   -0.54666  -0.54053  -0.53711  -0.53645  -0.52928
 Alpha  occ. eigenvalues --   -0.52204  -0.51715  -0.51663  -0.50986  -0.50798
 Alpha  occ. eigenvalues --   -0.50361  -0.49309  -0.49142  -0.48688  -0.48095
 Alpha  occ. eigenvalues --   -0.47707  -0.47516  -0.47226  -0.47004  -0.46919
 Alpha  occ. eigenvalues --   -0.46486  -0.46444  -0.46413  -0.46143  -0.45945
 Alpha  occ. eigenvalues --   -0.45613  -0.45461  -0.45168  -0.44805  -0.44654
 Alpha  occ. eigenvalues --   -0.44422  -0.44268  -0.44096  -0.43992  -0.43797
 Alpha  occ. eigenvalues --   -0.43633  -0.43457  -0.43178  -0.43135  -0.42782
 Alpha  occ. eigenvalues --   -0.42329  -0.42202  -0.42137  -0.41894  -0.41754
 Alpha  occ. eigenvalues --   -0.41570  -0.41411  -0.40862  -0.40708  -0.40333
 Alpha  occ. eigenvalues --   -0.40163  -0.39992  -0.39663  -0.39630  -0.39368
 Alpha  occ. eigenvalues --   -0.39205  -0.39118  -0.38893  -0.38190  -0.38151
 Alpha  occ. eigenvalues --   -0.38080  -0.37838  -0.37789  -0.37462  -0.37406
 Alpha  occ. eigenvalues --   -0.37253  -0.36880  -0.36699  -0.36606  -0.36442
 Alpha  occ. eigenvalues --   -0.36333  -0.36189  -0.36115  -0.36006  -0.35893
 Alpha  occ. eigenvalues --   -0.35638  -0.35512  -0.35376  -0.35054  -0.35031
 Alpha  occ. eigenvalues --   -0.34811  -0.34646  -0.34316  -0.34269  -0.34018
 Alpha  occ. eigenvalues --   -0.33923  -0.33491  -0.32602  -0.32429  -0.32160
 Alpha  occ. eigenvalues --   -0.32090  -0.31997  -0.31650  -0.31596  -0.31203
 Alpha  occ. eigenvalues --   -0.30652  -0.30345  -0.30263  -0.29876  -0.29734
 Alpha  occ. eigenvalues --   -0.29504  -0.29438  -0.28459  -0.27888  -0.27721
 Alpha  occ. eigenvalues --   -0.27329  -0.27102  -0.26730  -0.26329  -0.24841
 Alpha  occ. eigenvalues --   -0.24808  -0.24704  -0.24308  -0.22939  -0.20346
 Alpha  occ. eigenvalues --   -0.18400
 Alpha virt. eigenvalues --   -0.09990  -0.07070  -0.04350  -0.02863  -0.01935
 Alpha virt. eigenvalues --    0.00060   0.00566   0.01738   0.02717   0.02824
 Alpha virt. eigenvalues --    0.03135   0.03574   0.03795   0.04220   0.04578

 Mulliken charges:
               1
     1  C    0.000701
     2  C   -0.027766
     3  C   -0.044850
     4  C   -0.144320
     5  N   -0.150465
     6  C   -0.062290
     7  C    0.058521
     8  C   -0.009753
     9  C   -0.034854
    10  C    0.048062
    11  C    0.163130
    12  C   -0.069644
    13  C    0.139520
    14  O   -0.311057
    15  O   -0.193832
    16  N   -0.085824
    17  C    0.091790
    18  C   -0.172254
    19  C    0.013392
    20  C    0.110141
    21  C    0.154309
    22  C   -0.093011
    23  C    0.028946
    24  N   -0.285111
    25  C    0.057239
    26  C   -0.153635
    27  C   -0.117389
    28  C    0.082449
    29  C    0.032189
    30  C    0.126147
    31  C    0.077237
    32  N   -0.081753
    33  C    0.096010
    34  C   -0.161819
    35  C   -0.081635
    36  C    0.103994
    37  C    0.150954
    38  C    0.103662
    39  O   -0.225700
    40  C    0.067625
    41  C    0.173497
    42  O   -0.161240
    43  O   -0.329064
    44  C    0.129836
    45  C    0.156100
    46  C   -0.050070
    47  C   -0.107478
    48  C    0.053620
    49  C    0.077189
    50  C   -0.040339
    51  C    0.022632
    52  C   -0.108365
    53  C   -0.066014
    54  C    0.050642
    55  C    0.106395
    56  C   -0.053334
    57  C   -0.020210
    58  C   -0.070893
    59  C    0.068995
    60  C    0.020283
    61  C   -0.037848
    62  C   -0.139169
    63  C    0.086282
    64  C    0.034768
    65  H   -0.061776
    66  H   -0.057385
    67  H    0.051416
    68  H   -0.051183
    69  H   -0.022742
    70  H    0.030197
    71  H    0.020827
    72  H    0.029196
    73  H   -0.003734
    74  H    0.015977
    75  H    0.027241
    76  H    0.032670
    77  H    0.036438
    78  H   -0.015786
    79  H    0.054054
    80  H    0.019349
    81  H    0.043703
    82  H   -0.018552
    83  H    0.042161
    84  H    0.015468
    85  H    0.036815
    86  H    0.001570
    87  H    0.008694
    88  H   -0.000943
    89  H   -0.041364
    90  H    0.000652
    91  H    0.005024
    92  H    0.025188
    93  H    0.033680
    94  H    0.016732
    95  H    0.052549
    96  H    0.030893
    97  H    0.042942
    98  H    0.056268
    99  H    0.082839
   100  H    0.019390
   101  H    0.035469
   102  H    0.031466
   103  H   -0.005879
   104  H    0.002800
   105  H    0.001157
   106  H    0.015967
   107  H    0.004010
   108  H    0.012460
   109  H   -0.016389
   110  H    0.007551
   111  H    0.016381
   112  H    0.040857
   113  H    0.021416
   114  H   -0.014956
   115  H   -0.020336
   116  H    0.026218
   117  H   -0.054767
   118  H   -0.007529
   119  H   -0.005635
   120  H   -0.026513
   121  H    0.042973
   122  H    0.016163
   123  H    0.039672
   124  H   -0.005736
   125  H   -0.003992
   126  H    0.013022
   127  H    0.004102
   128  H    0.007157
   129  H   -0.018655
   130  H    0.009110
   131  H    0.001797
   132  H    0.026131
   133  H   -0.040041
   134  H    0.001929
   135  H    0.020905
   136  H   -0.006834
   137  H    0.166361
   138  H    0.108445
 Sum of Mulliken charges =   0.00000

 Dipole moment (field-independent basis, Debye):
    X=              4.4741    Y=              6.7834    Z=              0.2286  Tot=              8.1292
 Quadrupole moment (field-independent basis, Debye-Ang):
   XX=           -365.8665   YY=           -393.3056   ZZ=           -392.8744
   XY=            -34.9815   XZ=             10.0245   YZ=             -1.8370

 Normal termination of Gaussian 09 at Wed Jul 24 22:09:14 2019.
