 Gaussian 09, Revision D.01,
 Gaussian 09:  ES64L-G09RevD.01 24-Apr-2013

 --------------------------
 # td=(NStates=1) B3LYP/SVP
 --------------------------

 --
 TD
 --
 Symbolic Z-matrix:
 Charge =  0 Multiplicity = 1

                         Standard orientation:
 ---------------------------------------------------------------------
 Center     Atomic      Atomic             Coordinates (Angstroms)
 Number     Number       Type             X           Y           Z
 ---------------------------------------------------------------------
      1          6           0       -5.131000   -1.920422    0.440841
      2          6           0       -4.812770    2.726329    1.273308
      3          6           0       -9.470615    3.249876   -0.293687
      4          6           0       -9.859073   -1.578290   -0.868014
      5          7           0       -5.137574    0.458668    0.668903
      6          6           0       -4.470450   -0.757868    0.848961
      7          6           0       -3.084864   -0.581731    1.189076
      8          6           0       -3.116725    0.903464    1.723502
      9          6           0       -4.391289    1.415495    1.198540
     10          6           0       -2.962181    1.144320    3.275916
     11          6           0       -2.039999   -0.692584    0.040367
     12          6           0       -0.628455   -0.719078    0.491979
     13          6           0        0.358164   -0.881770   -0.673290
     14          8           0        0.070723   -1.208602   -1.750939
     15          8           0        1.724322   -0.785709   -0.275122
     16          7           0       -7.153653    2.669511    0.414581
     17          6           0       -6.049992    3.316598    1.023808
     18          6           0       -6.378166    4.784126    1.193758
     19          6           0       -7.707946    4.901140    0.670415
     20          6           0       -8.195456    3.575729    0.262163
     21          6           0       -5.519270    5.746575    1.772327
     22          6           0       -8.375719    6.249142    0.508224
     23          6           0       -9.205266    6.531171   -0.498693
     24          7           0       -9.258759    0.779466   -0.422966
     25          6           0       -9.894437    1.960958   -0.707491
     26          6           0      -11.241009    1.752898   -1.089444
     27          6           0      -11.513827    0.418748   -1.216899
     28          6           0      -10.117124   -0.176408   -0.765679
     29          6           0      -12.212978    2.981324   -1.570714
     30          6           0      -12.699120   -0.332130   -1.728552
     31          6           0      -12.505814   -0.532214   -3.305976
     32          7           0       -7.556060   -1.302346   -0.070937
     33          6           0       -8.581269   -2.105337   -0.493905
     34          6           0       -8.076567   -3.494278   -0.624670
     35          6           0       -6.783126   -3.410911   -0.174081
     36          6           0       -6.441874   -2.015668    0.005273
     37          6           0       -8.866011   -4.658481   -1.120555
     38          6           0       -5.674195   -4.282750    0.183374
     39          8           0       -5.629946   -5.456201    0.141082
     40          6           0       -4.436530   -3.233972    0.447636
     41          6           0       -3.826093   -3.713881    1.746388
     42          8           0       -4.225437   -3.389564    2.877478
     43          8           0       -2.884111   -4.677352    1.562821
     44          6           0       -2.368397   -5.204203    2.844890
     45          6           0        2.675359   -1.096891   -1.339512
     46          6           0        4.055214   -0.992391   -0.611090
     47          6           0        5.017905    0.024038   -0.964376
     48          6           0        4.937901    0.994797   -2.098406
     49          6           0        6.307585    0.225155   -0.083657
     50          6           0        7.626035   -0.286514   -0.877972
     51          6           0        8.818264   -0.221319    0.052046
     52          6           0       10.046716   -0.766373   -0.660590
     53          6           0        9.981119   -2.345271   -0.980396
     54          6           0       11.388301   -0.346829    0.088737
     55          6           0       12.708038   -0.553009   -0.528727
     56          6           0       13.910725   -0.101595    0.316354
     57          6           0       15.216884   -0.289301   -0.414243
     58          6           0       15.756141   -1.704069   -0.473079
     59          6           0       16.259969    0.639706    0.444718
     60          6           0       17.651916    0.696318   -0.110865
     61          6           0       18.642746    1.725518    0.491535
     62          6           0       20.049385    1.714904   -0.123103
     63          6           0       20.103343    2.269415   -1.402745
     64          6           0       21.076637    2.419533    0.873792
     65          1           0       -4.193537    3.514181    1.731427
     66          1           0       -9.989073    4.206831   -0.251374
     67          1           0      -10.661997   -2.225562   -1.097961
     68          1           0       -2.996147   -1.346251    2.097269
     69          1           0       -2.148598    1.557748    1.267766
     70          1           0       -1.891521    0.953948    3.586746
     71          1           0       -2.992600    2.182481    3.806970
     72          1           0       -3.644741    0.636988    3.767763
     73          1           0       -2.283497   -1.662242   -0.674066
     74          1           0       -2.139179    0.212971   -0.801332
     75          1           0       -0.247482    0.105680    0.880600
     76          1           0       -0.362029   -1.633202    1.143277
     77          1           0       -4.791305    5.825223    0.990155
     78          1           0       -5.942595    6.785767    2.021621
     79          1           0       -5.002449    5.415707    2.646392
     80          1           0       -8.178899    6.984282    1.341356
     81          1           0       -9.522140    5.840362   -1.257046
     82          1           0       -9.719962    7.481213   -0.655881
     83          1           0      -12.350762    3.795702   -0.756485
     84          1           0      -11.628064    3.648549   -2.375928
     85          1           0      -13.059050    2.487074   -1.620262
     86          1           0      -13.016730   -1.355388   -1.175772
     87          1           0      -13.585526    0.267390   -1.663912
     88          1           0      -12.243601    0.527075   -3.760768
     89          1           0      -11.618884   -1.191138   -3.447388
     90          1           0      -13.548870   -0.810495   -3.740614
     91          1           0       -9.745678   -5.001480   -0.502416
     92          1           0       -9.181963   -4.740858   -2.139939
     93          1           0       -8.282930   -5.596280   -1.112828
     94          1           0       -3.569174   -3.484925   -0.425080
     95          1           0       -1.241064   -5.592009    2.656036
     96          1           0       -2.405259   -4.211379    3.658149
     97          1           0       -3.210194   -6.139215    2.936070
     98          1           0        2.393665   -2.098753   -1.872386
     99          1           0        2.482830   -0.511919   -2.131307
    100          1           0        4.047177   -1.648269    0.285889
    101          1           0        5.081325    1.880590   -1.528248
    102          1           0        5.772197    1.003566   -3.011148
    103          1           0        3.896762    1.020670   -2.657199
    104          1           0        6.444482    1.311098    0.144158
    105          1           0        6.067495   -0.243142    0.845367
    106          1           0        7.483416   -1.328717   -1.432314
    107          1           0        7.470645    0.372944   -1.947083
    108          1           0        9.112923    0.958164    0.293648
    109          1           0        8.460553   -0.587336    1.078823
    110          1           0       10.208120   -0.356964   -1.739374
    111          1           0        8.969621   -2.665887   -1.636314
    112          1           0       10.626650   -2.486525   -1.554848
    113          1           0        9.743301   -2.952351    0.041535
    114          1           0       11.009602    0.654000    0.404994
    115          1           0       11.285345   -0.597143    1.199186
    116          1           0       12.792457   -1.639869   -0.745854
    117          1           0       12.700345   -0.202751   -1.543783
    118          1           0       13.776072    1.086214    0.517283
    119          1           0       13.944115   -0.640928    1.343999
    120          1           0       15.278605    0.195113   -1.408687
    121          1           0       15.139038   -2.245754   -0.942398
    122          1           0       16.715962   -1.743130   -0.820678
    123          1           0       15.893023   -1.960989    0.654687
    124          1           0       15.966721    1.651555    0.474953
    125          1           0       16.379901    0.261630    1.580780
    126          1           0       18.167241   -0.227304   -0.042802
    127          1           0       17.587274    1.057733   -1.214206
    128          1           0       18.130198    2.808585    0.244498
    129          1           0       18.577345    1.622737    1.655116
    130          1           0       20.288451    0.582477    0.032221
    131          1           0       19.640216    3.221805   -1.415036
    132          1           0       21.001482    2.158922   -1.883193
    133          1           0       19.389717    1.639028   -2.082094
    134          1           0       21.071375    1.812497    1.861669
    135          1           0       22.125977    2.172310    0.460265
    136          1           0       20.988501    3.488786    0.911390
    137          1           0       -7.318489    1.696558    0.278104
    138          1           0       -7.802665   -0.286114    0.013096
 ---------------------------------------------------------------------

 SCF Done:  E(RB3LYP) =  -2732.98380588     A.U. after   16 cycles

 Excitation energies and oscillator strengths:

 Excited State   1:      Singlet-A      2.0516 eV  604.34 nm  f=0.1518  <S**2>=0.000
     235 -> 237        0.12638
     235 -> 238       -0.30080
     236 -> 237        0.61526
     236 -> 238        0.11739
 This state for optimization and/or second-order correction.
 Total Energy, E(TD-HF/TD-KS) =  -2732.90841227
 Copying the excited state density for this state as the 1-particle RhoCI density.

 The electronic state is 1-A.
 Alpha  occ. eigenvalues --  -19.17872 -19.16082 -19.13176 -19.12982 -19.11926
 Alpha  occ. eigenvalues --  -14.37322 -14.36528 -14.31748 -14.30811 -10.31588
 Alpha  occ. eigenvalues --  -10.31027 -10.27981 -10.27614 -10.24403 -10.23781
 Alpha  occ. eigenvalues --  -10.23708 -10.23396 -10.23383 -10.22376 -10.22360
 Alpha  occ. eigenvalues --  -10.22204 -10.22097 -10.22096 -10.21902 -10.21584
 Alpha  occ. eigenvalues --  -10.21524 -10.21508 -10.21462 -10.21460 -10.21405
 Alpha  occ. eigenvalues --  -10.21152 -10.20945 -10.20713 -10.20668 -10.20609
 Alpha  occ. eigenvalues --  -10.20350 -10.20329 -10.20251 -10.20190 -10.20152
 Alpha  occ. eigenvalues --  -10.20100 -10.20096 -10.19828 -10.19811 -10.19728
 Alpha  occ. eigenvalues --  -10.19458 -10.19420 -10.19309 -10.19216 -10.19214
 Alpha  occ. eigenvalues --  -10.19141 -10.19047 -10.19041 -10.19001 -10.18668
 Alpha  occ. eigenvalues --  -10.18582 -10.18522 -10.18270 -10.18235 -10.18220
 Alpha  occ. eigenvalues --  -10.18162 -10.17651 -10.16845 -10.16284  -1.09156
 Alpha  occ. eigenvalues --   -1.08162  -1.05297  -1.00287  -0.99381  -0.98699
 Alpha  occ. eigenvalues --   -0.96295  -0.94885  -0.93940  -0.85139  -0.82120
 Alpha  occ. eigenvalues --   -0.82083  -0.81520  -0.81402  -0.80594  -0.80473
 Alpha  occ. eigenvalues --   -0.79875  -0.79372  -0.78969  -0.78517  -0.77208
 Alpha  occ. eigenvalues --   -0.76917  -0.76313  -0.75220  -0.74308  -0.73979
 Alpha  occ. eigenvalues --   -0.72898  -0.72543  -0.72345  -0.71575  -0.71429
 Alpha  occ. eigenvalues --   -0.70507  -0.68308  -0.68292  -0.67962  -0.67832
 Alpha  occ. eigenvalues --   -0.67411  -0.67047  -0.65945  -0.65542  -0.64576
 Alpha  occ. eigenvalues --   -0.64451  -0.62674  -0.62437  -0.61493  -0.61091
 Alpha  occ. eigenvalues --   -0.60999  -0.58361  -0.58075  -0.57720  -0.57012
 Alpha  occ. eigenvalues --   -0.56701  -0.56027  -0.55612  -0.55411  -0.55218
 Alpha  occ. eigenvalues --   -0.54612  -0.54047  -0.54008  -0.53308  -0.52658
 Alpha  occ. eigenvalues --   -0.52252  -0.51761  -0.51069  -0.50664  -0.49902
 Alpha  occ. eigenvalues --   -0.49603  -0.49056  -0.48553  -0.48205  -0.47814
 Alpha  occ. eigenvalues --   -0.47702  -0.47439  -0.47307  -0.47098  -0.47021
 Alpha  occ. eigenvalues --   -0.46589  -0.46465  -0.46403  -0.46251  -0.45764
 Alpha  occ. eigenvalues --   -0.45608  -0.45323  -0.45022  -0.44765  -0.44517
 Alpha  occ. eigenvalues --   -0.44345  -0.44113  -0.43872  -0.43529  -0.43476
 Alpha  occ. eigenvalues --   -0.43363  -0.43193  -0.43130  -0.42927  -0.42870
 Alpha  occ. eigenvalues --   -0.42646  -0.42351  -0.42082  -0.41874  -0.41538
 Alpha  occ. eigenvalues --   -0.41130  -0.41047  -0.41009  -0.40903  -0.40667
 Alpha  occ. eigenvalues --   -0.40471  -0.40245  -0.39817  -0.39752  -0.39683
 Alpha  occ. eigenvalues --   -0.39242  -0.39160  -0.39031  -0.38734  -0.38543
 Alpha  occ. eigenvalues --   -0.38347  -0.38139  -0.37750  -0.37520  -0.37346
 Alpha  occ. eigenvalues --   -0.37088  -0.36974  -0.36920  -0.36782  -0.36636
 Alpha  occ. eigenvalues --   -0.36461  -0.36438  -0.36060  -0.35961  -0.35920
 Alpha  occ. eigenvalues --   -0.35506  -0.35348  -0.35254  -0.35002  -0.34950
 Alpha  occ. eigenvalues --   -0.34674  -0.34459  -0.34103  -0.33845  -0.33733
 Alpha  occ. eigenvalues --   -0.33072  -0.32960  -0.32849  -0.32354  -0.32299
 Alpha  occ. eigenvalues --   -0.31899  -0.31856  -0.31824  -0.31471  -0.31192
 Alpha  occ. eigenvalues --   -0.30484  -0.30227  -0.29700  -0.29640  -0.29366
 Alpha  occ. eigenvalues --   -0.29206  -0.28578  -0.28220  -0.27797  -0.27772
 Alpha  occ. eigenvalues --   -0.27693  -0.27256  -0.26921  -0.26717  -0.26151
 Alpha  occ. eigenvalues --   -0.24850  -0.23875  -0.23243  -0.23171  -0.19756
 Alpha  occ. eigenvalues --   -0.18393
 Alpha virt. eigenvalues --   -0.09778  -0.07642  -0.04339  -0.01826  -0.01452
 Alpha virt. eigenvalues --   -0.00477   0.00238   0.00716   0.01367   0.03360
 Alpha virt. eigenvalues --    0.03579   0.03725   0.03977   0.04544   0.04848

 Mulliken charges:
               1
     1  C    0.012113
     2  C   -0.045316
     3  C   -0.040523
     4  C   -0.030954
     5  N   -0.179066
     6  C   -0.095053
     7  C    0.033050
     8  C   -0.101410
     9  C    0.051587
    10  C    0.073116
    11  C   -0.040743
    12  C    0.146268
    13  C    0.122070
    14  O   -0.177162
    15  O   -0.380352
    16  N   -0.073504
    17  C    0.066699
    18  C   -0.117711
    19  C   -0.004359
    20  C    0.007905
    21  C    0.106134
    22  C   -0.031341
    23  C   -0.035397
    24  N   -0.255860
    25  C    0.132567
    26  C   -0.153653
    27  C   -0.090625
    28  C    0.019321
    29  C    0.116100
    30  C    0.030231
    31  C   -0.049175
    32  N    0.003588
    33  C    0.032266
    34  C   -0.118673
    35  C   -0.026192
    36  C    0.137364
    37  C    0.077491
    38  C    0.076503
    39  O   -0.116678
    40  C   -0.132649
    41  C    0.208966
    42  O   -0.270730
    43  O   -0.311120
    44  C    0.036448
    45  C    0.271336
    46  C   -0.050376
    47  C   -0.132313
    48  C    0.010555
    49  C    0.061667
    50  C   -0.090979
    51  C    0.033395
    52  C   -0.118222
    53  C    0.101034
    54  C    0.032063
    55  C    0.133798
    56  C    0.002926
    57  C   -0.109731
    58  C    0.184873
    59  C    0.017434
    60  C    0.016572
    61  C   -0.059708
    62  C   -0.122177
    63  C    0.147204
    64  C    0.012346
    65  H   -0.046690
    66  H   -0.030965
    67  H   -0.029609
    68  H    0.047996
    69  H    0.026219
    70  H    0.013243
    71  H    0.014863
    72  H   -0.009441
    73  H    0.047356
    74  H    0.042782
    75  H   -0.022316
    76  H    0.050281
    77  H    0.028920
    78  H    0.031194
    79  H    0.027341
    80  H    0.022925
    81  H    0.021570
    82  H    0.021845
    83  H    0.017847
    84  H    0.050151
    85  H   -0.029724
    86  H    0.034129
    87  H   -0.008243
    88  H    0.032957
    89  H    0.032931
    90  H    0.033034
    91  H    0.028598
    92  H    0.016537
    93  H    0.011752
    94  H    0.092432
    95  H    0.065460
    96  H    0.100634
    97  H    0.087287
    98  H    0.019286
    99  H   -0.047394
   100  H    0.013154
   101  H    0.016800
   102  H    0.063020
   103  H    0.031775
   104  H    0.008747
   105  H   -0.007753
   106  H    0.029207
   107  H    0.012067
   108  H    0.017019
   109  H    0.027496
   110  H    0.004164
   111  H    0.005251
   112  H   -0.089928
   113  H    0.034819
   114  H   -0.040884
   115  H   -0.030093
   116  H   -0.010777
   117  H   -0.026218
   118  H    0.013157
   119  H    0.013884
   120  H   -0.009128
   121  H   -0.051033
   122  H   -0.016731
   123  H   -0.000260
   124  H   -0.022109
   125  H   -0.000704
   126  H   -0.014981
   127  H   -0.001385
   128  H   -0.011469
   129  H    0.002950
   130  H   -0.003247
   131  H   -0.007080
   132  H   -0.015633
   133  H   -0.004600
   134  H    0.018244
   135  H    0.003412
   136  H    0.012525
   137  H    0.125530
   138  H    0.162372
 Sum of Mulliken charges =   0.00000

 Dipole moment (field-independent basis, Debye):
    X=              2.1002    Y=              4.5686    Z=              0.0692  Tot=              5.0287
 Quadrupole moment (field-independent basis, Debye-Ang):
   XX=           -351.5537   YY=           -380.9190   ZZ=           -394.8764
   XY=            -23.8861   XZ=              3.4446   YZ=              5.0555

 Normal termination of Gaussian 09 at Sat Aug  3 17:36:08 2019.
