 Gaussian 09, Revision D.01,
 Gaussian 09:  ES64L-G09RevD.01 24-Apr-2013

 --------------------------
 # td=(NStates=1) B3LYP/SVP
 --------------------------

 --
 TD
 --
 Symbolic Z-matrix:
 Charge =  0 Multiplicity = 1

                         Standard orientation:
 ---------------------------------------------------------------------
 Center     Atomic      Atomic             Coordinates (Angstroms)
 Number     Number       Type             X           Y           Z
 ---------------------------------------------------------------------
      1          6           0       -5.135030   -1.952497    0.489245
      2          6           0       -4.749891    2.745928    1.180275
      3          6           0       -9.563406    3.271725    0.014448
      4          6           0       -9.889525   -1.595484   -0.729619
      5          7           0       -5.214357    0.463364    0.755669
      6          6           0       -4.489849   -0.680682    0.715147
      7          6           0       -3.014703   -0.445467    1.003919
      8          6           0       -3.117650    0.867517    1.757843
      9          6           0       -4.483776    1.458908    1.183461
     10          6           0       -3.041491    1.045608    3.199139
     11          6           0       -2.037253   -0.632068   -0.127591
     12          6           0       -0.607754   -0.622150    0.336369
     13          6           0        0.381025   -0.945628   -0.797950
     14          8           0        0.016521   -1.308787   -1.889214
     15          8           0        1.666168   -0.730948   -0.459248
     16          7           0       -7.039346    2.796715    0.258480
     17          6           0       -6.000810    3.515984    0.814662
     18          6           0       -6.188358    4.808045    0.866505
     19          6           0       -7.626093    4.946869    0.458389
     20          6           0       -8.233131    3.660792    0.206053
     21          6           0       -5.281686    5.936733    1.187635
     22          6           0       -8.128475    6.230754    0.277900
     23          6           0       -9.206850    6.567802   -0.511500
     24          7           0       -9.298362    0.802533   -0.362661
     25          6           0       -9.994248    1.975383   -0.424440
     26          6           0      -11.348454    1.795454   -0.860612
     27          6           0      -11.557927    0.460666   -0.970984
     28          6           0      -10.228523   -0.160970   -0.776183
     29          6           0      -12.442928    2.837197   -0.939221
     30          6           0      -12.680573   -0.445339   -1.309494
     31          6           0      -12.769476   -0.680300   -2.863102
     32          7           0       -7.536957   -1.262363   -0.120410
     33          6           0       -8.659687   -2.084417   -0.495789
     34          6           0       -8.214208   -3.448134   -0.485081
     35          6           0       -6.903342   -3.384139   -0.130784
     36          6           0       -6.481283   -2.045583    0.041890
     37          6           0       -8.935679   -4.705512   -0.884380
     38          6           0       -5.778484   -4.271280    0.231851
     39          8           0       -5.669601   -5.424653    0.246959
     40          6           0       -4.494374   -3.375000    0.459919
     41          6           0       -3.833766   -3.752741    1.766618
     42          8           0       -4.029218   -3.292696    2.820003
     43          8           0       -2.833040   -4.703763    1.571331
     44          6           0       -2.183620   -5.260574    2.682482
     45          6           0        2.625442   -1.033919   -1.357066
     46          6           0        4.027159   -0.880187   -0.712341
     47          6           0        4.985688   -0.014931   -1.087133
     48          6           0        4.910439    0.777970   -2.408075
     49          6           0        6.270880    0.206717   -0.360491
     50          6           0        7.505118   -0.440681   -1.150313
     51          6           0        8.833474   -0.322549   -0.249458
     52          6           0       10.162799   -0.786937   -0.982318
     53          6           0       10.187789   -2.247348   -1.372380
     54          6           0       11.295659   -0.312411   -0.018204
     55          6           0       12.609228   -0.530774   -0.732630
     56          6           0       13.823821   -0.111149    0.240697
     57          6           0       15.345645   -0.238971   -0.381167
     58          6           0       15.707007   -1.683503   -0.442641
     59          6           0       16.386263    0.591209    0.486005
     60          6           0       17.792277    0.586436   -0.042654
     61          6           0       18.689905    1.492035    0.876718
     62          6           0       20.142193    1.714256    0.387504
     63          6           0       20.307820    2.426751   -1.005711
     64          6           0       20.924188    2.548451    1.414448
     65          1           0       -4.006690    3.474322    1.392601
     66          1           0      -10.148607    4.183568   -0.067569
     67          1           0      -10.788996   -2.044461   -1.064685
     68          1           0       -2.890779   -1.267706    1.718975
     69          1           0       -2.374976    1.353588    1.378061
     70          1           0       -2.118282    0.670727    3.564559
     71          1           0       -3.060143    2.141198    3.508909
     72          1           0       -3.926355    0.674824    3.924997
     73          1           0       -2.216231   -1.754899   -0.611418
     74          1           0       -2.411918    0.135560   -0.953993
     75          1           0       -0.162361    0.342738    0.447894
     76          1           0       -0.467453   -1.287883    1.433690
     77          1           0       -4.513633    6.207602    0.384419
     78          1           0       -5.830835    6.833529    1.126963
     79          1           0       -5.193777    5.745809    2.351583
     80          1           0       -7.918759    7.051532    0.898663
     81          1           0       -9.391811    6.048356   -1.386785
     82          1           0       -9.646240    7.511499   -0.505428
     83          1           0      -12.719281    3.260113    0.068765
     84          1           0      -12.193962    3.760720   -1.586211
     85          1           0      -13.419010    2.334356   -1.260821
     86          1           0      -12.567543   -1.505755   -0.830097
     87          1           0      -13.741048   -0.006213   -1.085479
     88          1           0      -12.943985    0.249209   -3.343487
     89          1           0      -11.782028   -1.260107   -3.148478
     90          1           0      -13.650708   -1.289482   -3.093296
     91          1           0       -9.510249   -5.005112    0.110132
     92          1           0       -9.346176   -4.386642   -1.912581
     93          1           0       -8.280323   -5.607831   -0.812664
     94          1           0       -3.864399   -3.655753   -0.244048
     95          1           0       -1.370864   -6.010094    2.362916
     96          1           0       -1.641520   -4.443548    3.411385
     97          1           0       -3.019670   -5.592117    3.245104
     98          1           0        2.637775   -2.179684   -1.569263
     99          1           0        2.529888   -0.475988   -2.335777
    100          1           0        4.247825   -1.499465    0.257959
    101          1           0        5.458304    1.733234   -2.181530
    102          1           0        5.187764    0.166581   -3.466659
    103          1           0        3.866503    0.991216   -2.746252
    104          1           0        6.475438    1.386401   -0.400377
    105          1           0        6.381333   -0.062358    0.725048
    106          1           0        7.508043   -1.494042   -1.368801
    107          1           0        7.828180    0.171388   -2.003342
    108          1           0        8.850290    0.816409    0.041354
    109          1           0        8.871933   -0.798164    0.737059
    110          1           0       10.128108   -0.177515   -1.886054
    111          1           0        9.508044   -2.597849   -2.175767
    112          1           0       11.154477   -2.582234   -1.667205
    113          1           0       10.125179   -2.906835   -0.323239
    114          1           0       11.195914    0.846251    0.242184
    115          1           0       11.179425   -1.145729    0.859541
    116          1           0       12.636805   -1.676360   -1.081161
    117          1           0       12.750172   -0.168807   -1.750554
    118          1           0       13.651677    0.909034    0.474188
    119          1           0       13.692907   -0.631018    1.164561
    120          1           0       15.174744    0.239550   -1.263037
    121          1           0       15.010979   -2.255306   -0.980578
    122          1           0       16.829677   -1.801268   -0.801308
    123          1           0       15.666905   -1.901346    0.591864
    124          1           0       15.803962    1.527272    0.437249
    125          1           0       16.536588    0.212459    1.634168
    126          1           0       17.953651   -0.455136    0.077085
    127          1           0       17.775380    1.049787   -1.111006
    128          1           0       18.453003    2.577948    0.809952
    129          1           0       18.711086    1.046890    1.891183
    130          1           0       20.533855    0.551904    0.396675
    131          1           0       19.769215    3.402229   -1.154072
    132          1           0       21.432070    2.204277   -1.110084
    133          1           0       19.801929    1.846591   -1.745668
    134          1           0       20.889767    2.109855    2.472344
    135          1           0       21.965206    2.702808    1.222526
    136          1           0       20.485610    3.649464    1.471560
    137          1           0       -7.157599    1.797961    0.083457
    138          1           0       -7.635993   -0.174218    0.054157
 ---------------------------------------------------------------------

 SCF Done:  E(RB3LYP) =  -2733.06163661     A.U. after   17 cycles

 Excitation energies and oscillator strengths:

 Excited State   1:      Singlet-A      2.0266 eV  611.80 nm  f=0.0995  <S**2>=0.000
     235 -> 237        0.49633
     235 -> 238       -0.17451
     236 -> 237       -0.32340
     236 -> 238       -0.33831
 This state for optimization and/or second-order correction.
 Total Energy, E(TD-HF/TD-KS) =  -2732.98716221
 Copying the excited state density for this state as the 1-particle RhoCI density.

 The electronic state is 1-A.
 Alpha  occ. eigenvalues --  -19.18578 -19.16265 -19.12867 -19.12715 -19.12686
 Alpha  occ. eigenvalues --  -14.36964 -14.35619 -14.31103 -14.30482 -10.32008
 Alpha  occ. eigenvalues --  -10.31123 -10.27855 -10.25617 -10.24856 -10.23844
 Alpha  occ. eigenvalues --  -10.23603 -10.23396 -10.23189 -10.22938 -10.22183
 Alpha  occ. eigenvalues --  -10.21714 -10.21583 -10.21540 -10.21463 -10.21461
 Alpha  occ. eigenvalues --  -10.21059 -10.20897 -10.20827 -10.20756 -10.20712
 Alpha  occ. eigenvalues --  -10.20684 -10.20673 -10.20552 -10.20426 -10.20276
 Alpha  occ. eigenvalues --  -10.20274 -10.20141 -10.20083 -10.20020 -10.19778
 Alpha  occ. eigenvalues --  -10.19306 -10.19257 -10.19232 -10.19178 -10.19162
 Alpha  occ. eigenvalues --  -10.19005 -10.18958 -10.18951 -10.18698 -10.18682
 Alpha  occ. eigenvalues --  -10.18659 -10.18540 -10.18524 -10.18516 -10.18475
 Alpha  occ. eigenvalues --  -10.18450 -10.18441 -10.18393 -10.18224 -10.18102
 Alpha  occ. eigenvalues --  -10.18001 -10.17805 -10.17716 -10.17019  -1.11715
 Alpha  occ. eigenvalues --   -1.09623  -1.06570  -1.02053  -1.01466  -0.98089
 Alpha  occ. eigenvalues --   -0.95716  -0.94649  -0.92814  -0.84115  -0.81987
 Alpha  occ. eigenvalues --   -0.81739  -0.81586  -0.81412  -0.81196  -0.80558
 Alpha  occ. eigenvalues --   -0.80298  -0.79319  -0.78993  -0.78964  -0.78200
 Alpha  occ. eigenvalues --   -0.76982  -0.75960  -0.75587  -0.74686  -0.74294
 Alpha  occ. eigenvalues --   -0.73344  -0.73116  -0.71907  -0.71403  -0.70731
 Alpha  occ. eigenvalues --   -0.70151  -0.69089  -0.68487  -0.67366  -0.67102
 Alpha  occ. eigenvalues --   -0.67095  -0.66557  -0.66353  -0.66073  -0.65352
 Alpha  occ. eigenvalues --   -0.64204  -0.62576  -0.62178  -0.61761  -0.61264
 Alpha  occ. eigenvalues --   -0.60974  -0.59099  -0.58204  -0.57612  -0.56898
 Alpha  occ. eigenvalues --   -0.56586  -0.56274  -0.55690  -0.55349  -0.55102
 Alpha  occ. eigenvalues --   -0.54339  -0.54327  -0.53614  -0.53343  -0.52720
 Alpha  occ. eigenvalues --   -0.52342  -0.51734  -0.51678  -0.51196  -0.50926
 Alpha  occ. eigenvalues --   -0.50448  -0.49772  -0.49162  -0.48533  -0.48165
 Alpha  occ. eigenvalues --   -0.48096  -0.47819  -0.47658  -0.47302  -0.47150
 Alpha  occ. eigenvalues --   -0.46787  -0.46485  -0.46423  -0.46142  -0.46022
 Alpha  occ. eigenvalues --   -0.45782  -0.45549  -0.45364  -0.45209  -0.44548
 Alpha  occ. eigenvalues --   -0.44373  -0.44279  -0.43914  -0.43572  -0.43541
 Alpha  occ. eigenvalues --   -0.43303  -0.43180  -0.42982  -0.42718  -0.42569
 Alpha  occ. eigenvalues --   -0.42491  -0.42095  -0.41907  -0.41834  -0.41389
 Alpha  occ. eigenvalues --   -0.41198  -0.41079  -0.40588  -0.40477  -0.40170
 Alpha  occ. eigenvalues --   -0.40056  -0.39962  -0.39818  -0.39762  -0.39505
 Alpha  occ. eigenvalues --   -0.39421  -0.39306  -0.38963  -0.38543  -0.38382
 Alpha  occ. eigenvalues --   -0.38308  -0.38042  -0.37636  -0.37463  -0.37325
 Alpha  occ. eigenvalues --   -0.37229  -0.37020  -0.36783  -0.36429  -0.36330
 Alpha  occ. eigenvalues --   -0.36168  -0.36084  -0.35955  -0.35841  -0.35501
 Alpha  occ. eigenvalues --   -0.35214  -0.35145  -0.34949  -0.34897  -0.34712
 Alpha  occ. eigenvalues --   -0.34510  -0.34477  -0.34336  -0.34004  -0.33635
 Alpha  occ. eigenvalues --   -0.33515  -0.33441  -0.33097  -0.32792  -0.32235
 Alpha  occ. eigenvalues --   -0.31966  -0.31768  -0.31628  -0.31516  -0.31342
 Alpha  occ. eigenvalues --   -0.30953  -0.30485  -0.30293  -0.30199  -0.29604
 Alpha  occ. eigenvalues --   -0.29116  -0.28657  -0.28344  -0.28007  -0.27976
 Alpha  occ. eigenvalues --   -0.27384  -0.27304  -0.26809  -0.26461  -0.25548
 Alpha  occ. eigenvalues --   -0.24998  -0.24205  -0.22819  -0.22554  -0.19705
 Alpha  occ. eigenvalues --   -0.19060
 Alpha virt. eigenvalues --   -0.10619  -0.08249  -0.03363  -0.02326  -0.00624
 Alpha virt. eigenvalues --   -0.00212   0.00434   0.00869   0.02899   0.03631
 Alpha virt. eigenvalues --    0.03728   0.04028   0.04246   0.04507   0.04842

 Mulliken charges:
               1
     1  C   -0.033140
     2  C   -0.061889
     3  C   -0.028558
     4  C   -0.068565
     5  N   -0.137718
     6  C   -0.066875
     7  C   -0.041406
     8  C    0.102476
     9  C    0.015851
    10  C    0.076692
    11  C    0.026754
    12  C    0.003065
    13  C    0.164735
    14  O   -0.221093
    15  O   -0.258666
    16  N   -0.136720
    17  C    0.063373
    18  C   -0.165705
    19  C    0.086589
    20  C    0.061023
    21  C    0.148767
    22  C   -0.102535
    23  C   -0.017476
    24  N   -0.273256
    25  C    0.091962
    26  C   -0.134830
    27  C   -0.021612
    28  C   -0.047851
    29  C    0.058460
    30  C   -0.036729
    31  C    0.011929
    32  N   -0.096405
    33  C    0.197291
    34  C   -0.179331
    35  C   -0.007173
    36  C    0.094680
    37  C    0.082669
    38  C    0.040343
    39  O   -0.103286
    40  C    0.058754
    41  C    0.169230
    42  O   -0.167170
    43  O   -0.332994
    44  C    0.153893
    45  C    0.228519
    46  C   -0.112913
    47  C   -0.100841
    48  C    0.002641
    49  C    0.025588
    50  C    0.053012
    51  C   -0.044598
    52  C   -0.070942
    53  C    0.027236
    54  C   -0.014893
    55  C   -0.023837
    56  C    0.049716
    57  C   -0.026186
    58  C    0.079587
    59  C   -0.048324
    60  C    0.075666
    61  C    0.020851
    62  C   -0.151298
    63  C    0.034946
    64  C    0.022689
    65  H   -0.047772
    66  H   -0.024108
    67  H   -0.045831
    68  H   -0.011267
    69  H   -0.098144
    70  H   -0.002876
    71  H    0.005951
    72  H    0.029184
    73  H    0.051375
    74  H    0.035733
    75  H    0.020577
    76  H    0.079045
    77  H    0.049010
    78  H   -0.031553
    79  H    0.056127
    80  H   -0.000859
    81  H    0.013270
    82  H    0.002768
    83  H    0.026808
    84  H    0.031170
    85  H    0.015900
    86  H    0.033463
    87  H    0.012867
    88  H    0.009322
    89  H    0.028310
    90  H    0.010279
    91  H    0.045787
    92  H    0.069627
    93  H    0.032843
    94  H   -0.011700
    95  H    0.055642
    96  H    0.024846
    97  H    0.019438
    98  H    0.020310
    99  H    0.020413
   100  H    0.007604
   101  H    0.024080
   102  H    0.050468
   103  H    0.015576
   104  H    0.016563
   105  H    0.015867
   106  H    0.008129
   107  H    0.006802
   108  H   -0.009059
   109  H   -0.015616
   110  H   -0.019414
   111  H    0.029664
   112  H   -0.006089
   113  H    0.006729
   114  H    0.031557
   115  H    0.026377
   116  H   -0.002949
   117  H   -0.013604
   118  H   -0.026623
   119  H   -0.020522
   120  H   -0.041684
   121  H   -0.004441
   122  H    0.023954
   123  H   -0.013055
   124  H   -0.008156
   125  H    0.005386
   126  H   -0.009737
   127  H    0.008446
   128  H   -0.010133
   129  H    0.000457
   130  H   -0.000754
   131  H    0.023256
   132  H    0.035462
   133  H   -0.008206
   134  H    0.010054
   135  H   -0.001633
   136  H    0.010382
   137  H    0.133954
   138  H    0.200782
 Sum of Mulliken charges =   0.00000

 Dipole moment (field-independent basis, Debye):
    X=              1.2379    Y=              3.5713    Z=             -0.5501  Tot=              3.8196
 Quadrupole moment (field-independent basis, Debye-Ang):
   XX=           -354.2164   YY=           -377.1207   ZZ=           -398.6749
   XY=            -18.4207   XZ=              5.9790   YZ=             -0.7570

 Normal termination of Gaussian 09 at Sat Aug  3 06:25:12 2019.
