 Gaussian 09, Revision D.01,
 Gaussian 09:  ES64L-G09RevD.01 24-Apr-2013

 --------------------------
 # td=(NStates=1) B3LYP/SVP
 --------------------------

 --
 TD
 --
 Symbolic Z-matrix:
 Charge =  0 Multiplicity = 1

                         Standard orientation:
 ---------------------------------------------------------------------
 Center     Atomic      Atomic             Coordinates (Angstroms)
 Number     Number       Type             X           Y           Z
 ---------------------------------------------------------------------
      1          6           0       -5.027495   -1.909251    0.476032
      2          6           0       -4.899431    2.805880    1.276723
      3          6           0       -9.574610    3.211947   -0.192665
      4          6           0       -9.789890   -1.629013   -0.729502
      5          7           0       -5.212090    0.474237    0.864736
      6          6           0       -4.436294   -0.627512    0.683611
      7          6           0       -3.038177   -0.439127    1.071680
      8          6           0       -3.108211    1.100823    1.632155
      9          6           0       -4.466372    1.545781    1.184641
     10          6           0       -2.822679    1.197582    3.173025
     11          6           0       -2.066994   -0.801097    0.029932
     12          6           0       -0.498281   -0.509943    0.361281
     13          6           0        0.395023   -0.776088   -0.767923
     14          8           0        0.121646   -1.351037   -1.792253
     15          8           0        1.675944   -0.600200   -0.343382
     16          7           0       -7.204742    2.737503    0.440661
     17          6           0       -6.099379    3.415790    0.809605
     18          6           0       -6.414955    4.836858    0.955726
     19          6           0       -7.721634    4.953870    0.437058
     20          6           0       -8.264487    3.601074    0.204131
     21          6           0       -5.500864    5.775840    1.520348
     22          6           0       -8.508713    6.216514    0.366851
     23          6           0       -9.415300    6.535469   -0.573719
     24          7           0       -9.291705    0.741852   -0.340933
     25          6           0      -10.068077    1.950596   -0.403880
     26          6           0      -11.463555    1.603385   -0.931926
     27          6           0      -11.513910    0.288437   -1.149756
     28          6           0      -10.204945   -0.267588   -0.818769
     29          6           0      -12.488418    2.676849   -1.096648
     30          6           0      -12.652549   -0.512505   -1.619250
     31          6           0      -12.641333   -0.939500   -3.229198
     32          7           0       -7.487019   -1.373807   -0.152677
     33          6           0       -8.575750   -2.148633   -0.451662
     34          6           0       -8.123398   -3.569169   -0.489999
     35          6           0       -6.760527   -3.480728   -0.213379
     36          6           0       -6.352723   -2.099875    0.064762
     37          6           0       -8.966412   -4.895155   -0.685296
     38          6           0       -5.443748   -4.267356    0.083573
     39          8           0       -5.340343   -5.460781    0.108783
     40          6           0       -4.362323   -3.241301    0.391265
     41          6           0       -3.688434   -3.690409    1.692161
     42          8           0       -3.967313   -3.203600    2.741435
     43          8           0       -2.624520   -4.637634    1.566312
     44          6           0       -1.917900   -5.016184    2.699139
     45          6           0        2.732869   -0.911858   -1.242425
     46          6           0        4.031358   -0.701397   -0.571192
     47          6           0        4.990359    0.139413   -1.076316
     48          6           0        5.058354    0.946953   -2.388677
     49          6           0        6.178231    0.291899   -0.260543
     50          6           0        7.565599   -0.302017   -0.920720
     51          6           0        8.835602   -0.152269   -0.053689
     52          6           0       10.115303   -0.740901   -0.709576
     53          6           0        9.903267   -2.356168   -0.704488
     54          6           0       11.308813   -0.257054    0.011711
     55          6           0       12.698468   -0.803174   -0.480215
     56          6           0       13.699103   -0.087335    0.254999
     57          6           0       15.191529   -0.351058   -0.313747
     58          6           0       15.665475   -1.751437    0.088543
     59          6           0       16.165578    0.742342    0.338601
     60          6           0       17.555695    0.720476   -0.284373
     61          6           0       18.536155    1.725719    0.487414
     62          6           0       19.978797    1.685620   -0.011307
     63          6           0       20.312192    2.084659   -1.483835
     64          6           0       20.864135    2.494921    0.986726
     65          1           0       -4.181946    3.615365    1.659490
     66          1           0      -10.320938    4.074134   -0.224015
     67          1           0      -10.657387   -2.228520   -1.051183
     68          1           0       -2.902533   -1.151190    2.092491
     69          1           0       -2.302767    1.637007    1.005668
     70          1           0       -1.868418    0.987022    3.368153
     71          1           0       -3.138837    2.209958    3.430144
     72          1           0       -3.473492    0.642643    3.823620
     73          1           0       -2.197451   -1.700787   -0.482494
     74          1           0       -2.321837   -0.180979   -0.947780
     75          1           0       -0.339203    0.503657    0.884481
     76          1           0       -0.265256   -0.929223    1.345714
     77          1           0       -4.533861    5.720108    0.787343
     78          1           0       -6.156170    6.670122    1.490366
     79          1           0       -5.162175    5.364941    2.506128
     80          1           0       -8.172165    7.043818    0.972599
     81          1           0       -9.625216    5.619158   -1.296805
     82          1           0       -9.989965    7.570997   -0.645514
     83          1           0      -12.393815    3.413467   -0.155702
     84          1           0      -12.230044    3.529021   -1.919131
     85          1           0      -13.472634    2.299890   -1.139738
     86          1           0      -12.673874   -1.445961   -1.295088
     87          1           0      -13.323504    0.139173   -1.423223
     88          1           0      -12.996905   -0.013376   -3.821806
     89          1           0      -11.728818   -1.295082   -3.504292
     90          1           0      -13.626422   -1.431669   -3.369013
     91          1           0       -9.498496   -4.945364    0.179513
     92          1           0       -9.465592   -4.801188   -1.703950
     93          1           0       -8.265262   -5.626758   -1.022733
     94          1           0       -3.500358   -3.411211   -0.296388
     95          1           0       -1.457373   -5.976890    2.264846
     96          1           0       -1.174614   -4.291817    2.907320
     97          1           0       -2.455742   -5.255452    3.355488
     98          1           0        2.586486   -1.961215   -1.452639
     99          1           0        2.334983   -0.508181   -2.299803
    100          1           0        4.173196   -0.971240    0.655799
    101          1           0        5.077347    1.973616   -2.173586
    102          1           0        5.914355    0.533164   -2.909740
    103          1           0        4.238580    0.633094   -3.245988
    104          1           0        6.342158    1.492460   -0.296042
    105          1           0        6.061742   -0.032372    0.709252
    106          1           0        7.401805   -1.248428   -1.183509
    107          1           0        7.783039    0.325100   -1.909737
    108          1           0        9.009472    0.978553   -0.070598
    109          1           0        8.870844   -0.511438    1.035369
    110          1           0       10.188753   -0.411249   -1.762369
    111          1           0        9.031691   -2.786821   -1.378305
    112          1           0       10.895185   -2.824056   -1.319497
    113          1           0        9.910785   -2.868822    0.231458
    114          1           0       11.196751    0.919399   -0.160112
    115          1           0       11.156784   -0.276971    1.151326
    116          1           0       12.680481   -1.938959   -0.094474
    117          1           0       12.815224   -0.703273   -1.577939
    118          1           0       13.700522    0.999742    0.299621
    119          1           0       13.590607   -0.129328    1.426109
    120          1           0       15.295834   -0.043825   -1.280802
    121          1           0       14.957056   -2.591848   -0.405041
    122          1           0       16.799036   -2.111849   -0.161278
    123          1           0       15.583570   -1.938492    1.177304
    124          1           0       15.763752    1.660311    0.032238
    125          1           0       16.137523    0.682568    1.445604
    126          1           0       18.190006   -0.198107   -0.240801
    127          1           0       17.598418    0.904747   -1.368376
    128          1           0       18.345513    2.687514    0.574857
    129          1           0       18.523483    1.518457    1.444795
    130          1           0       20.409400    0.606177    0.191973
    131          1           0       20.048010    3.182336   -1.730781
    132          1           0       21.427475    2.015102   -1.619634
    133          1           0       19.611784    1.317892   -2.022453
    134          1           0       20.825324    2.031057    2.150595
    135          1           0       21.800799    2.542944    0.591003
    136          1           0       20.471058    3.448687    0.999389
    137          1           0       -7.173330    1.741077    0.206559
    138          1           0       -7.681689   -0.406614    0.073962
 ---------------------------------------------------------------------

 SCF Done:  E(RB3LYP) =  -2733.00024837     A.U. after   17 cycles

 Excitation energies and oscillator strengths:

 Excited State   1:      Singlet-A      2.0534 eV  603.79 nm  f=0.1553  <S**2>=0.000
     235 -> 238       -0.32380
     236 -> 237        0.62633
 This state for optimization and/or second-order correction.
 Total Energy, E(TD-HF/TD-KS) =  -2732.92478612
 Copying the excited state density for this state as the 1-particle RhoCI density.

 The electronic state is 1-A.
 Alpha  occ. eigenvalues --  -19.16666 -19.16262 -19.13160 -19.12860 -19.12669
 Alpha  occ. eigenvalues --  -14.37057 -14.36484 -14.31694 -14.30491 -10.31854
 Alpha  occ. eigenvalues --  -10.31582 -10.28525 -10.24528 -10.23830 -10.23603
 Alpha  occ. eigenvalues --  -10.23488 -10.23123 -10.22998 -10.22170 -10.22135
 Alpha  occ. eigenvalues --  -10.22066 -10.21774 -10.21487 -10.21358 -10.21187
 Alpha  occ. eigenvalues --  -10.20978 -10.20943 -10.20863 -10.20858 -10.20757
 Alpha  occ. eigenvalues --  -10.20601 -10.20574 -10.20474 -10.20461 -10.20358
 Alpha  occ. eigenvalues --  -10.20269 -10.20216 -10.20198 -10.19947 -10.19874
 Alpha  occ. eigenvalues --  -10.19813 -10.19771 -10.19604 -10.19523 -10.19440
 Alpha  occ. eigenvalues --  -10.19412 -10.19405 -10.19404 -10.19386 -10.19367
 Alpha  occ. eigenvalues --  -10.19319 -10.19151 -10.18997 -10.18984 -10.18871
 Alpha  occ. eigenvalues --  -10.18711 -10.18447 -10.18427 -10.18159 -10.18039
 Alpha  occ. eigenvalues --  -10.17812 -10.17325 -10.17191 -10.15543  -1.09309
 Alpha  occ. eigenvalues --   -1.08495  -1.03944  -1.01268  -1.00881  -0.98061
 Alpha  occ. eigenvalues --   -0.97894  -0.94423  -0.90170  -0.85241  -0.82539
 Alpha  occ. eigenvalues --   -0.82013  -0.81856  -0.81059  -0.80728  -0.80434
 Alpha  occ. eigenvalues --   -0.79816  -0.79348  -0.79237  -0.78864  -0.77441
 Alpha  occ. eigenvalues --   -0.77102  -0.76087  -0.75727  -0.74778  -0.74059
 Alpha  occ. eigenvalues --   -0.73521  -0.73044  -0.72210  -0.71168  -0.70855
 Alpha  occ. eigenvalues --   -0.70627  -0.70035  -0.69111  -0.68146  -0.67682
 Alpha  occ. eigenvalues --   -0.67275  -0.66612  -0.66014  -0.65841  -0.64906
 Alpha  occ. eigenvalues --   -0.64049  -0.63434  -0.63113  -0.62132  -0.61851
 Alpha  occ. eigenvalues --   -0.61131  -0.59491  -0.58217  -0.57699  -0.57347
 Alpha  occ. eigenvalues --   -0.57107  -0.56671  -0.56187  -0.55917  -0.55083
 Alpha  occ. eigenvalues --   -0.54988  -0.54658  -0.54296  -0.53827  -0.53622
 Alpha  occ. eigenvalues --   -0.52808  -0.52236  -0.51250  -0.50854  -0.50698
 Alpha  occ. eigenvalues --   -0.49779  -0.49608  -0.49159  -0.48821  -0.48240
 Alpha  occ. eigenvalues --   -0.48116  -0.47616  -0.47412  -0.47253  -0.47089
 Alpha  occ. eigenvalues --   -0.46774  -0.46544  -0.46223  -0.46141  -0.45781
 Alpha  occ. eigenvalues --   -0.45556  -0.45322  -0.45268  -0.44963  -0.44757
 Alpha  occ. eigenvalues --   -0.44545  -0.44442  -0.44280  -0.43984  -0.43848
 Alpha  occ. eigenvalues --   -0.43601  -0.43474  -0.43243  -0.42717  -0.42599
 Alpha  occ. eigenvalues --   -0.42318  -0.42108  -0.42029  -0.41818  -0.41717
 Alpha  occ. eigenvalues --   -0.41356  -0.41123  -0.40959  -0.40630  -0.40253
 Alpha  occ. eigenvalues --   -0.40137  -0.40002  -0.39970  -0.39879  -0.39607
 Alpha  occ. eigenvalues --   -0.39447  -0.39242  -0.38760  -0.38583  -0.38384
 Alpha  occ. eigenvalues --   -0.38279  -0.38070  -0.37978  -0.37752  -0.37726
 Alpha  occ. eigenvalues --   -0.37421  -0.37377  -0.36925  -0.36692  -0.36289
 Alpha  occ. eigenvalues --   -0.36226  -0.36018  -0.35932  -0.35880  -0.35567
 Alpha  occ. eigenvalues --   -0.35300  -0.35172  -0.35088  -0.35019  -0.34726
 Alpha  occ. eigenvalues --   -0.34523  -0.34395  -0.34276  -0.34121  -0.34009
 Alpha  occ. eigenvalues --   -0.33815  -0.33240  -0.33045  -0.33017  -0.32341
 Alpha  occ. eigenvalues --   -0.32139  -0.32052  -0.31910  -0.31555  -0.30914
 Alpha  occ. eigenvalues --   -0.30747  -0.30553  -0.30291  -0.30140  -0.29863
 Alpha  occ. eigenvalues --   -0.29461  -0.28830  -0.28307  -0.27988  -0.27629
 Alpha  occ. eigenvalues --   -0.27346  -0.26810  -0.26736  -0.26353  -0.26137
 Alpha  occ. eigenvalues --   -0.25167  -0.24122  -0.23637  -0.22520  -0.19636
 Alpha  occ. eigenvalues --   -0.18595
 Alpha virt. eigenvalues --   -0.09849  -0.07576  -0.03900  -0.01842  -0.01052
 Alpha virt. eigenvalues --   -0.00524  -0.00486   0.00284   0.01507   0.03466
 Alpha virt. eigenvalues --    0.03944   0.04036   0.04285   0.04524   0.04724

 Mulliken charges:
               1
     1  C    0.042983
     2  C   -0.085009
     3  C   -0.081213
     4  C   -0.073813
     5  N   -0.177223
     6  C   -0.050469
     7  C   -0.100940
     8  C   -0.049299
     9  C    0.020120
    10  C    0.155393
    11  C    0.066527
    12  C    0.003260
    13  C    0.229606
    14  O   -0.228511
    15  O   -0.326763
    16  N   -0.034046
    17  C    0.050200
    18  C   -0.164130
    19  C    0.026047
    20  C    0.069462
    21  C    0.074003
    22  C   -0.039910
    23  C   -0.095805
    24  N   -0.336507
    25  C    0.082059
    26  C   -0.102019
    27  C   -0.081345
    28  C    0.010539
    29  C    0.042998
    30  C    0.205507
    31  C   -0.005440
    32  N   -0.019233
    33  C    0.108605
    34  C   -0.222119
    35  C   -0.031226
    36  C    0.071860
    37  C    0.187838
    38  C    0.086101
    39  O   -0.142800
    40  C   -0.021505
    41  C    0.184574
    42  O   -0.192944
    43  O   -0.360144
    44  C    0.333668
    45  C    0.238991
    46  C   -0.108663
    47  C   -0.142909
    48  C    0.072476
    49  C    0.075835
    50  C    0.037592
    51  C    0.001961
    52  C   -0.034136
    53  C   -0.063871
    54  C   -0.054051
    55  C    0.121436
    56  C   -0.013426
    57  C   -0.010426
    58  C   -0.022460
    59  C    0.051047
    60  C    0.018759
    61  C    0.183540
    62  C   -0.186007
    63  C   -0.007051
    64  C    0.059813
    65  H   -0.015311
    66  H    0.002289
    67  H   -0.031037
    68  H    0.062280
    69  H    0.005937
    70  H   -0.016386
    71  H   -0.008132
    72  H    0.015344
    73  H   -0.010584
    74  H    0.005558
    75  H    0.020858
    76  H    0.022177
    77  H    0.057350
    78  H    0.027153
    79  H    0.047162
    80  H   -0.008028
    81  H    0.051210
    82  H    0.055838
    83  H    0.031416
    84  H    0.041332
    85  H    0.009403
    86  H   -0.034026
    87  H   -0.067888
    88  H    0.004649
    89  H    0.021262
    90  H    0.016261
    91  H    0.035333
    92  H    0.020397
    93  H    0.019561
    94  H    0.066316
    95  H    0.029680
    96  H    0.009362
    97  H   -0.077801
    98  H   -0.005021
    99  H    0.039338
   100  H    0.045867
   101  H    0.030015
   102  H    0.021745
   103  H    0.023045
   104  H    0.003630
   105  H   -0.026401
   106  H   -0.032625
   107  H    0.016206
   108  H   -0.006391
   109  H    0.010063
   110  H   -0.011647
   111  H    0.035195
   112  H    0.014868
   113  H    0.014064
   114  H   -0.001822
   115  H   -0.000079
   116  H    0.034300
   117  H    0.005532
   118  H   -0.032301
   119  H   -0.008828
   120  H   -0.035678
   121  H    0.017498
   122  H    0.027624
   123  H    0.008097
   124  H   -0.020248
   125  H   -0.002301
   126  H   -0.006408
   127  H   -0.005986
   128  H   -0.074750
   129  H   -0.072462
   130  H   -0.000175
   131  H    0.018925
   132  H    0.025775
   133  H    0.034800
   134  H    0.023756
   135  H   -0.025085
   136  H   -0.021680
   137  H    0.149838
   138  H    0.133382
 Sum of Mulliken charges =   0.00000

 Dipole moment (field-independent basis, Debye):
    X=              1.9329    Y=              4.3323    Z=              0.4755  Tot=              4.7677
 Quadrupole moment (field-independent basis, Debye-Ang):
   XX=           -354.3733   YY=           -387.0972   ZZ=           -394.1237
   XY=            -11.3173   XZ=             10.1646   YZ=              0.0184

 Normal termination of Gaussian 09 at Thu Aug  1 08:43:34 2019.
