 Gaussian 09, Revision D.01,
 Gaussian 09:  ES64L-G09RevD.01 24-Apr-2013

 --------------------------
 # td=(NStates=1) B3LYP/SVP
 --------------------------

 --
 TD
 --
 Symbolic Z-matrix:
 Charge =  0 Multiplicity = 1

                         Standard orientation:
 ---------------------------------------------------------------------
 Center     Atomic      Atomic             Coordinates (Angstroms)
 Number     Number       Type             X           Y           Z
 ---------------------------------------------------------------------
      1          6           0       -5.074520   -1.899453    0.399335
      2          6           0       -4.782343    2.790035    1.401757
      3          6           0       -9.377556    3.287801   -0.210973
      4          6           0       -9.709100   -1.506845   -0.958747
      5          7           0       -5.234634    0.469344    0.870438
      6          6           0       -4.482330   -0.743138    0.833805
      7          6           0       -3.040075   -0.463058    1.227070
      8          6           0       -3.110957    0.977342    1.848068
      9          6           0       -4.380124    1.438508    1.338280
     10          6           0       -2.981406    1.049603    3.274914
     11          6           0       -2.053773   -0.632023    0.168253
     12          6           0       -0.681015   -0.759133    0.655419
     13          6           0        0.288567   -1.046275   -0.459051
     14          8           0        0.095282   -1.621702   -1.511801
     15          8           0        1.511420   -0.508948   -0.173528
     16          7           0       -7.132183    2.677842    0.699693
     17          6           0       -6.051445    3.323352    1.209303
     18          6           0       -6.366336    4.706102    1.213722
     19          6           0       -7.650843    4.899244    0.509278
     20          6           0       -8.139021    3.556314    0.298910
     21          6           0       -5.420357    5.885735    1.510694
     22          6           0       -8.398890    6.130691    0.224500
     23          6           0       -9.231327    6.381346   -0.768959
     24          7           0       -9.226497    0.839146   -0.498734
     25          6           0       -9.892557    1.991309   -0.604244
     26          6           0      -11.297184    1.805529   -0.970904
     27          6           0      -11.442533    0.411327   -1.280899
     28          6           0      -10.043855   -0.128798   -0.928488
     29          6           0      -12.278500    2.916827   -1.119518
     30          6           0      -12.528400   -0.434869   -1.705171
     31          6           0      -12.493195   -0.712494   -3.197090
     32          7           0       -7.411793   -1.299207   -0.317530
     33          6           0       -8.476140   -2.072028   -0.767842
     34          6           0       -8.055551   -3.441146   -0.777773
     35          6           0       -6.746168   -3.428874   -0.275262
     36          6           0       -6.436062   -2.087173    0.031596
     37          6           0       -8.879604   -4.655324   -1.098465
     38          6           0       -5.703053   -4.305995   -0.037629
     39          8           0       -5.560793   -5.536855    0.104657
     40          6           0       -4.492109   -3.324817    0.486245
     41          6           0       -3.903383   -3.784087    1.817068
     42          8           0       -4.332809   -3.380409    2.903113
     43          8           0       -2.991828   -4.715903    1.636861
     44          6           0       -2.413592   -5.339078    2.812798
     45          6           0        2.637709   -0.847468   -1.172859
     46          6           0        3.884716   -0.603251   -0.588813
     47          6           0        4.869646    0.239292   -1.093436
     48          6           0        4.960242    0.830716   -2.413076
     49          6           0        6.173050    0.447353   -0.327733
     50          6           0        7.457773   -0.237033   -0.918198
     51          6           0        8.868249    0.131073   -0.227139
     52          6           0       10.046674   -0.453827   -0.816863
     53          6           0        9.939745   -2.023289   -0.938170
     54          6           0       11.344865   -0.028956   -0.074639
     55          6           0       12.749033   -0.409455   -0.731154
     56          6           0       13.833237    0.033911    0.202130
     57          6           0       15.225515   -0.233945   -0.422560
     58          6           0       15.506587   -1.838336   -0.550018
     59          6           0       16.409198    0.501532    0.390754
     60          6           0       17.735211    0.561161   -0.148012
     61          6           0       18.748813    1.431043    0.610980
     62          6           0       20.133516    1.453630    0.149985
     63          6           0       20.263665    2.117970   -1.244709
     64          6           0       21.078792    2.092821    1.114156
     65          1           0       -4.103878    3.387506    1.798001
     66          1           0      -10.081655    3.976705   -0.508790
     67          1           0      -10.278108   -2.304764   -1.288653
     68          1           0       -2.754855   -1.143743    1.990772
     69          1           0       -2.286818    1.677331    1.337529
     70          1           0       -1.972317    0.828168    3.773630
     71          1           0       -2.965080    2.076415    3.649144
     72          1           0       -3.879261    0.571869    3.842758
     73          1           0       -2.255313   -1.757677   -0.209022
     74          1           0       -2.140116   -0.028351   -0.741010
     75          1           0       -0.359932    0.253156    0.962776
     76          1           0       -0.429965   -1.432741    1.557830
     77          1           0       -4.706771    6.069597    0.470512
     78          1           0       -6.085242    6.805149    1.732413
     79          1           0       -4.980844    5.745243    2.362036
     80          1           0       -8.152839    6.897691    1.038732
     81          1           0       -9.365458    5.724511   -1.596714
     82          1           0       -9.605879    7.335840   -1.020935
     83          1           0      -12.582014    3.435727    0.019394
     84          1           0      -11.934106    3.698436   -1.825798
     85          1           0      -13.201554    2.719820   -1.736485
     86          1           0      -12.495928   -1.276696   -1.259797
     87          1           0      -13.510548   -0.047583   -1.533262
     88          1           0      -12.572739    0.126831   -3.582808
     89          1           0      -11.488407   -1.105010   -3.540547
     90          1           0      -13.345678   -1.411362   -3.501793
     91          1           0       -9.700772   -4.930724   -0.359074
     92          1           0       -9.541580   -4.691427   -2.098062
     93          1           0       -8.116756   -5.586807   -1.045081
     94          1           0       -3.584020   -3.561129   -0.312718
     95          1           0       -1.634264   -5.894624    2.425694
     96          1           0       -2.175592   -4.436915    3.485267
     97          1           0       -3.112769   -5.979557    3.285487
     98          1           0        2.290185   -2.027620   -1.412750
     99          1           0        2.565793   -0.286725   -2.028158
    100          1           0        4.051306   -0.845092    0.619787
    101          1           0        5.193448    1.848603   -2.483327
    102          1           0        5.520992    0.349681   -3.172109
    103          1           0        3.902571    0.735182   -2.839563
    104          1           0        6.359511    1.508510   -0.317460
    105          1           0        5.954413    0.110589    0.880470
    106          1           0        7.170823   -1.204312   -0.958339
    107          1           0        7.574025    0.036695   -1.827599
    108          1           0        8.889826    1.220368   -0.048331
    109          1           0        8.632207   -0.353092    0.700777
    110          1           0       10.148266   -0.087921   -1.770065
    111          1           0        8.949705   -2.539614   -1.317283
    112          1           0       10.818238   -2.597970   -1.436614
    113          1           0        9.943260   -2.414157    0.123092
    114          1           0       11.389243    1.027058    0.352575
    115          1           0       11.302174   -0.657436    0.811275
    116          1           0       12.757060   -1.424031   -0.913584
    117          1           0       12.594047    0.028681   -1.647860
    118          1           0       13.697350    0.983955    0.651097
    119          1           0       13.885450   -0.597439    1.252448
    120          1           0       15.305108    0.132617   -1.531954
    121          1           0       14.851638   -2.255538   -1.280025
    122          1           0       16.432210   -1.733310   -1.134570
    123          1           0       15.752834   -2.452341    0.311745
    124          1           0       16.013173    1.696225    0.280022
    125          1           0       16.390146    0.073766    1.422053
    126          1           0       18.170934   -0.460418   -0.560618
    127          1           0       17.731721    0.951003   -1.170710
    128          1           0       18.203908    2.327584    0.893553
    129          1           0       18.656182    0.908465    1.552083
    130          1           0       20.630027    0.406848   -0.072458
    131          1           0       19.639907    3.014339   -1.191610
    132          1           0       21.270431    2.442384   -1.463044
    133          1           0       19.864961    1.496982   -2.017931
    134          1           0       21.128481    1.793938    2.116529
    135          1           0       22.128980    2.054121    0.969014
    136          1           0       20.698611    3.131961    1.316604
    137          1           0       -7.190136    1.623016    0.589605
    138          1           0       -7.451382   -0.114183   -0.173428
 ---------------------------------------------------------------------

 SCF Done:  E(RB3LYP) =  -2733.05149391     A.U. after   17 cycles

 Excitation energies and oscillator strengths:

 Excited State   1:      Singlet-A      2.0571 eV  602.72 nm  f=0.1471  <S**2>=0.000
     235 -> 237       -0.26397
     235 -> 238       -0.25428
     236 -> 237        0.56756
     236 -> 238       -0.18954
 This state for optimization and/or second-order correction.
 Total Energy, E(TD-HF/TD-KS) =  -2732.97589733
 Copying the excited state density for this state as the 1-particle RhoCI density.

 The electronic state is 1-A.
 Alpha  occ. eigenvalues --  -19.17607 -19.16463 -19.11979 -19.11523 -19.10929
 Alpha  occ. eigenvalues --  -14.37347 -14.36818 -14.32548 -14.30468 -10.30835
 Alpha  occ. eigenvalues --  -10.30626 -10.27207 -10.24787 -10.24083 -10.23740
 Alpha  occ. eigenvalues --  -10.23526 -10.23172 -10.22800 -10.22756 -10.22670
 Alpha  occ. eigenvalues --  -10.21974 -10.21886 -10.21597 -10.21359 -10.21241
 Alpha  occ. eigenvalues --  -10.21132 -10.21029 -10.20962 -10.20917 -10.20877
 Alpha  occ. eigenvalues --  -10.20824 -10.20583 -10.20532 -10.20523 -10.20176
 Alpha  occ. eigenvalues --  -10.20138 -10.19882 -10.19789 -10.19714 -10.19700
 Alpha  occ. eigenvalues --  -10.19538 -10.19509 -10.19505 -10.19358 -10.19303
 Alpha  occ. eigenvalues --  -10.19236 -10.19224 -10.19025 -10.18939 -10.18880
 Alpha  occ. eigenvalues --  -10.18684 -10.18662 -10.18221 -10.18131 -10.18106
 Alpha  occ. eigenvalues --  -10.17983 -10.17584 -10.17467 -10.17110 -10.17034
 Alpha  occ. eigenvalues --  -10.17014 -10.16916 -10.16895 -10.16659  -1.09027
 Alpha  occ. eigenvalues --   -1.07291  -1.00331  -0.99139  -0.98642  -0.98526
 Alpha  occ. eigenvalues --   -0.97588  -0.94131  -0.93287  -0.84249  -0.83313
 Alpha  occ. eigenvalues --   -0.82699  -0.82273  -0.81857  -0.81668  -0.81097
 Alpha  occ. eigenvalues --   -0.80706  -0.80111  -0.79757  -0.79678  -0.78210
 Alpha  occ. eigenvalues --   -0.77314  -0.76500  -0.76112  -0.75729  -0.75012
 Alpha  occ. eigenvalues --   -0.74153  -0.73852  -0.72932  -0.72017  -0.70905
 Alpha  occ. eigenvalues --   -0.70504  -0.68885  -0.68380  -0.68177  -0.67842
 Alpha  occ. eigenvalues --   -0.67258  -0.67245  -0.66305  -0.66194  -0.65308
 Alpha  occ. eigenvalues --   -0.64630  -0.63626  -0.62940  -0.62902  -0.61956
 Alpha  occ. eigenvalues --   -0.61265  -0.59693  -0.58908  -0.58212  -0.58157
 Alpha  occ. eigenvalues --   -0.56973  -0.56947  -0.55984  -0.55682  -0.55139
 Alpha  occ. eigenvalues --   -0.54919  -0.54734  -0.54421  -0.53832  -0.53417
 Alpha  occ. eigenvalues --   -0.52950  -0.51853  -0.51788  -0.50772  -0.50341
 Alpha  occ. eigenvalues --   -0.49237  -0.49017  -0.48744  -0.48649  -0.48561
 Alpha  occ. eigenvalues --   -0.48144  -0.47835  -0.47548  -0.47425  -0.47159
 Alpha  occ. eigenvalues --   -0.47011  -0.46639  -0.46481  -0.46123  -0.46038
 Alpha  occ. eigenvalues --   -0.45935  -0.45345  -0.45172  -0.45136  -0.45020
 Alpha  occ. eigenvalues --   -0.44795  -0.44644  -0.44504  -0.43676  -0.43626
 Alpha  occ. eigenvalues --   -0.43615  -0.43315  -0.43093  -0.42780  -0.42715
 Alpha  occ. eigenvalues --   -0.42501  -0.42259  -0.42104  -0.41779  -0.41757
 Alpha  occ. eigenvalues --   -0.41618  -0.41365  -0.41249  -0.40658  -0.40326
 Alpha  occ. eigenvalues --   -0.40251  -0.40044  -0.39804  -0.39447  -0.39257
 Alpha  occ. eigenvalues --   -0.39104  -0.38931  -0.38672  -0.38515  -0.38461
 Alpha  occ. eigenvalues --   -0.38157  -0.38117  -0.37858  -0.37519  -0.37466
 Alpha  occ. eigenvalues --   -0.37273  -0.36936  -0.36790  -0.36581  -0.36390
 Alpha  occ. eigenvalues --   -0.36347  -0.36240  -0.36199  -0.35753  -0.35582
 Alpha  occ. eigenvalues --   -0.35484  -0.35328  -0.35283  -0.35254  -0.35015
 Alpha  occ. eigenvalues --   -0.34856  -0.34575  -0.34425  -0.34147  -0.34121
 Alpha  occ. eigenvalues --   -0.34069  -0.33933  -0.33541  -0.33495  -0.33299
 Alpha  occ. eigenvalues --   -0.33088  -0.32366  -0.32182  -0.31019  -0.30708
 Alpha  occ. eigenvalues --   -0.30462  -0.30410  -0.30055  -0.29747  -0.29714
 Alpha  occ. eigenvalues --   -0.29422  -0.28985  -0.28250  -0.28226  -0.28034
 Alpha  occ. eigenvalues --   -0.27566  -0.27109  -0.26496  -0.26326  -0.25712
 Alpha  occ. eigenvalues --   -0.24352  -0.24028  -0.23732  -0.22477  -0.19779
 Alpha  occ. eigenvalues --   -0.19147
 Alpha virt. eigenvalues --   -0.10532  -0.07959  -0.04694  -0.02439  -0.01931
 Alpha virt. eigenvalues --    0.00020   0.00468   0.00684   0.02003   0.03949
 Alpha virt. eigenvalues --    0.04132   0.04207   0.04348   0.04467   0.04761

 Mulliken charges:
               1
     1  C    0.024797
     2  C   -0.005856
     3  C   -0.056000
     4  C   -0.023740
     5  N   -0.247336
     6  C   -0.021711
     7  C    0.085137
     8  C   -0.035364
     9  C   -0.016171
    10  C    0.064992
    11  C    0.025225
    12  C    0.046432
    13  C    0.161513
    14  O   -0.240962
    15  O   -0.360957
    16  N   -0.092425
    17  C    0.152668
    18  C   -0.194899
    19  C   -0.013566
    20  C    0.205794
    21  C    0.126548
    22  C   -0.032578
    23  C   -0.002286
    24  N   -0.201887
    25  C   -0.004268
    26  C   -0.131220
    27  C   -0.111530
    28  C    0.085358
    29  C    0.016326
    30  C    0.218463
    31  C    0.063816
    32  N   -0.088326
    33  C    0.017156
    34  C   -0.049695
    35  C    0.017263
    36  C    0.062099
    37  C   -0.033838
    38  C    0.061519
    39  O   -0.209117
    40  C   -0.144590
    41  C    0.204584
    42  O   -0.266776
    43  O   -0.285424
    44  C    0.215656
    45  C    0.280586
    46  C   -0.088570
    47  C   -0.163377
    48  C    0.107623
    49  C    0.015675
    50  C    0.116329
    51  C    0.042504
    52  C    0.062056
    53  C   -0.068946
    54  C   -0.053711
    55  C    0.148552
    56  C    0.053760
    57  C   -0.129672
    58  C    0.045450
    59  C   -0.007013
    60  C    0.008521
    61  C    0.089684
    62  C   -0.082074
    63  C    0.060329
    64  C    0.081197
    65  H   -0.103730
    66  H   -0.073345
    67  H   -0.063204
    68  H   -0.029675
    69  H    0.017224
    70  H    0.016446
    71  H   -0.011700
    72  H    0.043803
    73  H    0.028659
    74  H    0.010950
    75  H    0.012918
    76  H    0.052989
    77  H    0.069032
    78  H    0.014726
    79  H   -0.024030
    80  H    0.020046
    81  H    0.020563
    82  H    0.012986
    83  H    0.053586
    84  H    0.023822
    85  H    0.010044
    86  H   -0.065366
    87  H   -0.022067
    88  H   -0.064046
    89  H    0.011520
    90  H    0.017243
    91  H    0.044086
    92  H    0.045384
    93  H    0.069692
    94  H    0.078047
    95  H    0.019458
    96  H    0.045370
    97  H    0.030796
    98  H    0.063860
    99  H   -0.015693
   100  H    0.028905
   101  H    0.004795
   102  H    0.028419
   103  H   -0.009491
   104  H   -0.011702
   105  H    0.009340
   106  H   -0.024147
   107  H   -0.068873
   108  H   -0.002913
   109  H   -0.018838
   110  H   -0.040803
   111  H    0.032122
   112  H    0.030516
   113  H    0.004561
   114  H    0.004194
   115  H   -0.023648
   116  H   -0.031031
   117  H   -0.029593
   118  H   -0.025829
   119  H   -0.001241
   120  H    0.001116
   121  H    0.000952
   122  H   -0.012375
   123  H    0.021133
   124  H    0.014696
   125  H    0.007538
   126  H   -0.007988
   127  H   -0.037068
   128  H   -0.020548
   129  H   -0.029813
   130  H    0.001363
   131  H   -0.009320
   132  H   -0.000196
   133  H    0.006930
   134  H   -0.030562
   135  H   -0.008357
   136  H   -0.012857
   137  H    0.157337
   138  H    0.239153
 Sum of Mulliken charges =   0.00000

 Dipole moment (field-independent basis, Debye):
    X=              2.6360    Y=              4.9951    Z=             -0.4646  Tot=              5.6670
 Quadrupole moment (field-independent basis, Debye-Ang):
   XX=           -342.9621   YY=           -385.0360   ZZ=           -390.9059
   XY=            -26.3920   XZ=             13.5935   YZ=             -2.2256

 Normal termination of Gaussian 09 at Mon Jul 29 12:29:32 2019.
