 Gaussian 09, Revision D.01,
 Gaussian 09:  ES64L-G09RevD.01 24-Apr-2013

 --------------------------
 # td=(NStates=1) B3LYP/SVP
 --------------------------

 --
 TD
 --
 Symbolic Z-matrix:
 Charge =  0 Multiplicity = 1

                         Standard orientation:
 ---------------------------------------------------------------------
 Center     Atomic      Atomic             Coordinates (Angstroms)
 Number     Number       Type             X           Y           Z
 ---------------------------------------------------------------------
      1          6           0       -5.119315   -1.825685    0.439876
      2          6           0       -4.755578    2.811720    1.359432
      3          6           0       -9.444860    3.221417   -0.181217
      4          6           0       -9.846496   -1.619680   -0.860173
      5          7           0       -5.144780    0.451173    0.697494
      6          6           0       -4.396039   -0.719993    0.820772
      7          6           0       -2.995708   -0.590971    1.244618
      8          6           0       -3.036756    0.962094    1.791854
      9          6           0       -4.387102    1.432203    1.163438
     10          6           0       -3.015298    1.030418    3.293899
     11          6           0       -2.053361   -0.691783    0.056636
     12          6           0       -0.572475   -0.732761    0.391112
     13          6           0        0.392310   -1.010024   -0.739973
     14          8           0        0.154159   -1.443561   -1.848580
     15          8           0        1.605602   -0.685306   -0.303615
     16          7           0       -7.031801    2.734381    0.363890
     17          6           0       -5.961170    3.345668    0.945497
     18          6           0       -6.280371    4.787616    1.062553
     19          6           0       -7.629757    4.911467    0.451313
     20          6           0       -8.054537    3.584378    0.153585
     21          6           0       -5.448433    5.825491    1.430076
     22          6           0       -8.200938    6.179367    0.338191
     23          6           0       -9.125389    6.598424   -0.561388
     24          7           0       -9.215672    0.677581   -0.391635
     25          6           0       -9.892702    1.883863   -0.481288
     26          6           0      -11.314812    1.686202   -0.948966
     27          6           0      -11.396643    0.294665   -1.177926
     28          6           0      -10.114385   -0.216478   -0.777385
     29          6           0      -12.308356    2.883926   -0.924685
     30          6           0      -12.684179   -0.502391   -1.565930
     31          6           0      -12.670973   -0.508440   -3.175645
     32          7           0       -7.522931   -1.284320   -0.125101
     33          6           0       -8.574003   -2.191417   -0.590228
     34          6           0       -8.173737   -3.482249   -0.528575
     35          6           0       -6.652098   -3.454632   -0.186369
     36          6           0       -6.408688   -2.055016    0.020284
     37          6           0       -8.993606   -4.807593   -0.985094
     38          6           0       -5.590495   -4.245943    0.136974
     39          8           0       -5.485928   -5.483056    0.329531
     40          6           0       -4.425769   -3.191271    0.414880
     41          6           0       -3.832394   -3.629314    1.688804
     42          8           0       -4.151130   -3.259078    2.822857
     43          8           0       -2.891514   -4.586085    1.413017
     44          6           0       -2.488019   -5.287265    2.591313
     45          6           0        2.673078   -0.864341   -1.371520
     46          6           0        3.967963   -0.491273   -0.665651
     47          6           0        4.994048    0.201127   -1.170416
     48          6           0        4.987480    0.983921   -2.436912
     49          6           0        6.212167    0.505799   -0.313522
     50          6           0        7.462226   -0.244383   -0.980640
     51          6           0        8.778390   -0.065292   -0.192514
     52          6           0        9.992126   -0.622187   -0.771677
     53          6           0       10.029827   -2.174378   -0.925168
     54          6           0       11.274544   -0.124271    0.033714
     55          6           0       12.592660   -0.558609   -0.557204
     56          6           0       13.795835    0.006087    0.355990
     57          6           0       15.174519   -0.278052   -0.248611
     58          6           0       15.576761   -1.815570   -0.338538
     59          6           0       16.285406    0.580232    0.418065
     60          6           0       17.698989    0.548718   -0.097691
     61          6           0       18.557989    1.479799    0.713482
     62          6           0       20.046531    1.540516    0.120472
     63          6           0       20.187949    2.030629   -1.286508
     64          6           0       20.891357    2.186357    1.037550
     65          1           0       -4.104885    3.427120    1.964886
     66          1           0      -10.190805    3.825738   -0.349324
     67          1           0      -10.778139   -2.032551   -1.250497
     68          1           0       -2.594490   -1.328773    1.999875
     69          1           0       -2.001060    1.338133    1.425765
     70          1           0       -2.010373    0.904578    3.763479
     71          1           0       -3.556567    1.883041    3.713822
     72          1           0       -3.736472    0.245447    3.672437
     73          1           0       -2.451501   -1.507255   -0.494770
     74          1           0       -1.963903    0.195748   -0.710673
     75          1           0       -0.137645    0.199947    1.051513
     76          1           0       -0.377009   -1.487913    1.357486
     77          1           0       -4.684157    5.861134    0.830889
     78          1           0       -5.823874    6.857151    1.192782
     79          1           0       -5.221679    5.649955    2.481476
     80          1           0       -7.922902    6.749335    1.197231
     81          1           0       -9.303669    6.081077   -1.199162
     82          1           0       -9.358652    7.637520   -0.365054
     83          1           0      -12.852900    3.037420    0.122057
     84          1           0      -11.799715    3.852414   -1.500299
     85          1           0      -13.256642    2.661952   -1.721263
     86          1           0      -12.448785   -1.542355   -1.218684
     87          1           0      -13.601445   -0.032774   -0.872835
     88          1           0      -12.675352    0.637508   -3.504122
     89          1           0      -11.820174   -0.909269   -3.295998
     90          1           0      -13.298491   -1.057680   -3.830337
     91          1           0       -9.902641   -4.653827   -0.391582
     92          1           0       -9.298855   -4.906970   -2.090857
     93          1           0       -8.428269   -5.764130   -0.571925
     94          1           0       -3.626902   -3.127631   -0.196417
     95          1           0       -1.889387   -6.054449    2.211628
     96          1           0       -1.846699   -4.584337    3.174674
     97          1           0       -3.308978   -5.871970    3.097144
     98          1           0        2.720311   -1.933559   -1.460452
     99          1           0        2.336373   -0.256689   -2.060034
    100          1           0        4.112890   -0.946403    0.400248
    101          1           0        5.489238    2.013641   -2.571119
    102          1           0        5.437243    0.325913   -3.106311
    103          1           0        4.001851    1.004208   -2.891392
    104          1           0        6.363874    1.615146    0.003670
    105          1           0        6.032872    0.166332    0.794871
    106          1           0        7.029776   -1.212606   -1.225908
    107          1           0        7.748158    0.215027   -2.006356
    108          1           0        8.853405    0.851601    0.109602
    109          1           0        8.536340   -0.499152    0.734671
    110          1           0       10.126481   -0.259356   -1.836659
    111          1           0        9.257917   -2.518339   -1.759457
    112          1           0       11.000129   -2.294131   -1.456526
    113          1           0       10.037039   -2.749784   -0.002216
    114          1           0       11.004730    0.969875    0.013418
    115          1           0       11.146744   -0.322035    1.163129
    116          1           0       12.691083   -1.601091   -0.687473
    117          1           0       12.723829   -0.384040   -1.632889
    118          1           0       13.568303    1.092647    0.392725
    119          1           0       13.641535   -0.418152    1.268731
    120          1           0       15.248437    0.084319   -1.272337
    121          1           0       14.779019   -2.534860   -0.821215
    122          1           0       16.412637   -1.860050   -0.705168
    123          1           0       15.583508   -2.180946    0.631429
    124          1           0       15.775050    1.591243    0.537552
    125          1           0       16.235282    0.184076    1.501839
    126          1           0       18.133918   -0.437874    0.019069
    127          1           0       17.592940    0.785794   -1.236040
    128          1           0       18.082628    2.570260    0.417373
    129          1           0       18.614855    1.293203    1.737630
    130          1           0       20.342609    0.536247    0.208190
    131          1           0       19.721380    3.027717   -1.375318
    132          1           0       21.244837    2.069474   -1.534814
    133          1           0       19.898749    1.384693   -1.995257
    134          1           0       20.769118    2.062789    2.182955
    135          1           0       22.138487    2.127558    0.938311
    136          1           0       20.675799    3.415988    1.029639
    137          1           0       -6.976884    1.723940    0.588474
    138          1           0       -7.668987   -0.286019   -0.445974
 ---------------------------------------------------------------------

 SCF Done:  E(RB3LYP) =  -2732.93582816     A.U. after   17 cycles

 Excitation energies and oscillator strengths:

 Excited State   1:      Singlet-A      2.0197 eV  613.86 nm  f=0.1490  <S**2>=0.000
     235 -> 237       -0.23474
     235 -> 238        0.23216
     236 -> 237        0.59468
     236 -> 238        0.17961
 This state for optimization and/or second-order correction.
 Total Energy, E(TD-HF/TD-KS) =  -2732.86160440
 Copying the excited state density for this state as the 1-particle RhoCI density.

 The electronic state is 1-A.
 Alpha  occ. eigenvalues --  -19.17102 -19.16871 -19.12121 -19.11450 -19.10556
 Alpha  occ. eigenvalues --  -14.37691 -14.35944 -14.33307 -14.30193 -10.31266
 Alpha  occ. eigenvalues --  -10.30345 -10.26420 -10.25280 -10.24463 -10.24147
 Alpha  occ. eigenvalues --  -10.23876 -10.23522 -10.23334 -10.23262 -10.23107
 Alpha  occ. eigenvalues --  -10.22991 -10.22388 -10.22334 -10.22254 -10.22170
 Alpha  occ. eigenvalues --  -10.21400 -10.21342 -10.21114 -10.20995 -10.20915
 Alpha  occ. eigenvalues --  -10.20697 -10.20397 -10.20334 -10.20262 -10.20261
 Alpha  occ. eigenvalues --  -10.20126 -10.20031 -10.20022 -10.19773 -10.19735
 Alpha  occ. eigenvalues --  -10.19553 -10.19552 -10.19540 -10.19454 -10.19182
 Alpha  occ. eigenvalues --  -10.19036 -10.19020 -10.18999 -10.18988 -10.18945
 Alpha  occ. eigenvalues --  -10.18919 -10.18873 -10.18812 -10.18603 -10.18348
 Alpha  occ. eigenvalues --  -10.18336 -10.18253 -10.17892 -10.17880 -10.17830
 Alpha  occ. eigenvalues --  -10.17476 -10.16809 -10.16328 -10.16142  -1.08943
 Alpha  occ. eigenvalues --   -1.07761  -0.99785  -0.99420  -0.99101  -0.98738
 Alpha  occ. eigenvalues --   -0.96284  -0.94967  -0.93803  -0.85281  -0.83578
 Alpha  occ. eigenvalues --   -0.82772  -0.82374  -0.81823  -0.81541  -0.81218
 Alpha  occ. eigenvalues --   -0.80189  -0.79442  -0.78794  -0.78665  -0.77822
 Alpha  occ. eigenvalues --   -0.77437  -0.76617  -0.75824  -0.75430  -0.74443
 Alpha  occ. eigenvalues --   -0.73740  -0.73280  -0.72865  -0.72217  -0.71836
 Alpha  occ. eigenvalues --   -0.70122  -0.68909  -0.68760  -0.68617  -0.68074
 Alpha  occ. eigenvalues --   -0.67818  -0.66960  -0.66347  -0.66273  -0.65459
 Alpha  occ. eigenvalues --   -0.65268  -0.63560  -0.62716  -0.62292  -0.61906
 Alpha  occ. eigenvalues --   -0.61279  -0.58972  -0.58486  -0.58251  -0.57942
 Alpha  occ. eigenvalues --   -0.57479  -0.56104  -0.56007  -0.55663  -0.55414
 Alpha  occ. eigenvalues --   -0.55283  -0.54620  -0.54261  -0.53781  -0.53037
 Alpha  occ. eigenvalues --   -0.52515  -0.52222  -0.51592  -0.51208  -0.50635
 Alpha  occ. eigenvalues --   -0.50307  -0.49333  -0.49257  -0.48811  -0.48783
 Alpha  occ. eigenvalues --   -0.48333  -0.47717  -0.47613  -0.47277  -0.47159
 Alpha  occ. eigenvalues --   -0.46970  -0.46755  -0.46361  -0.46107  -0.46010
 Alpha  occ. eigenvalues --   -0.45862  -0.45331  -0.45205  -0.45069  -0.44923
 Alpha  occ. eigenvalues --   -0.44780  -0.44631  -0.44322  -0.44074  -0.43700
 Alpha  occ. eigenvalues --   -0.43484  -0.43385  -0.42991  -0.42876  -0.42578
 Alpha  occ. eigenvalues --   -0.42435  -0.42231  -0.42193  -0.41667  -0.41446
 Alpha  occ. eigenvalues --   -0.41315  -0.41170  -0.40990  -0.40779  -0.40715
 Alpha  occ. eigenvalues --   -0.40552  -0.40292  -0.39760  -0.39679  -0.39639
 Alpha  occ. eigenvalues --   -0.39470  -0.38986  -0.38660  -0.38638  -0.38427
 Alpha  occ. eigenvalues --   -0.38136  -0.37998  -0.37927  -0.37868  -0.37739
 Alpha  occ. eigenvalues --   -0.37604  -0.37325  -0.37059  -0.36743  -0.36641
 Alpha  occ. eigenvalues --   -0.36446  -0.36089  -0.35891  -0.35763  -0.35531
 Alpha  occ. eigenvalues --   -0.35441  -0.35275  -0.35013  -0.34784  -0.34752
 Alpha  occ. eigenvalues --   -0.34593  -0.34551  -0.34201  -0.34091  -0.33938
 Alpha  occ. eigenvalues --   -0.33659  -0.33194  -0.32841  -0.32819  -0.32336
 Alpha  occ. eigenvalues --   -0.32251  -0.32148  -0.31572  -0.31181  -0.31062
 Alpha  occ. eigenvalues --   -0.30888  -0.30570  -0.30477  -0.30046  -0.29935
 Alpha  occ. eigenvalues --   -0.29526  -0.29314  -0.28764  -0.28428  -0.27965
 Alpha  occ. eigenvalues --   -0.27799  -0.27246  -0.26961  -0.26548  -0.25104
 Alpha  occ. eigenvalues --   -0.25012  -0.23931  -0.23494  -0.23207  -0.20342
 Alpha  occ. eigenvalues --   -0.19222
 Alpha virt. eigenvalues --   -0.11182  -0.08043  -0.05572  -0.02299  -0.00624
 Alpha virt. eigenvalues --   -0.00055   0.00143   0.00535   0.02386   0.03333
 Alpha virt. eigenvalues --    0.03695   0.04447   0.04778   0.04798   0.05130

 Mulliken charges:
               1
     1  C    0.051058
     2  C   -0.079351
     3  C    0.034475
     4  C   -0.046837
     5  N   -0.179536
     6  C   -0.084039
     7  C   -0.030721
     8  C   -0.080513
     9  C    0.023889
    10  C    0.065552
    11  C    0.079257
    12  C   -0.090626
    13  C    0.200049
    14  O   -0.240609
    15  O   -0.347120
    16  N   -0.018806
    17  C    0.077538
    18  C   -0.176903
    19  C    0.055606
    20  C    0.123872
    21  C    0.181024
    22  C   -0.141680
    23  C    0.229802
    24  N   -0.223968
    25  C    0.018203
    26  C   -0.109286
    27  C   -0.138035
    28  C   -0.006998
    29  C   -0.054948
    30  C    0.009258
    31  C    0.089747
    32  N   -0.094901
    33  C    0.155940
    34  C   -0.109961
    35  C    0.029281
    36  C    0.116450
    37  C    0.029960
    38  C    0.031047
    39  O   -0.231863
    40  C    0.010238
    41  C    0.166672
    42  O   -0.253146
    43  O   -0.313926
    44  C    0.207007
    45  C    0.413543
    46  C   -0.154165
    47  C   -0.148649
    48  C    0.135560
    49  C    0.000484
    50  C   -0.036850
    51  C    0.223786
    52  C   -0.103941
    53  C    0.017898
    54  C   -0.000593
    55  C    0.050395
    56  C    0.085544
    57  C   -0.061337
    58  C    0.137817
    59  C   -0.037039
    60  C    0.069497
    61  C   -0.003820
    62  C   -0.007238
    63  C    0.127334
    64  C   -0.081005
    65  H   -0.016343
    66  H   -0.131522
    67  H   -0.037562
    68  H    0.036215
    69  H    0.012549
    70  H    0.027423
    71  H   -0.002392
    72  H    0.024625
    73  H    0.003940
    74  H    0.026376
    75  H    0.052257
    76  H    0.038241
    77  H   -0.018396
    78  H    0.007873
    79  H    0.036350
    80  H    0.001529
    81  H   -0.163209
    82  H    0.024608
    83  H    0.073441
    84  H    0.067144
    85  H    0.033630
    86  H    0.013922
    87  H    0.048988
    88  H    0.033652
    89  H   -0.047840
    90  H    0.008004
    91  H    0.025737
    92  H    0.058116
    93  H    0.068914
    94  H   -0.001854
    95  H   -0.000958
    96  H    0.027488
    97  H    0.047703
    98  H    0.027338
    99  H   -0.023271
   100  H    0.019376
   101  H    0.044999
   102  H   -0.005277
   103  H   -0.017915
   104  H    0.016999
   105  H   -0.003769
   106  H    0.010492
   107  H    0.002974
   108  H   -0.083795
   109  H   -0.047979
   110  H   -0.012896
   111  H    0.016655
   112  H    0.000646
   113  H    0.015839
   114  H   -0.006481
   115  H   -0.000808
   116  H   -0.022674
   117  H   -0.022982
   118  H   -0.001751
   119  H   -0.027936
   120  H   -0.027443
   121  H    0.015961
   122  H   -0.067775
   123  H   -0.025132
   124  H   -0.003510
   125  H   -0.020205
   126  H   -0.007585
   127  H    0.013239
   128  H    0.005665
   129  H   -0.011498
   130  H   -0.033110
   131  H    0.011247
   132  H   -0.010564
   133  H   -0.030777
   134  H    0.013190
   135  H    0.022509
   136  H   -0.007649
   137  H    0.168406
   138  H    0.179226
 Sum of Mulliken charges =   0.00000

 Dipole moment (field-independent basis, Debye):
    X=              2.6241    Y=              6.1104    Z=              0.0180  Tot=              6.6501
 Quadrupole moment (field-independent basis, Debye-Ang):
   XX=           -345.8045   YY=           -389.1679   ZZ=           -393.3712
   XY=            -41.4262   XZ=              8.1354   YZ=              4.8784

 Normal termination of Gaussian 09 at Sun Aug  4 16:19:02 2019.
