 Gaussian 09, Revision D.01,
 Gaussian 09:  ES64L-G09RevD.01 24-Apr-2013

 --------------------------
 # td=(NStates=1) B3LYP/SVP
 --------------------------

 --
 TD
 --
 Symbolic Z-matrix:
 Charge =  0 Multiplicity = 1

                         Standard orientation:
 ---------------------------------------------------------------------
 Center     Atomic      Atomic             Coordinates (Angstroms)
 Number     Number       Type             X           Y           Z
 ---------------------------------------------------------------------
      1          6           0       -5.212759   -1.975038    0.465814
      2          6           0       -4.554358    2.634787    1.430124
      3          6           0       -9.087160    3.477276   -0.336447
      4          6           0       -9.941553   -1.281695   -0.963044
      5          7           0       -5.107745    0.402114    0.804869
      6          6           0       -4.556725   -0.793488    0.705509
      7          6           0       -3.044754   -0.618063    1.301746
      8          6           0       -3.013973    0.731908    1.919740
      9          6           0       -4.296372    1.346402    1.328344
     10          6           0       -2.903340    0.742319    3.479616
     11          6           0       -2.019432   -0.910160    0.170112
     12          6           0       -0.482312   -1.043030    0.615919
     13          6           0        0.369190   -1.534977   -0.380539
     14          8           0        0.167035   -2.048156   -1.507862
     15          8           0        1.672032   -1.073268   -0.110081
     16          7           0       -6.904874    2.796664    0.440914
     17          6           0       -5.703298    3.381951    1.066359
     18          6           0       -6.033010    4.780156    1.193759
     19          6           0       -7.368688    4.965473    0.577034
     20          6           0       -7.902781    3.697284    0.259525
     21          6           0       -5.130060    5.763229    1.650758
     22          6           0       -7.950481    6.337839    0.495829
     23          6           0       -8.803190    6.858149   -0.471092
     24          7           0       -9.249497    1.007982   -0.544854
     25          6           0       -9.784633    2.238203   -0.684678
     26          6           0      -11.182898    2.221654   -1.053963
     27          6           0      -11.437487    0.907749   -1.068672
     28          6           0      -10.172786    0.100088   -0.802654
     29          6           0      -12.139153    3.342966   -1.231287
     30          6           0      -12.798686    0.280935   -1.679809
     31          6           0      -12.723875    0.029815   -3.130365
     32          7           0       -7.589174   -1.205334   -0.315957
     33          6           0       -8.689353   -1.948385   -0.602898
     34          6           0       -8.403722   -3.340317   -0.590406
     35          6           0       -7.037198   -3.408190   -0.220657
     36          6           0       -6.579056   -2.032508    0.007090
     37          6           0       -9.298950   -4.433386   -0.971492
     38          6           0       -5.956979   -4.358281    0.034852
     39          8           0       -5.907866   -5.579223   -0.218818
     40          6           0       -4.680272   -3.301109    0.327946
     41          6           0       -4.003386   -3.967171    1.510036
     42          8           0       -4.299952   -3.587713    2.689574
     43          8           0       -3.178165   -4.975441    1.388666
     44          6           0       -2.689720   -5.618936    2.529187
     45          6           0        2.633136   -1.388501   -1.102648
     46          6           0        4.100993   -1.040288   -0.547600
     47          6           0        4.992617   -0.152102   -1.065169
     48          6           0        4.892222    0.496822   -2.320157
     49          6           0        6.250904   -0.012276   -0.239164
     50          6           0        7.584865   -0.529459   -0.938602
     51          6           0        8.784913   -0.283718   -0.101806
     52          6           0       10.102612   -0.714755   -0.784729
     53          6           0       10.071925   -2.215071   -1.003839
     54          6           0       11.400109   -0.297484    0.057227
     55          6           0       12.711061   -0.566261   -0.555622
     56          6           0       13.863347    0.123283    0.229057
     57          6           0       15.164871   -0.051761   -0.366739
     58          6           0       15.646437   -1.522268   -0.541130
     59          6           0       16.205505    0.789640    0.381012
     60          6           0       17.543229    1.022633   -0.361904
     61          6           0       18.558339    1.787955    0.563164
     62          6           0       20.055299    1.835561    0.119118
     63          6           0       20.140987    2.360524   -1.356825
     64          6           0       20.940463    2.445189    1.084732
     65          1           0       -3.894558    3.356550    1.780315
     66          1           0       -9.693671    4.364464   -0.396567
     67          1           0      -10.770465   -2.013859   -1.156960
     68          1           0       -2.853808   -1.514966    1.975020
     69          1           0       -1.922559    1.202685    1.437312
     70          1           0       -1.968793    0.205236    3.638360
     71          1           0       -3.243847    1.629654    3.884573
     72          1           0       -3.570982    0.043069    3.861489
     73          1           0       -2.379917   -1.897031   -0.242493
     74          1           0       -2.199925   -0.034137   -0.466049
     75          1           0       -0.075000   -0.211450    1.102326
     76          1           0       -0.640216   -1.768848    1.296071
     77          1           0       -4.277814    5.920195    0.955839
     78          1           0       -5.607522    6.684997    1.658032
     79          1           0       -4.752612    5.404183    2.763911
     80          1           0       -7.372641    6.907741    1.355116
     81          1           0       -8.898047    6.135217   -1.250653
     82          1           0       -9.205220    7.818241   -0.482330
     83          1           0      -12.354013    3.900221   -0.404103
     84          1           0      -11.773919    3.999699   -1.881340
     85          1           0      -13.193745    2.775915   -1.641979
     86          1           0      -13.098130   -0.739680   -1.173851
     87          1           0      -13.520231    1.015952   -1.549548
     88          1           0      -12.508513    0.921772   -3.714865
     89          1           0      -12.110191   -0.682102   -3.561139
     90          1           0      -13.689694   -0.178097   -3.707509
     91          1           0      -10.219893   -4.533969   -0.411702
     92          1           0       -9.590562   -4.447486   -1.951585
     93          1           0       -8.772747   -5.435204   -0.999903
     94          1           0       -3.849878   -3.541811   -0.467518
     95          1           0       -2.247023   -6.568692    2.336733
     96          1           0       -1.935215   -4.965677    2.971336
     97          1           0       -3.706453   -5.794311    3.111281
     98          1           0        2.541818   -2.590596   -1.297526
     99          1           0        2.531085   -0.654926   -1.958113
    100          1           0        4.134630   -1.522777    0.436034
    101          1           0        4.933290    1.713296   -2.053290
    102          1           0        5.625347    0.100054   -3.080780
    103          1           0        3.926779    0.239718   -2.900659
    104          1           0        6.616788    1.036080    0.000882
    105          1           0        6.017299   -0.539976    0.749860
    106          1           0        7.480333   -1.502779   -1.285632
    107          1           0        7.714610    0.224952   -1.898191
    108          1           0        8.877886    0.817448    0.077600
    109          1           0        8.629669   -0.777896    0.991334
    110          1           0       10.165991   -0.241183   -1.758663
    111          1           0        9.207827   -2.627013   -1.639542
    112          1           0       11.131127   -2.315396   -1.319558
    113          1           0        9.776278   -2.836697   -0.052662
    114          1           0       11.570726    0.820079    0.524005
    115          1           0       11.444075   -0.847546    1.128770
    116          1           0       12.717713   -1.634064   -0.693233
    117          1           0       12.700449   -0.116842   -1.510852
    118          1           0       13.699338    1.069067    0.259736
    119          1           0       13.738120   -0.265386    1.217906
    120          1           0       15.058460    0.264579   -1.363989
    121          1           0       14.747618   -2.155694   -1.109484
    122          1           0       16.639522   -1.596580   -1.277471
    123          1           0       15.730761   -2.089590    0.415393
    124          1           0       15.914708    1.782943    0.669114
    125          1           0       16.592313    0.102954    1.236007
    126          1           0       18.198033   -0.070358   -0.557383
    127          1           0       17.376242    1.647462   -1.402738
    128          1           0       18.203424    2.833077    0.587806
    129          1           0       18.466419    1.185992    1.493894
    130          1           0       20.339834    0.656938    0.079098
    131          1           0       19.601733    3.325562   -1.463109
    132          1           0       21.123230    2.312978   -1.701954
    133          1           0       19.291983    1.645898   -1.834137
    134          1           0       21.069105    1.875648    2.069401
    135          1           0       22.005781    2.452512    0.805777
    136          1           0       20.705604    3.581171    1.497204
    137          1           0       -6.993820    1.904988    0.345541
    138          1           0       -7.603686   -0.232802    0.101326
 ---------------------------------------------------------------------

 SCF Done:  E(RB3LYP) =  -2733.02448619     A.U. after   17 cycles

 Excitation energies and oscillator strengths:

 Excited State   1:      Singlet-A      2.0250 eV  612.26 nm  f=0.1786  <S**2>=0.000
     235 -> 237       -0.32114
     235 -> 238       -0.26128
     236 -> 237        0.53969
     236 -> 238       -0.18103
 This state for optimization and/or second-order correction.
 Total Energy, E(TD-HF/TD-KS) =  -2732.95006836
 Copying the excited state density for this state as the 1-particle RhoCI density.

 The electronic state is 1-A.
 Alpha  occ. eigenvalues --  -19.18208 -19.16539 -19.13303 -19.12285 -19.09942
 Alpha  occ. eigenvalues --  -14.38135 -14.35768 -14.32315 -14.30263 -10.31426
 Alpha  occ. eigenvalues --  -10.31167 -10.29169 -10.24927 -10.24837 -10.24787
 Alpha  occ. eigenvalues --  -10.24437 -10.24250 -10.23504 -10.23410 -10.23008
 Alpha  occ. eigenvalues --  -10.22799 -10.22597 -10.22416 -10.22251 -10.22176
 Alpha  occ. eigenvalues --  -10.21997 -10.21534 -10.21487 -10.21275 -10.20983
 Alpha  occ. eigenvalues --  -10.20858 -10.20813 -10.20624 -10.20442 -10.20283
 Alpha  occ. eigenvalues --  -10.20240 -10.20032 -10.20031 -10.19988 -10.19745
 Alpha  occ. eigenvalues --  -10.19704 -10.19675 -10.19667 -10.19647 -10.19552
 Alpha  occ. eigenvalues --  -10.19350 -10.19278 -10.19266 -10.19231 -10.19096
 Alpha  occ. eigenvalues --  -10.18991 -10.18869 -10.18833 -10.18821 -10.18726
 Alpha  occ. eigenvalues --  -10.18650 -10.18550 -10.18392 -10.18105 -10.18067
 Alpha  occ. eigenvalues --  -10.17983 -10.17339 -10.16989 -10.16217  -1.10641
 Alpha  occ. eigenvalues --   -1.07306  -1.01420  -0.99833  -0.98109  -0.97428
 Alpha  occ. eigenvalues --   -0.96691  -0.95199  -0.94917  -0.85278  -0.83288
 Alpha  occ. eigenvalues --   -0.82777  -0.82404  -0.81979  -0.81857  -0.81222
 Alpha  occ. eigenvalues --   -0.80747  -0.80360  -0.79981  -0.79266  -0.78440
 Alpha  occ. eigenvalues --   -0.77281  -0.76919  -0.76180  -0.75455  -0.74598
 Alpha  occ. eigenvalues --   -0.74318  -0.73710  -0.72736  -0.72292  -0.71988
 Alpha  occ. eigenvalues --   -0.70472  -0.69864  -0.69707  -0.69379  -0.67545
 Alpha  occ. eigenvalues --   -0.67340  -0.67248  -0.66645  -0.65726  -0.65270
 Alpha  occ. eigenvalues --   -0.64795  -0.63546  -0.62656  -0.62344  -0.61943
 Alpha  occ. eigenvalues --   -0.60407  -0.59263  -0.58810  -0.57806  -0.57135
 Alpha  occ. eigenvalues --   -0.56837  -0.56492  -0.55734  -0.55616  -0.55220
 Alpha  occ. eigenvalues --   -0.54731  -0.54457  -0.54293  -0.53459  -0.53080
 Alpha  occ. eigenvalues --   -0.52547  -0.52443  -0.51986  -0.51412  -0.50462
 Alpha  occ. eigenvalues --   -0.50271  -0.49931  -0.49838  -0.49548  -0.48930
 Alpha  occ. eigenvalues --   -0.48581  -0.47982  -0.47857  -0.47785  -0.47723
 Alpha  occ. eigenvalues --   -0.47585  -0.46614  -0.46384  -0.46348  -0.45980
 Alpha  occ. eigenvalues --   -0.45691  -0.45541  -0.45460  -0.45268  -0.45014
 Alpha  occ. eigenvalues --   -0.44810  -0.44698  -0.44328  -0.44245  -0.44137
 Alpha  occ. eigenvalues --   -0.43928  -0.43777  -0.43312  -0.43044  -0.42825
 Alpha  occ. eigenvalues --   -0.42734  -0.42653  -0.42613  -0.42190  -0.42053
 Alpha  occ. eigenvalues --   -0.41668  -0.41624  -0.41502  -0.41298  -0.41004
 Alpha  occ. eigenvalues --   -0.40926  -0.40424  -0.40342  -0.40111  -0.39888
 Alpha  occ. eigenvalues --   -0.39809  -0.39570  -0.39317  -0.39292  -0.38588
 Alpha  occ. eigenvalues --   -0.38472  -0.38384  -0.38151  -0.37908  -0.37702
 Alpha  occ. eigenvalues --   -0.37304  -0.37083  -0.36930  -0.36748  -0.36689
 Alpha  occ. eigenvalues --   -0.36263  -0.36151  -0.36050  -0.35676  -0.35575
 Alpha  occ. eigenvalues --   -0.35420  -0.35125  -0.34752  -0.34525  -0.34430
 Alpha  occ. eigenvalues --   -0.34327  -0.34059  -0.33981  -0.33393  -0.33341
 Alpha  occ. eigenvalues --   -0.33132  -0.32765  -0.32338  -0.32117  -0.32051
 Alpha  occ. eigenvalues --   -0.31515  -0.31463  -0.31182  -0.31087  -0.31046
 Alpha  occ. eigenvalues --   -0.30762  -0.30604  -0.30265  -0.29776  -0.29358
 Alpha  occ. eigenvalues --   -0.29324  -0.29182  -0.28730  -0.28550  -0.27607
 Alpha  occ. eigenvalues --   -0.27508  -0.27166  -0.26394  -0.26213  -0.25703
 Alpha  occ. eigenvalues --   -0.24912  -0.24008  -0.23974  -0.23537  -0.20486
 Alpha  occ. eigenvalues --   -0.19825
 Alpha virt. eigenvalues --   -0.11459  -0.08489  -0.05450  -0.03002  -0.01676
 Alpha virt. eigenvalues --   -0.00552   0.00000   0.00084   0.01485   0.03521
 Alpha virt. eigenvalues --    0.03550   0.03864   0.04195   0.04243   0.04735

 Mulliken charges:
               1
     1  C    0.143754
     2  C    0.017827
     3  C   -0.078927
     4  C   -0.034834
     5  N   -0.151159
     6  C   -0.076909
     7  C   -0.100717
     8  C   -0.100982
     9  C    0.040331
    10  C    0.188352
    11  C   -0.009717
    12  C    0.199734
    13  C    0.180097
    14  O   -0.259352
    15  O   -0.350115
    16  N   -0.022829
    17  C    0.055327
    18  C   -0.128210
    19  C   -0.026734
    20  C    0.130826
    21  C    0.094080
    22  C   -0.082125
    23  C    0.023215
    24  N   -0.185173
    25  C    0.021201
    26  C   -0.134822
    27  C   -0.119507
    28  C    0.049852
    29  C    0.187640
    30  C    0.108649
    31  C    0.022758
    32  N   -0.006608
    33  C   -0.000370
    34  C   -0.109515
    35  C   -0.006341
    36  C    0.012440
    37  C    0.132406
    38  C    0.115448
    39  O   -0.196722
    40  C   -0.133944
    41  C    0.170665
    42  O   -0.319906
    43  O   -0.250360
    44  C    0.178699
    45  C    0.220338
    46  C   -0.125789
    47  C   -0.081799
    48  C    0.018763
    49  C    0.061635
    50  C   -0.020871
    51  C    0.019291
    52  C   -0.008710
    53  C   -0.017556
    54  C   -0.072887
    55  C    0.045481
    56  C    0.155892
    57  C    0.012565
    58  C   -0.081910
    59  C    0.065136
    60  C   -0.138686
    61  C    0.025800
    62  C   -0.111184
    63  C    0.033811
    64  C    0.016397
    65  H   -0.059616
    66  H   -0.038364
    67  H    0.000754
    68  H    0.013792
    69  H    0.019165
    70  H    0.009201
    71  H   -0.007645
    72  H   -0.008609
    73  H    0.031786
    74  H    0.009995
    75  H    0.020651
    76  H   -0.019460
    77  H    0.042982
    78  H   -0.025638
    79  H    0.053328
    80  H    0.032325
    81  H    0.030345
    82  H    0.018731
    83  H    0.002054
    84  H   -0.021000
    85  H    0.031630
    86  H    0.014243
    87  H   -0.024596
    88  H   -0.015857
    89  H   -0.012916
    90  H   -0.004723
    91  H    0.023964
    92  H   -0.004260
    93  H    0.032369
    94  H    0.083672
    95  H    0.025957
    96  H    0.026027
    97  H    0.056662
    98  H    0.048879
    99  H    0.013327
   100  H   -0.005470
   101  H    0.049294
   102  H    0.043822
   103  H    0.014289
   104  H   -0.003994
   105  H    0.007951
   106  H   -0.014439
   107  H    0.010472
   108  H   -0.007273
   109  H    0.009794
   110  H   -0.011221
   111  H    0.027959
   112  H    0.016214
   113  H    0.012088
   114  H   -0.002306
   115  H   -0.004317
   116  H    0.012516
   117  H   -0.033203
   118  H   -0.071481
   119  H   -0.028727
   120  H   -0.039843
   121  H    0.021143
   122  H    0.045929
   123  H    0.016613
   124  H   -0.005945
   125  H    0.007611
   126  H    0.023159
   127  H    0.025545
   128  H   -0.001660
   129  H    0.001535
   130  H    0.000619
   131  H    0.004619
   132  H    0.009714
   133  H    0.023462
   134  H    0.002286
   135  H   -0.000119
   136  H    0.015272
   137  H    0.033700
   138  H    0.192098
 Sum of Mulliken charges =   0.00000

 Dipole moment (field-independent basis, Debye):
    X=             -0.0773    Y=              5.2464    Z=              0.8199  Tot=              5.3106
 Quadrupole moment (field-independent basis, Debye-Ang):
   XX=           -356.4679   YY=           -379.4503   ZZ=           -398.7440
   XY=            -25.6066   XZ=             12.1533   YZ=             -2.4778

 Normal termination of Gaussian 09 at Tue Jul 30 20:01:51 2019.
