 Gaussian 09, Revision D.01,
 Gaussian 09:  ES64L-G09RevD.01 24-Apr-2013

 --------------------------
 # td=(NStates=1) B3LYP/SVP
 --------------------------

 --
 TD
 --
 Symbolic Z-matrix:
 Charge =  0 Multiplicity = 1

                         Standard orientation:
 ---------------------------------------------------------------------
 Center     Atomic      Atomic             Coordinates (Angstroms)
 Number     Number       Type             X           Y           Z
 ---------------------------------------------------------------------
      1          6           0       -5.076081   -1.844587    0.456521
      2          6           0       -4.768657    2.778331    1.253059
      3          6           0       -9.437535    3.280619   -0.196057
      4          6           0       -9.826285   -1.600033   -0.629110
      5          7           0       -5.305926    0.454088    0.793964
      6          6           0       -4.497448   -0.656968    0.806025
      7          6           0       -3.026241   -0.471417    1.212485
      8          6           0       -3.057674    0.925818    1.717817
      9          6           0       -4.431425    1.462894    1.189589
     10          6           0       -2.787128    1.012079    3.245522
     11          6           0       -2.101265   -0.777602    0.040403
     12          6           0       -0.587350   -0.791636    0.502976
     13          6           0        0.374361   -0.989321   -0.646093
     14          8           0        0.047225   -1.395021   -1.758562
     15          8           0        1.649078   -0.658818   -0.272754
     16          7           0       -7.125541    2.752852    0.551550
     17          6           0       -5.989226    3.329850    0.920763
     18          6           0       -6.268065    4.768976    0.966559
     19          6           0       -7.538429    4.989097    0.455376
     20          6           0       -8.115058    3.604317    0.214713
     21          6           0       -5.296012    5.851573    1.466019
     22          6           0       -8.184921    6.287524    0.374630
     23          6           0       -9.155945    6.590230   -0.624721
     24          7           0       -9.221078    0.799767   -0.386432
     25          6           0       -9.834206    1.985969   -0.520175
     26          6           0      -11.350900    1.740131   -0.847198
     27          6           0      -11.478711    0.410635   -1.028780
     28          6           0      -10.166003   -0.207082   -0.643044
     29          6           0      -12.396946    2.865013   -1.014091
     30          6           0      -12.616121   -0.319683   -1.518967
     31          6           0      -12.625487   -0.461908   -3.107739
     32          7           0       -7.487927   -1.274243   -0.102320
     33          6           0       -8.633663   -2.093850   -0.433992
     34          6           0       -8.132520   -3.469552   -0.528880
     35          6           0       -6.808571   -3.346199   -0.062788
     36          6           0       -6.521902   -2.003326    0.031355
     37          6           0       -8.950417   -4.764267   -0.765101
     38          6           0       -5.777194   -4.298141    0.129290
     39          8           0       -5.619056   -5.499088    0.211781
     40          6           0       -4.481338   -3.285737    0.432539
     41          6           0       -3.672923   -3.780734    1.701393
     42          8           0       -3.800851   -3.310181    2.739016
     43          8           0       -2.948061   -4.831931    1.346818
     44          6           0       -2.243646   -5.516594    2.362139
     45          6           0        2.644223   -0.897434   -1.321691
     46          6           0        3.943912   -0.567788   -0.791741
     47          6           0        4.994967    0.175085   -1.353639
     48          6           0        4.862886    0.693596   -2.665923
     49          6           0        6.314979    0.440498   -0.609898
     50          6           0        7.328037   -0.376175   -1.168763
     51          6           0        8.733629    0.032770   -0.415552
     52          6           0       10.079213   -0.729110   -0.952634
     53          6           0        9.946183   -2.199037   -0.948571
     54          6           0       11.255623   -0.258362    0.053750
     55          6           0       12.772025   -0.616604   -0.489624
     56          6           0       13.832702   -0.022974    0.434454
     57          6           0       15.199183   -0.192720   -0.272348
     58          6           0       15.663879   -1.704815   -0.260420
     59          6           0       16.219954    0.702215    0.427397
     60          6           0       17.579160    0.777751   -0.096422
     61          6           0       18.539862    1.763179    0.720825
     62          6           0       19.998658    1.544327    0.254034
     63          6           0       20.328388    1.970171   -1.191678
     64          6           0       20.951402    2.226505    1.264022
     65          1           0       -3.824241    3.434932    1.505670
     66          1           0      -10.263109    3.994978   -0.232780
     67          1           0      -10.641228   -2.263438   -1.014032
     68          1           0       -2.880552   -1.159434    2.097500
     69          1           0       -2.189288    1.648809    1.135641
     70          1           0       -1.903214    0.504791    3.513344
     71          1           0       -2.885210    1.937258    3.563680
     72          1           0       -3.726183    0.402594    3.716371
     73          1           0       -2.343679   -1.641993   -0.626389
     74          1           0       -2.504682    0.104301   -0.567152
     75          1           0       -0.214697    0.230851    1.056970
     76          1           0       -0.256614   -1.682800    1.129837
     77          1           0       -4.205555    5.409084    1.094593
     78          1           0       -5.286076    7.089986    0.962178
     79          1           0       -5.100503    5.752631    2.543954
     80          1           0       -7.979690    6.790318    1.441933
     81          1           0       -9.261460    5.874824   -1.543140
     82          1           0       -9.707692    7.705099   -0.391184
     83          1           0      -12.290182    3.648564   -0.044788
     84          1           0      -12.463991    3.319507   -2.005319
     85          1           0      -13.549851    2.487424   -0.881626
     86          1           0      -12.799299   -1.302333   -0.865676
     87          1           0      -13.618657    0.196899   -1.284790
     88          1           0      -12.538614    0.729798   -3.448522
     89          1           0      -11.890693   -1.249014   -3.525987
     90          1           0      -13.622891   -0.784907   -3.573257
     91          1           0      -10.134665   -4.716039   -0.403110
     92          1           0       -9.002116   -5.073937   -1.977754
     93          1           0       -8.282143   -5.569947   -0.370374
     94          1           0       -3.754239   -3.386455   -0.540872
     95          1           0       -1.810936   -6.552626    1.708132
     96          1           0       -1.439789   -5.046421    2.938283
     97          1           0       -2.858002   -6.051895    3.262832
     98          1           0        2.495587   -1.885629   -1.330697
     99          1           0        2.363047   -0.542779   -2.333743
    100          1           0        4.030951   -0.802048    0.238464
    101          1           0        5.576077    1.554351   -2.777227
    102          1           0        5.340374    0.004972   -3.542847
    103          1           0        3.846498    0.777322   -2.980223
    104          1           0        6.528165    1.616983   -0.422725
    105          1           0        6.245487    0.112040    0.474696
    106          1           0        7.173990   -1.431798   -1.166555
    107          1           0        7.580091   -0.087069   -2.163780
    108          1           0        8.893941    1.176699   -0.639249
    109          1           0        8.641711   -0.084110    0.713163
    110          1           0       10.363797   -0.208626   -1.824750
    111          1           0        9.082075   -2.270777   -1.414106
    112          1           0       10.840447   -2.865115   -1.394846
    113          1           0        9.726753   -2.515565    0.020589
    114          1           0       11.245735    0.770481    0.305608
    115          1           0       11.277230   -0.942885    0.949386
    116          1           0       12.939792   -1.627008   -0.751584
    117          1           0       12.890009   -0.039633   -1.422758
    118          1           0       13.468173    1.174478    0.670641
    119          1           0       13.480438   -0.413703    1.331862
    120          1           0       15.107156    0.153724   -1.314117
    121          1           0       14.945077   -2.385055   -0.780824
    122          1           0       16.702850   -1.694367   -0.643972
    123          1           0       15.586182   -2.114894    0.627538
    124          1           0       15.738481    1.850124    0.521559
    125          1           0       16.415293    0.224609    1.551719
    126          1           0       17.843121   -0.360170   -0.140394
    127          1           0       17.564624    1.078335   -1.091869
    128          1           0       18.274188    2.759910    0.448936
    129          1           0       18.450372    1.710645    1.766602
    130          1           0       20.318368    0.351890    0.456692
    131          1           0       20.363417    3.082038   -1.277776
    132          1           0       21.278440    1.648189   -1.623292
    133          1           0       19.604918    1.391797   -1.683034
    134          1           0       20.547608    1.961421    2.340283
    135          1           0       22.047531    2.101380    1.103869
    136          1           0       20.744686    3.337397    1.183551
    137          1           0       -7.566115    1.569286    0.549890
    138          1           0       -7.777778   -0.278192   -0.204682
 ---------------------------------------------------------------------

 SCF Done:  E(RB3LYP) =  -2732.94347384     A.U. after   16 cycles

 Excitation energies and oscillator strengths:

 Excited State   1:      Singlet-A      2.0369 eV  608.70 nm  f=0.1889  <S**2>=0.000
     235 -> 237       -0.16855
     235 -> 238       -0.24066
     236 -> 237        0.62765
     236 -> 238       -0.12108
 This state for optimization and/or second-order correction.
 Total Energy, E(TD-HF/TD-KS) =  -2732.86861985
 Copying the excited state density for this state as the 1-particle RhoCI density.

 The electronic state is 1-A.
 Alpha  occ. eigenvalues --  -19.18276 -19.17378 -19.12526 -19.12451 -19.12202
 Alpha  occ. eigenvalues --  -14.38054 -14.37201 -14.32353 -14.32326 -10.31264
 Alpha  occ. eigenvalues --  -10.30900 -10.27775 -10.26719 -10.24184 -10.24163
 Alpha  occ. eigenvalues --  -10.23659 -10.23429 -10.22905 -10.22811 -10.22787
 Alpha  occ. eigenvalues --  -10.22709 -10.22614 -10.22480 -10.22433 -10.22284
 Alpha  occ. eigenvalues --  -10.22177 -10.22080 -10.22021 -10.22009 -10.21377
 Alpha  occ. eigenvalues --  -10.21366 -10.20875 -10.20872 -10.20556 -10.20456
 Alpha  occ. eigenvalues --  -10.20448 -10.20341 -10.20243 -10.20144 -10.20127
 Alpha  occ. eigenvalues --  -10.20052 -10.19952 -10.19820 -10.19606 -10.19595
 Alpha  occ. eigenvalues --  -10.19516 -10.19484 -10.19477 -10.19449 -10.19052
 Alpha  occ. eigenvalues --  -10.18929 -10.18724 -10.18619 -10.18440 -10.18432
 Alpha  occ. eigenvalues --  -10.18285 -10.18285 -10.18103 -10.18088 -10.17883
 Alpha  occ. eigenvalues --  -10.17520 -10.17474 -10.17247 -10.17068  -1.11411
 Alpha  occ. eigenvalues --   -1.08180  -1.03581  -1.02629  -1.01550  -0.99678
 Alpha  occ. eigenvalues --   -0.98830  -0.93590  -0.93345  -0.83559  -0.83350
 Alpha  occ. eigenvalues --   -0.81850  -0.81758  -0.81198  -0.80563  -0.80325
 Alpha  occ. eigenvalues --   -0.80204  -0.79908  -0.79442  -0.79008  -0.78124
 Alpha  occ. eigenvalues --   -0.76247  -0.75635  -0.75349  -0.74673  -0.73600
 Alpha  occ. eigenvalues --   -0.73003  -0.72785  -0.72139  -0.71769  -0.70089
 Alpha  occ. eigenvalues --   -0.69150  -0.68398  -0.67908  -0.67759  -0.67603
 Alpha  occ. eigenvalues --   -0.66831  -0.66586  -0.66201  -0.66017  -0.64667
 Alpha  occ. eigenvalues --   -0.64210  -0.62925  -0.62543  -0.61455  -0.61355
 Alpha  occ. eigenvalues --   -0.60450  -0.58979  -0.58702  -0.57730  -0.57058
 Alpha  occ. eigenvalues --   -0.56717  -0.56191  -0.55842  -0.55493  -0.55236
 Alpha  occ. eigenvalues --   -0.54778  -0.54509  -0.53715  -0.52891  -0.52544
 Alpha  occ. eigenvalues --   -0.52097  -0.51520  -0.50951  -0.50428  -0.49852
 Alpha  occ. eigenvalues --   -0.49622  -0.48771  -0.48646  -0.48360  -0.47816
 Alpha  occ. eigenvalues --   -0.47408  -0.47376  -0.47226  -0.46969  -0.46873
 Alpha  occ. eigenvalues --   -0.46442  -0.46155  -0.46103  -0.45789  -0.45530
 Alpha  occ. eigenvalues --   -0.45445  -0.44943  -0.44642  -0.44486  -0.44330
 Alpha  occ. eigenvalues --   -0.44046  -0.43969  -0.43886  -0.43745  -0.43510
 Alpha  occ. eigenvalues --   -0.43306  -0.42896  -0.42808  -0.42650  -0.42501
 Alpha  occ. eigenvalues --   -0.42266  -0.41961  -0.41820  -0.41702  -0.41217
 Alpha  occ. eigenvalues --   -0.41107  -0.40908  -0.40595  -0.40399  -0.39986
 Alpha  occ. eigenvalues --   -0.39830  -0.39573  -0.39453  -0.39197  -0.39162
 Alpha  occ. eigenvalues --   -0.38832  -0.38768  -0.38700  -0.38546  -0.38459
 Alpha  occ. eigenvalues --   -0.38264  -0.38102  -0.37916  -0.37647  -0.37427
 Alpha  occ. eigenvalues --   -0.37202  -0.37146  -0.36837  -0.36501  -0.36385
 Alpha  occ. eigenvalues --   -0.36088  -0.36038  -0.35952  -0.35631  -0.35550
 Alpha  occ. eigenvalues --   -0.35521  -0.35340  -0.35312  -0.35033  -0.34946
 Alpha  occ. eigenvalues --   -0.34440  -0.34193  -0.34158  -0.33937  -0.33729
 Alpha  occ. eigenvalues --   -0.33646  -0.33162  -0.32574  -0.32565  -0.32103
 Alpha  occ. eigenvalues --   -0.32068  -0.31808  -0.31739  -0.31552  -0.30926
 Alpha  occ. eigenvalues --   -0.30753  -0.30283  -0.30276  -0.30064  -0.29836
 Alpha  occ. eigenvalues --   -0.29669  -0.29286  -0.28616  -0.28306  -0.28115
 Alpha  occ. eigenvalues --   -0.27668  -0.27401  -0.27231  -0.26975  -0.25933
 Alpha  occ. eigenvalues --   -0.24202  -0.23985  -0.23539  -0.23472  -0.19731
 Alpha  occ. eigenvalues --   -0.18727
 Alpha virt. eigenvalues --   -0.10363  -0.07455  -0.03669  -0.02881  -0.01589
 Alpha virt. eigenvalues --    0.00051   0.00535   0.01679   0.02333   0.02930
 Alpha virt. eigenvalues --    0.03068   0.03888   0.04001   0.04134   0.04286

 Mulliken charges:
               1
     1  C    0.008381
     2  C   -0.156685
     3  C   -0.086289
     4  C   -0.095014
     5  N   -0.200289
     6  C   -0.110633
     7  C    0.047538
     8  C   -0.144193
     9  C    0.008349
    10  C    0.143510
    11  C    0.036379
    12  C    0.003530
    13  C    0.172225
    14  O   -0.256649
    15  O   -0.352177
    16  N   -0.107891
    17  C    0.182004
    18  C   -0.122841
    19  C   -0.023233
    20  C    0.092134
    21  C   -0.015032
    22  C   -0.079538
    23  C   -0.099944
    24  N   -0.300630
    25  C    0.062226
    26  C   -0.130729
    27  C   -0.009826
    28  C    0.019466
    29  C   -0.021940
    30  C   -0.015412
    31  C   -0.060179
    32  N    0.093052
    33  C    0.085709
    34  C   -0.063090
    35  C   -0.070873
    36  C    0.038784
    37  C   -0.017269
    38  C    0.097209
    39  O   -0.163963
    40  C   -0.166536
    41  C    0.182746
    42  O   -0.154402
    43  O   -0.248711
    44  C    0.083095
    45  C    0.390594
    46  C   -0.088756
    47  C   -0.147790
    48  C    0.064598
    49  C    0.036124
    50  C    0.069244
    51  C   -0.092604
    52  C   -0.044069
    53  C    0.154817
    54  C    0.007235
    55  C   -0.000831
    56  C    0.014048
    57  C   -0.018818
    58  C    0.080848
    59  C   -0.061281
    60  C    0.043012
    61  C    0.109802
    62  C   -0.179327
    63  C    0.080069
    64  C    0.009559
    65  H    0.008385
    66  H   -0.011144
    67  H   -0.004759
    68  H    0.021904
    69  H    0.012575
    70  H    0.016671
    71  H   -0.032120
    72  H    0.030828
    73  H    0.037712
    74  H    0.018606
    75  H    0.062421
    76  H    0.048739
    77  H    0.032638
    78  H    0.076243
    79  H    0.032719
    80  H    0.056898
    81  H    0.075044
    82  H    0.064778
    83  H    0.059874
    84  H    0.043119
    85  H    0.027878
    86  H    0.020265
    87  H    0.006234
    88  H    0.040273
    89  H    0.042541
    90  H    0.024364
    91  H    0.064636
    92  H    0.050649
    93  H    0.056957
    94  H    0.074075
    95  H    0.055918
    96  H    0.038548
    97  H    0.046086
    98  H   -0.044619
    99  H    0.022368
   100  H   -0.028430
   101  H    0.014229
   102  H    0.030315
   103  H    0.014418
   104  H    0.030737
   105  H   -0.009511
   106  H    0.013709
   107  H   -0.013051
   108  H    0.011568
   109  H    0.011352
   110  H   -0.021133
   111  H   -0.050314
   112  H    0.037392
   113  H   -0.020314
   114  H   -0.012490
   115  H   -0.005199
   116  H   -0.015197
   117  H   -0.022271
   118  H   -0.004282
   119  H   -0.030085
   120  H   -0.007434
   121  H    0.004121
   122  H    0.022710
   123  H   -0.035147
   124  H    0.007159
   125  H    0.002478
   126  H    0.001261
   127  H   -0.024419
   128  H   -0.017409
   129  H   -0.019463
   130  H    0.008089
   131  H    0.014660
   132  H    0.000976
   133  H   -0.007264
   134  H    0.013154
   135  H    0.019649
   136  H   -0.009944
   137  H    0.261284
   138  H    0.147954
 Sum of Mulliken charges =   0.00000

 Dipole moment (field-independent basis, Debye):
    X=              0.7816    Y=              3.2714    Z=             -0.0855  Tot=              3.3646
 Quadrupole moment (field-independent basis, Debye-Ang):
   XX=           -344.6208   YY=           -390.0398   ZZ=           -396.6578
   XY=            -21.6060   XZ=              2.3131   YZ=              1.5669

 Normal termination of Gaussian 09 at Tue Jul 30 07:56:51 2019.
