 Gaussian 09, Revision D.01,
 Gaussian 09:  ES64L-G09RevD.01 24-Apr-2013

 --------------------------
 # td=(NStates=1) B3LYP/SVP
 --------------------------

 --
 TD
 --
 Symbolic Z-matrix:
 Charge =  0 Multiplicity = 1

                         Standard orientation:
 ---------------------------------------------------------------------
 Center     Atomic      Atomic             Coordinates (Angstroms)
 Number     Number       Type             X           Y           Z
 ---------------------------------------------------------------------
      1          6           0       -5.022295   -1.905698    0.451251
      2          6           0       -4.878230    2.763921    1.478592
      3          6           0       -9.406658    3.254160   -0.436717
      4          6           0       -9.795670   -1.556769   -0.971827
      5          7           0       -5.208549    0.516566    0.894651
      6          6           0       -4.479878   -0.674598    0.739257
      7          6           0       -3.039417   -0.329581    1.309834
      8          6           0       -3.159721    1.017099    1.867915
      9          6           0       -4.434531    1.410909    1.434530
     10          6           0       -3.169503    1.089852    3.373028
     11          6           0       -1.978186   -0.453273    0.125327
     12          6           0       -0.521142   -0.551801    0.641524
     13          6           0        0.431984   -0.867142   -0.566930
     14          8           0        0.114550   -1.344884   -1.572859
     15          8           0        1.676631   -0.681505   -0.102192
     16          7           0       -7.161599    2.725306    0.448876
     17          6           0       -6.049494    3.294526    0.974013
     18          6           0       -6.365294    4.707923    0.976507
     19          6           0       -7.665710    4.887716    0.399564
     20          6           0       -8.094747    3.580479    0.087132
     21          6           0       -5.577019    5.825436    1.609287
     22          6           0       -8.427549    6.202484    0.368248
     23          6           0       -9.088041    6.498440   -0.663438
     24          7           0       -9.116331    0.816595   -0.555944
     25          6           0       -9.875228    1.864448   -0.656990
     26          6           0      -11.215301    1.613939   -1.116704
     27          6           0      -11.352468    0.293712   -1.382391
     28          6           0      -10.019582   -0.213437   -0.883977
     29          6           0      -12.192721    2.771800   -1.195103
     30          6           0      -12.499203   -0.411025   -1.779814
     31          6           0      -12.609282   -0.715822   -3.314876
     32          7           0       -7.494713   -1.236508   -0.299396
     33          6           0       -8.525670   -2.116206   -0.679562
     34          6           0       -8.040250   -3.498199   -0.704826
     35          6           0       -6.705265   -3.342266   -0.200392
     36          6           0       -6.354465   -2.004403    0.071828
     37          6           0       -8.751249   -4.711031   -1.047604
     38          6           0       -5.607488   -4.272326   -0.009340
     39          8           0       -5.619072   -5.519764    0.062946
     40          6           0       -4.414135   -3.248408    0.529315
     41          6           0       -3.854520   -3.714768    1.856717
     42          8           0       -4.011721   -3.147990    2.972619
     43          8           0       -3.045305   -4.750070    1.626396
     44          6           0       -2.357075   -5.241160    2.819023
     45          6           0        2.704100   -1.035292   -1.027046
     46          6           0        4.073100   -0.721585   -0.420253
     47          6           0        5.020212    0.196098   -0.943809
     48          6           0        4.923076    0.795496   -2.303953
     49          6           0        6.309775    0.336521   -0.070652
     50          6           0        7.437873   -0.453267   -0.718090
     51          6           0        8.734683   -0.322039    0.012308
     52          6           0        9.963153   -0.750357   -0.718294
     53          6           0        9.987141   -2.279735   -0.975371
     54          6           0       11.295013   -0.306760    0.068707
     55          6           0       12.630525   -0.545112   -0.615435
     56          6           0       13.791948    0.005562    0.227955
     57          6           0       15.238351   -0.211923   -0.437424
     58          6           0       15.501468   -1.666232   -0.633213
     59          6           0       16.254494    0.615244    0.335158
     60          6           0       17.640492    0.609184   -0.252151
     61          6           0       18.508850    1.665740    0.387032
     62          6           0       19.994489    1.584534    0.024507
     63          6           0       20.186192    2.068469   -1.434978
     64          6           0       20.774672    2.493160    0.980995
     65          1           0       -4.047216    3.363246    1.937914
     66          1           0      -10.054039    4.146004   -0.698906
     67          1           0      -10.624237   -2.146655   -1.312578
     68          1           0       -2.830734   -1.123044    2.197915
     69          1           0       -2.314246    1.710583    1.524350
     70          1           0       -2.124024    0.679186    3.742877
     71          1           0       -3.464334    2.162192    3.641146
     72          1           0       -3.920296    0.462269    3.753236
     73          1           0       -2.207087   -1.337297   -0.574663
     74          1           0       -2.198604    0.328704   -0.544809
     75          1           0        0.053128    0.192037    1.347225
     76          1           0       -0.329578   -1.782342    1.147614
     77          1           0       -4.877856    6.234004    0.823706
     78          1           0       -6.142089    6.732867    1.991049
     79          1           0       -5.023320    5.294022    2.746274
     80          1           0       -8.114311    7.080748    1.172099
     81          1           0       -9.724168    6.089634   -1.503262
     82          1           0       -9.655056    7.570888   -0.532139
     83          1           0      -12.204885    3.172130   -0.168496
     84          1           0      -11.750215    3.645762   -1.981975
     85          1           0      -13.218270    2.504893   -1.697108
     86          1           0      -12.424028   -1.260803   -1.362331
     87          1           0      -13.397505    0.017504   -1.579495
     88          1           0      -12.869248    0.313003   -3.834060
     89          1           0      -11.590479   -1.121457   -3.629009
     90          1           0      -13.484990   -1.358446   -3.599633
     91          1           0       -9.843088   -4.781719   -0.489889
     92          1           0       -8.780507   -4.925188   -2.243801
     93          1           0       -8.045033   -5.581525   -0.603657
     94          1           0       -3.665336   -3.478534   -0.245553
     95          1           0       -1.620817   -6.107579    2.310339
     96          1           0       -1.643250   -4.559367    3.165879
     97          1           0       -3.064537   -5.485919    3.494040
     98          1           0        2.742883   -2.149397   -1.157596
     99          1           0        2.688011   -0.697414   -1.906131
    100          1           0        4.149296   -0.877555    0.570555
    101          1           0        5.157133    1.901228   -2.179293
    102          1           0        5.730815    0.426782   -2.802957
    103          1           0        3.984089    0.743064   -2.703910
    104          1           0        6.657736    1.356061   -0.080557
    105          1           0        6.163092    0.027065    1.013060
    106          1           0        6.906537   -1.658273   -0.717177
    107          1           0        7.543010   -0.392210   -1.907582
    108          1           0        8.720042    0.736276    0.116614
    109          1           0        8.750089   -0.848312    1.069139
    110          1           0       10.122048   -0.065400   -1.622346
    111          1           0        9.386541   -2.544685   -1.939087
    112          1           0       10.885009   -2.612012   -1.286456
    113          1           0       10.061331   -2.807662    0.033304
    114          1           0       11.254877    0.766247    0.247792
    115          1           0       11.254201   -0.974445    0.995739
    116          1           0       12.657730   -1.606009   -0.756224
    117          1           0       12.701609   -0.185358   -1.614024
    118          1           0       13.546659    1.192150    0.440309
    119          1           0       13.686763   -0.375748    1.300786
    120          1           0       15.155924    0.251406   -1.320531
    121          1           0       14.672352   -1.966138   -1.244353
    122          1           0       16.314758   -1.868307   -1.256256
    123          1           0       15.756072   -2.228098    0.336296
    124          1           0       15.953470    1.723305    0.418769
    125          1           0       16.241012    0.412198    1.487638
    126          1           0       18.024745   -0.366927   -0.255485
    127          1           0       17.525524    0.768752   -1.422229
    128          1           0       18.136867    2.631429    0.237036
    129          1           0       18.278162    1.646621    1.483733
    130          1           0       20.587790    0.515493    0.108836
    131          1           0       19.571953    3.070066   -1.863931
    132          1           0       21.281782    2.058162   -1.642492
    133          1           0       19.735601    1.334202   -2.069358
    134          1           0       20.692049    2.175273    2.157350
    135          1           0       21.873393    2.766856    0.766747
    136          1           0       20.369214    3.487728    1.176844
    137          1           0       -7.436637    1.669882    0.320897
    138          1           0       -7.583203   -0.245947   -0.170745
 ---------------------------------------------------------------------

 SCF Done:  E(RB3LYP) =  -2733.00068602     A.U. after   18 cycles

 Excitation energies and oscillator strengths:

 Excited State   1:      Singlet-A      2.0845 eV  594.78 nm  f=0.1725  <S**2>=0.000
     235 -> 238        0.28683
     236 -> 237        0.63576
 This state for optimization and/or second-order correction.
 Total Energy, E(TD-HF/TD-KS) =  -2732.92408121
 Copying the excited state density for this state as the 1-particle RhoCI density.

 The electronic state is 1-A.
 Alpha  occ. eigenvalues --  -19.18145 -19.17713 -19.12760 -19.12339 -19.11913
 Alpha  occ. eigenvalues --  -14.36877 -14.36640 -14.31749 -14.31019 -10.31691
 Alpha  occ. eigenvalues --  -10.30996 -10.27865 -10.24701 -10.24126 -10.23382
 Alpha  occ. eigenvalues --  -10.23339 -10.23197 -10.23188 -10.22924 -10.22638
 Alpha  occ. eigenvalues --  -10.22477 -10.21855 -10.21826 -10.21706 -10.21639
 Alpha  occ. eigenvalues --  -10.21522 -10.21273 -10.21042 -10.20950 -10.20793
 Alpha  occ. eigenvalues --  -10.20710 -10.20706 -10.20625 -10.20341 -10.20302
 Alpha  occ. eigenvalues --  -10.20281 -10.20179 -10.20141 -10.20117 -10.19954
 Alpha  occ. eigenvalues --  -10.19749 -10.19668 -10.19582 -10.19519 -10.19466
 Alpha  occ. eigenvalues --  -10.19377 -10.19069 -10.18910 -10.18711 -10.18519
 Alpha  occ. eigenvalues --  -10.18507 -10.18435 -10.18408 -10.18395 -10.18340
 Alpha  occ. eigenvalues --  -10.18221 -10.18035 -10.18030 -10.17950 -10.17781
 Alpha  occ. eigenvalues --  -10.17740 -10.17467 -10.17367 -10.17017  -1.10903
 Alpha  occ. eigenvalues --   -1.08831  -1.03036  -1.00489  -0.99563  -0.98197
 Alpha  occ. eigenvalues --   -0.96413  -0.95459  -0.94641  -0.85306  -0.82563
 Alpha  occ. eigenvalues --   -0.82162  -0.82049  -0.81482  -0.81175  -0.80834
 Alpha  occ. eigenvalues --   -0.80414  -0.79786  -0.79362  -0.78935  -0.77861
 Alpha  occ. eigenvalues --   -0.77047  -0.76237  -0.75700  -0.75235  -0.74711
 Alpha  occ. eigenvalues --   -0.74167  -0.73314  -0.72734  -0.72352  -0.69902
 Alpha  occ. eigenvalues --   -0.69469  -0.69131  -0.68808  -0.68249  -0.67381
 Alpha  occ. eigenvalues --   -0.66845  -0.66784  -0.66144  -0.65712  -0.64969
 Alpha  occ. eigenvalues --   -0.63594  -0.62873  -0.62379  -0.61685  -0.61291
 Alpha  occ. eigenvalues --   -0.60241  -0.58670  -0.58231  -0.58099  -0.57560
 Alpha  occ. eigenvalues --   -0.56697  -0.56473  -0.56293  -0.55865  -0.55160
 Alpha  occ. eigenvalues --   -0.54988  -0.54704  -0.54436  -0.53453  -0.52971
 Alpha  occ. eigenvalues --   -0.52627  -0.52046  -0.51377  -0.50804  -0.50155
 Alpha  occ. eigenvalues --   -0.50064  -0.49702  -0.49565  -0.48936  -0.48337
 Alpha  occ. eigenvalues --   -0.48004  -0.47645  -0.47433  -0.47273  -0.47020
 Alpha  occ. eigenvalues --   -0.46618  -0.46544  -0.46430  -0.45782  -0.45661
 Alpha  occ. eigenvalues --   -0.45367  -0.44964  -0.44851  -0.44731  -0.44146
 Alpha  occ. eigenvalues --   -0.44086  -0.43879  -0.43798  -0.43651  -0.43450
 Alpha  occ. eigenvalues --   -0.43308  -0.43083  -0.42784  -0.42633  -0.42594
 Alpha  occ. eigenvalues --   -0.42407  -0.42155  -0.41798  -0.41456  -0.41426
 Alpha  occ. eigenvalues --   -0.41159  -0.41007  -0.40782  -0.40731  -0.40464
 Alpha  occ. eigenvalues --   -0.40283  -0.40097  -0.39976  -0.39743  -0.39623
 Alpha  occ. eigenvalues --   -0.39218  -0.39031  -0.38795  -0.38591  -0.38574
 Alpha  occ. eigenvalues --   -0.38393  -0.38164  -0.37716  -0.37488  -0.37391
 Alpha  occ. eigenvalues --   -0.37276  -0.36871  -0.36831  -0.36500  -0.36384
 Alpha  occ. eigenvalues --   -0.36166  -0.35949  -0.35943  -0.35540  -0.35500
 Alpha  occ. eigenvalues --   -0.35129  -0.35017  -0.34868  -0.34624  -0.34451
 Alpha  occ. eigenvalues --   -0.34348  -0.34161  -0.34043  -0.33906  -0.33668
 Alpha  occ. eigenvalues --   -0.33323  -0.33165  -0.32880  -0.32793  -0.32647
 Alpha  occ. eigenvalues --   -0.32390  -0.32355  -0.31878  -0.31406  -0.31196
 Alpha  occ. eigenvalues --   -0.31039  -0.30966  -0.30864  -0.30474  -0.30173
 Alpha  occ. eigenvalues --   -0.29967  -0.29262  -0.28406  -0.28298  -0.28145
 Alpha  occ. eigenvalues --   -0.28012  -0.27428  -0.26503  -0.26283  -0.25119
 Alpha  occ. eigenvalues --   -0.24324  -0.24185  -0.23436  -0.23333  -0.19599
 Alpha  occ. eigenvalues --   -0.18845
 Alpha virt. eigenvalues --   -0.10085  -0.07279  -0.04818  -0.01299  -0.00618
 Alpha virt. eigenvalues --   -0.00554   0.00204   0.00518   0.02001   0.02446
 Alpha virt. eigenvalues --    0.03768   0.03823   0.04133   0.04452   0.04751

 Mulliken charges:
               1
     1  C   -0.021138
     2  C   -0.107277
     3  C   -0.113166
     4  C   -0.120467
     5  N   -0.151989
     6  C   -0.062186
     7  C   -0.073612
     8  C    0.015115
     9  C   -0.129348
    10  C    0.067317
    11  C    0.092627
    12  C   -0.083813
    13  C    0.154986
    14  O   -0.177480
    15  O   -0.305233
    16  N   -0.031324
    17  C    0.214584
    18  C   -0.134808
    19  C   -0.006580
    20  C    0.025638
    21  C   -0.010913
    22  C   -0.016795
    23  C   -0.076633
    24  N   -0.239232
    25  C    0.077339
    26  C   -0.141049
    27  C   -0.113734
    28  C    0.108056
    29  C    0.037344
    30  C    0.225382
    31  C   -0.067101
    32  N   -0.098559
    33  C    0.112405
    34  C   -0.057396
    35  C   -0.058342
    36  C    0.198602
    37  C   -0.058915
    38  C    0.068045
    39  O   -0.206719
    40  C   -0.051087
    41  C    0.238026
    42  O   -0.283735
    43  O   -0.296593
    44  C    0.221233
    45  C    0.400352
    46  C   -0.079487
    47  C   -0.212454
    48  C    0.190773
    49  C    0.100381
    50  C   -0.133761
    51  C    0.139865
    52  C   -0.121920
    53  C    0.102042
    54  C   -0.021111
    55  C    0.087614
    56  C   -0.066425
    57  C    0.027274
    58  C    0.097279
    59  C   -0.030607
    60  C    0.067090
    61  C    0.063714
    62  C   -0.080006
    63  C    0.004647
    64  C   -0.013058
    65  H   -0.014106
    66  H   -0.010128
    67  H   -0.032486
    68  H    0.043783
    69  H    0.008346
    70  H    0.033191
    71  H    0.012556
    72  H    0.013301
    73  H    0.031753
    74  H   -0.009802
    75  H    0.062414
    76  H    0.058268
    77  H    0.048997
    78  H    0.033339
    79  H    0.046053
    80  H    0.052556
    81  H    0.055578
    82  H    0.012455
    83  H    0.040517
    84  H    0.037862
    85  H    0.029697
    86  H   -0.069610
    87  H   -0.034096
    88  H    0.020805
    89  H    0.033946
    90  H    0.025147
    91  H    0.056179
    92  H    0.060661
    93  H    0.069851
    94  H    0.057571
    95  H    0.050588
    96  H    0.016969
    97  H    0.023032
    98  H    0.007209
    99  H   -0.082443
   100  H   -0.046408
   101  H    0.009257
   102  H   -0.007748
   103  H   -0.001406
   104  H   -0.015502
   105  H    0.019673
   106  H    0.002525
   107  H    0.028237
   108  H   -0.030421
   109  H    0.010773
   110  H   -0.012994
   111  H    0.029310
   112  H   -0.047078
   113  H    0.006999
   114  H   -0.009532
   115  H   -0.003314
   116  H   -0.010414
   117  H   -0.028046
   118  H    0.000215
   119  H   -0.002252
   120  H   -0.053390
   121  H   -0.008488
   122  H   -0.021246
   123  H    0.020721
   124  H   -0.015424
   125  H   -0.004776
   126  H   -0.023569
   127  H   -0.008125
   128  H   -0.028609
   129  H   -0.016482
   130  H    0.024828
   131  H    0.026625
   132  H    0.015641
   133  H   -0.003786
   134  H    0.005500
   135  H    0.014533
   136  H   -0.011740
   137  H    0.191584
   138  H    0.130698
 Sum of Mulliken charges =   0.00000

 Dipole moment (field-independent basis, Debye):
    X=              2.1744    Y=              4.6205    Z=             -0.5874  Tot=              5.1403
 Quadrupole moment (field-independent basis, Debye-Ang):
   XX=           -343.0306   YY=           -389.8531   ZZ=           -395.1685
   XY=            -28.9022   XZ=              3.3233   YZ=              0.5122

 Normal termination of Gaussian 09 at Sun Aug  4 09:36:59 2019.
