 Gaussian 09, Revision D.01,
 Gaussian 09:  ES64L-G09RevD.01 24-Apr-2013

 --------------------------
 # td=(NStates=1) B3LYP/SVP
 --------------------------

 --
 TD
 --
 Symbolic Z-matrix:
 Charge =  0 Multiplicity = 1

                         Standard orientation:
 ---------------------------------------------------------------------
 Center     Atomic      Atomic             Coordinates (Angstroms)
 Number     Number       Type             X           Y           Z
 ---------------------------------------------------------------------
      1          6           0       -5.085224   -1.954322    0.336551
      2          6           0       -4.709615    2.675416    1.383463
      3          6           0       -9.240886    3.465852   -0.270547
      4          6           0       -9.776083   -1.324669   -1.071543
      5          7           0       -5.207959    0.420923    0.842240
      6          6           0       -4.531239   -0.714788    0.891586
      7          6           0       -3.003443   -0.600988    1.270783
      8          6           0       -3.059182    0.788958    1.857468
      9          6           0       -4.400988    1.397702    1.426637
     10          6           0       -2.856938    0.960402    3.282306
     11          6           0       -2.047934   -0.962997    0.129296
     12          6           0       -0.657057   -1.046487    0.726792
     13          6           0        0.499292   -1.242295   -0.296317
     14          8           0        0.172933   -1.632709   -1.418672
     15          8           0        1.711151   -0.999757   -0.044957
     16          7           0       -7.006572    2.839553    0.584403
     17          6           0       -5.864508    3.306285    1.061195
     18          6           0       -6.109419    4.757515    1.005669
     19          6           0       -7.451257    5.068876    0.598854
     20          6           0       -8.109521    3.702119    0.343368
     21          6           0       -5.155820    5.868304    1.484432
     22          6           0       -8.094556    6.319390    0.504291
     23          6           0       -9.008587    6.672104   -0.441828
     24          7           0       -9.160088    1.052366   -0.479193
     25          6           0       -9.744332    2.203094   -0.624850
     26          6           0      -11.233843    1.965269   -0.998939
     27          6           0      -11.397044    0.590031   -1.215551
     28          6           0      -10.076856    0.067114   -0.895360
     29          6           0      -12.170733    3.063359   -1.070308
     30          6           0      -12.563665   -0.079314   -1.670810
     31          6           0      -12.564651   -0.275092   -3.225214
     32          7           0       -7.516006   -1.234947   -0.260502
     33          6           0       -8.547495   -1.871982   -0.735639
     34          6           0       -8.172752   -3.295348   -0.689792
     35          6           0       -6.858251   -3.298317   -0.303212
     36          6           0       -6.479085   -2.066423    0.015259
     37          6           0       -9.038728   -4.458445   -1.224053
     38          6           0       -5.768641   -4.298243   -0.036547
     39          8           0       -5.786149   -5.491138   -0.223085
     40          6           0       -4.481417   -3.452252    0.346699
     41          6           0       -3.994460   -3.930161    1.722409
     42          8           0       -4.246408   -3.469226    2.766248
     43          8           0       -3.290693   -5.002977    1.563877
     44          6           0       -2.873121   -5.679164    2.761518
     45          6           0        2.675478   -1.238538   -1.016901
     46          6           0        4.065840   -0.807450   -0.516710
     47          6           0        4.897553   -0.027707   -1.101665
     48          6           0        4.859466    0.427969   -2.593362
     49          6           0        6.287454    0.254711   -0.443203
     50          6           0        7.540324   -0.283296   -1.141272
     51          6           0        8.748413   -0.151173   -0.304176
     52          6           0       10.116288   -0.800197   -0.828872
     53          6           0        9.959258   -2.401446   -0.802812
     54          6           0       11.256788   -0.309243   -0.014115
     55          6           0       12.662655   -0.669188   -0.519161
     56          6           0       13.803592    0.203215    0.161529
     57          6           0       15.223155   -0.217051   -0.293675
     58          6           0       15.680456   -1.698450   -0.007941
     59          6           0       16.185763    0.805101    0.352767
     60          6           0       17.636952    0.755447   -0.156279
     61          6           0       18.551822    1.792063    0.387853
     62          6           0       19.995570    1.768533    0.001833
     63          6           0       20.190141    2.224117   -1.433480
     64          6           0       20.759360    2.611538    1.044743
     65          1           0       -3.739093    3.380305    1.865028
     66          1           0      -10.076070    4.148799   -0.317241
     67          1           0      -10.416136   -1.943989   -1.397219
     68          1           0       -2.780012   -1.311463    2.055466
     69          1           0       -2.337200    1.440091    1.454851
     70          1           0       -2.029530    0.489170    3.830369
     71          1           0       -2.840720    1.988198    3.587254
     72          1           0       -3.761222    0.454320    3.748682
     73          1           0       -2.321982   -1.937615   -0.449103
     74          1           0       -2.127545   -0.151373   -0.715086
     75          1           0       -0.435209   -0.122958    1.110892
     76          1           0       -0.746002   -1.650785    1.747642
     77          1           0       -4.306522    5.743237    0.726378
     78          1           0       -5.678394    6.797235    1.795849
     79          1           0       -4.541676    5.806402    2.453772
     80          1           0       -7.942261    7.290593    1.147569
     81          1           0       -9.025322    5.795220   -1.391545
     82          1           0       -9.409633    7.722764   -0.585195
     83          1           0      -12.311631    3.316900    0.019824
     84          1           0      -11.884775    3.819361   -1.744854
     85          1           0      -13.336199    2.897930   -1.489400
     86          1           0      -12.715812   -1.145680   -1.324965
     87          1           0      -13.584289    0.514266   -1.516008
     88          1           0      -12.265363    0.816457   -3.603498
     89          1           0      -11.656543   -0.940196   -3.297928
     90          1           0      -13.330132   -0.757220   -3.755784
     91          1           0       -9.773934   -4.666093   -0.425758
     92          1           0       -9.416477   -4.030770   -2.146268
     93          1           0       -8.412317   -5.495019   -1.389507
     94          1           0       -3.839359   -3.647873   -0.389855
     95          1           0       -1.852506   -6.351323    2.663798
     96          1           0       -2.608449   -4.772922    3.329916
     97          1           0       -3.550907   -6.406345    3.190058
     98          1           0        2.841384   -2.434605   -1.262852
     99          1           0        2.444434   -0.703444   -1.815063
    100          1           0        4.319574   -1.177098    0.427155
    101          1           0        5.086362    1.564914   -2.741311
    102          1           0        5.578805   -0.081417   -3.349911
    103          1           0        3.926550    0.134912   -2.944923
    104          1           0        6.271531    1.259167   -0.398200
    105          1           0        6.187776    0.023741    0.441080
    106          1           0        7.382635   -1.344712   -1.332293
    107          1           0        7.732916    0.079417   -2.038849
    108          1           0        8.937268    0.917153   -0.230789
    109          1           0        8.616944   -0.609748    0.771831
    110          1           0       10.116730   -0.403019   -1.694610
    111          1           0        9.188479   -2.665088   -1.377584
    112          1           0       10.884640   -2.855758   -1.096673
    113          1           0        9.815683   -2.677860    0.221718
    114          1           0       11.153111    0.798257    0.252038
    115          1           0       10.985572   -0.926726    1.006845
    116          1           0       12.819187   -1.833122   -0.367996
    117          1           0       12.681686   -0.595008   -1.598285
    118          1           0       13.750969    1.287955   -0.057259
    119          1           0       13.716319    0.154333    1.318973
    120          1           0       15.176573   -0.182352   -1.498976
    121          1           0       14.873800   -2.550829   -0.243893
    122          1           0       16.564729   -1.994745   -0.539661
    123          1           0       15.640501   -1.898406    1.140223
    124          1           0       15.593244    1.939446   -0.043720
    125          1           0       16.369389    0.801611    1.583315
    126          1           0       17.968717   -0.143648    0.204613
    127          1           0       17.903535    0.901456   -1.156954
    128          1           0       18.224031    2.819603    0.198805
    129          1           0       18.477198    1.596172    1.643985
    130          1           0       20.374829    0.555674    0.178066
    131          1           0       19.968951    3.267963   -1.575434
    132          1           0       21.172621    1.994538   -1.682910
    133          1           0       19.543367    1.547719   -1.934749
    134          1           0       20.840511    2.218748    1.992468
    135          1           0       21.758040    2.838895    0.782623
    136          1           0       20.165325    3.621553    0.977650
    137          1           0       -7.486453    1.843890    0.482191
    138          1           0       -7.576261   -0.314691   -0.303758
 ---------------------------------------------------------------------

 SCF Done:  E(RB3LYP) =  -2732.93385840     A.U. after   17 cycles

 Excitation energies and oscillator strengths:

 Excited State   1:      Singlet-A      2.0491 eV  605.06 nm  f=0.1966  <S**2>=0.000
     235 -> 237       -0.15380
     235 -> 238       -0.26091
     236 -> 237        0.62482
     236 -> 238       -0.13455
 This state for optimization and/or second-order correction.
 Total Energy, E(TD-HF/TD-KS) =  -2732.85855411
 Copying the excited state density for this state as the 1-particle RhoCI density.

 The electronic state is 1-A.
 Alpha  occ. eigenvalues --  -19.19462 -19.18026 -19.12945 -19.12081 -19.10380
 Alpha  occ. eigenvalues --  -14.37204 -14.35958 -14.32033 -14.30643 -10.31478
 Alpha  occ. eigenvalues --  -10.31295 -10.28326 -10.25624 -10.25572 -10.24560
 Alpha  occ. eigenvalues --  -10.23552 -10.23122 -10.22531 -10.22441 -10.22218
 Alpha  occ. eigenvalues --  -10.21974 -10.21602 -10.21342 -10.21125 -10.21110
 Alpha  occ. eigenvalues --  -10.21041 -10.20966 -10.20951 -10.20857 -10.20801
 Alpha  occ. eigenvalues --  -10.20693 -10.20629 -10.20580 -10.20539 -10.20381
 Alpha  occ. eigenvalues --  -10.20182 -10.19963 -10.19932 -10.19892 -10.19820
 Alpha  occ. eigenvalues --  -10.19755 -10.19700 -10.19332 -10.19238 -10.19193
 Alpha  occ. eigenvalues --  -10.19125 -10.19072 -10.18998 -10.18972 -10.18971
 Alpha  occ. eigenvalues --  -10.18620 -10.18361 -10.18299 -10.18205 -10.18185
 Alpha  occ. eigenvalues --  -10.18040 -10.17697 -10.17469 -10.17202 -10.17160
 Alpha  occ. eigenvalues --  -10.17070 -10.16844 -10.16558 -10.16220  -1.13884
 Alpha  occ. eigenvalues --   -1.12388  -1.03507  -1.02390  -1.01198  -0.99231
 Alpha  occ. eigenvalues --   -0.97673  -0.94264  -0.93673  -0.84994  -0.83276
 Alpha  occ. eigenvalues --   -0.82369  -0.82259  -0.81960  -0.81415  -0.80791
 Alpha  occ. eigenvalues --   -0.80369  -0.79878  -0.79650  -0.79399  -0.78565
 Alpha  occ. eigenvalues --   -0.77819  -0.76880  -0.75712  -0.75289  -0.74694
 Alpha  occ. eigenvalues --   -0.74342  -0.74162  -0.72036  -0.71610  -0.70403
 Alpha  occ. eigenvalues --   -0.69706  -0.69470  -0.69012  -0.68985  -0.68401
 Alpha  occ. eigenvalues --   -0.67776  -0.67544  -0.66902  -0.65928  -0.65829
 Alpha  occ. eigenvalues --   -0.63996  -0.63242  -0.63190  -0.62212  -0.61100
 Alpha  occ. eigenvalues --   -0.60414  -0.59421  -0.59021  -0.58495  -0.58177
 Alpha  occ. eigenvalues --   -0.57171  -0.57144  -0.56497  -0.56177  -0.55983
 Alpha  occ. eigenvalues --   -0.54919  -0.54324  -0.53985  -0.53264  -0.53014
 Alpha  occ. eigenvalues --   -0.52710  -0.52503  -0.52105  -0.51377  -0.50915
 Alpha  occ. eigenvalues --   -0.50652  -0.49694  -0.49316  -0.49228  -0.48523
 Alpha  occ. eigenvalues --   -0.48395  -0.48166  -0.47967  -0.47788  -0.47668
 Alpha  occ. eigenvalues --   -0.47161  -0.47082  -0.46614  -0.46509  -0.46062
 Alpha  occ. eigenvalues --   -0.46012  -0.45932  -0.45420  -0.45225  -0.45143
 Alpha  occ. eigenvalues --   -0.44576  -0.44451  -0.44237  -0.44039  -0.43812
 Alpha  occ. eigenvalues --   -0.43592  -0.43379  -0.43336  -0.42949  -0.42627
 Alpha  occ. eigenvalues --   -0.42382  -0.42280  -0.42143  -0.42092  -0.41928
 Alpha  occ. eigenvalues --   -0.41470  -0.41294  -0.40967  -0.40851  -0.40461
 Alpha  occ. eigenvalues --   -0.40273  -0.40112  -0.39968  -0.39669  -0.39644
 Alpha  occ. eigenvalues --   -0.39501  -0.39279  -0.39050  -0.38813  -0.38732
 Alpha  occ. eigenvalues --   -0.38469  -0.38381  -0.38145  -0.37881  -0.37583
 Alpha  occ. eigenvalues --   -0.37487  -0.37154  -0.36897  -0.36875  -0.36420
 Alpha  occ. eigenvalues --   -0.36295  -0.36110  -0.36011  -0.35586  -0.35426
 Alpha  occ. eigenvalues --   -0.35217  -0.34985  -0.34729  -0.34446  -0.34288
 Alpha  occ. eigenvalues --   -0.34205  -0.34160  -0.33897  -0.33663  -0.33586
 Alpha  occ. eigenvalues --   -0.33540  -0.32930  -0.32838  -0.32587  -0.32475
 Alpha  occ. eigenvalues --   -0.32233  -0.31950  -0.31316  -0.31069  -0.30994
 Alpha  occ. eigenvalues --   -0.30688  -0.30599  -0.30441  -0.30375  -0.30165
 Alpha  occ. eigenvalues --   -0.30014  -0.29430  -0.28830  -0.28811  -0.28362
 Alpha  occ. eigenvalues --   -0.27445  -0.27115  -0.26819  -0.26422  -0.25963
 Alpha  occ. eigenvalues --   -0.25711  -0.25214  -0.22892  -0.22401  -0.20393
 Alpha  occ. eigenvalues --   -0.18089
 Alpha virt. eigenvalues --   -0.09711  -0.07836  -0.03878  -0.02269   0.00234
 Alpha virt. eigenvalues --    0.00309   0.01165   0.01953   0.02459   0.03128
 Alpha virt. eigenvalues --    0.03537   0.03746   0.04272   0.04393   0.04500

 Mulliken charges:
               1
     1  C   -0.079728
     2  C   -0.133559
     3  C   -0.053860
     4  C    0.031887
     5  N   -0.162826
     6  C   -0.040949
     7  C    0.002620
     8  C    0.045525
     9  C   -0.036896
    10  C    0.068261
    11  C    0.014141
    12  C    0.054296
    13  C    0.157183
    14  O   -0.285572
    15  O   -0.208925
    16  N   -0.111672
    17  C    0.181930
    18  C   -0.142755
    19  C    0.075516
    20  C    0.121611
    21  C    0.034060
    22  C   -0.105772
    23  C   -0.123254
    24  N   -0.236929
    25  C   -0.009575
    26  C   -0.136966
    27  C   -0.037351
    28  C    0.087479
    29  C    0.032838
    30  C    0.004990
    31  C   -0.014347
    32  N    0.132748
    33  C   -0.025646
    34  C   -0.186531
    35  C   -0.000926
    36  C    0.114953
    37  C    0.058241
    38  C    0.063734
    39  O   -0.152493
    40  C    0.037048
    41  C    0.169574
    42  O   -0.193777
    43  O   -0.260157
    44  C    0.130489
    45  C    0.324512
    46  C   -0.101083
    47  C   -0.158190
    48  C    0.043355
    49  C    0.270820
    50  C    0.152067
    51  C   -0.067085
    52  C    0.011492
    53  C    0.115760
    54  C   -0.024863
    55  C    0.050626
    56  C    0.033378
    57  C   -0.085001
    58  C   -0.019320
    59  C   -0.069335
    60  C    0.171477
    61  C   -0.058970
    62  C   -0.196080
    63  C    0.143660
    64  C    0.097277
    65  H    0.027211
    66  H   -0.006781
    67  H   -0.144973
    68  H   -0.017236
    69  H   -0.031760
    70  H    0.009150
    71  H   -0.002094
    72  H    0.010603
    73  H    0.045434
    74  H    0.022275
    75  H   -0.019347
    76  H    0.039082
    77  H    0.041304
    78  H    0.029738
    79  H    0.018648
    80  H    0.026210
    81  H    0.058021
    82  H    0.044221
    83  H    0.048550
    84  H    0.028061
    85  H    0.023040
    86  H    0.007642
    87  H    0.019675
    88  H    0.025972
    89  H   -0.000302
    90  H    0.013364
    91  H    0.036530
    92  H    0.041154
    93  H    0.065799
    94  H    0.006407
    95  H    0.042888
    96  H    0.042853
    97  H    0.051054
    98  H    0.051861
    99  H   -0.039146
   100  H   -0.032888
   101  H    0.030739
   102  H    0.040016
   103  H   -0.017767
   104  H   -0.045343
   105  H   -0.121108
   106  H   -0.022672
   107  H   -0.053905
   108  H   -0.017757
   109  H   -0.002728
   110  H   -0.084305
   111  H   -0.021230
   112  H   -0.001406
   113  H   -0.008032
   114  H    0.004125
   115  H   -0.003612
   116  H    0.015192
   117  H   -0.015341
   118  H   -0.001892
   119  H    0.005308
   120  H    0.013894
   121  H    0.010140
   122  H    0.028706
   123  H    0.013336
   124  H    0.005966
   125  H    0.034112
   126  H   -0.031782
   127  H   -0.036447
   128  H   -0.011803
   129  H   -0.013478
   130  H   -0.006009
   131  H    0.006357
   132  H   -0.008411
   133  H   -0.008464
   134  H   -0.005696
   135  H   -0.020369
   136  H    0.003078
   137  H    0.195695
   138  H    0.057519
 Sum of Mulliken charges =   0.00000

 Dipole moment (field-independent basis, Debye):
    X=              3.3781    Y=              2.9872    Z=              0.6417  Tot=              4.5548
 Quadrupole moment (field-independent basis, Debye-Ang):
   XX=           -353.6312   YY=           -379.6640   ZZ=           -393.9826
   XY=            -21.1908   XZ=             -4.1981   YZ=             -4.6266

 Normal termination of Gaussian 09 at Thu Jul 25 07:36:14 2019.
