 Gaussian 09, Revision D.01,
 Gaussian 09:  ES64L-G09RevD.01 24-Apr-2013

 --------------------------
 # td=(NStates=1) B3LYP/SVP
 --------------------------

 --
 TD
 --
 Symbolic Z-matrix:
 Charge =  0 Multiplicity = 1

                         Standard orientation:
 ---------------------------------------------------------------------
 Center     Atomic      Atomic             Coordinates (Angstroms)
 Number     Number       Type             X           Y           Z
 ---------------------------------------------------------------------
      1          6           0       -5.195524   -1.894577    0.520704
      2          6           0       -4.656949    2.802239    1.378931
      3          6           0       -9.332472    3.407004   -0.179892
      4          6           0       -9.732148   -1.419709   -0.951427
      5          7           0       -5.097309    0.389333    0.831084
      6          6           0       -4.511841   -0.733759    0.817796
      7          6           0       -3.060361   -0.645422    1.107181
      8          6           0       -2.939281    0.840153    1.873292
      9          6           0       -4.349573    1.411701    1.393453
     10          6           0       -2.828167    0.769182    3.341815
     11          6           0       -2.083911   -0.692616   -0.108919
     12          6           0       -0.621845   -0.659917    0.377556
     13          6           0        0.334333   -1.066115   -0.748989
     14          8           0        0.029227   -1.567647   -1.843876
     15          8           0        1.584174   -0.832037   -0.390343
     16          7           0       -7.045583    2.802328    0.572105
     17          6           0       -5.875876    3.440279    0.944264
     18          6           0       -6.263496    4.807272    1.055151
     19          6           0       -7.549452    5.061543    0.626177
     20          6           0       -8.064551    3.701402    0.348152
     21          6           0       -5.170853    5.766114    1.413639
     22          6           0       -8.126806    6.333175    0.538071
     23          6           0       -8.839131    6.674103   -0.481343
     24          7           0       -9.156189    0.887252   -0.387403
     25          6           0       -9.798678    2.077323   -0.595263
     26          6           0      -11.214809    1.968064   -1.081922
     27          6           0      -11.372008    0.582886   -1.232030
     28          6           0      -10.104342   -0.047778   -0.914592
     29          6           0      -12.260953    3.009034   -1.189422
     30          6           0      -12.572330   -0.150284   -1.778337
     31          6           0      -12.370213   -0.602874   -3.267265
     32          7           0       -7.535013   -1.207853   -0.198193
     33          6           0       -8.623325   -1.976738   -0.554645
     34          6           0       -8.308748   -3.347452   -0.422808
     35          6           0       -6.900619   -3.358543   -0.146569
     36          6           0       -6.482163   -2.090136    0.069789
     37          6           0       -9.238738   -4.521542   -0.775900
     38          6           0       -5.853978   -4.281901    0.140476
     39          8           0       -5.827306   -5.461882    0.251288
     40          6           0       -4.623675   -3.330568    0.541982
     41          6           0       -3.958943   -3.787607    1.921094
     42          8           0       -4.204272   -3.294316    2.966025
     43          8           0       -3.144174   -4.773293    1.640984
     44          6           0       -2.478420   -5.413843    2.779196
     45          6           0        2.661990   -1.298045   -1.248232
     46          6           0        4.045415   -0.918263   -0.734330
     47          6           0        4.980590   -0.053230   -1.136270
     48          6           0        4.888749    0.737970   -2.437821
     49          6           0        6.223693    0.243147   -0.445535
     50          6           0        7.473140   -0.407445   -1.046846
     51          6           0        8.714654   -0.293734   -0.276209
     52          6           0       10.059542   -0.778492   -0.973842
     53          6           0        9.907059   -2.281019   -1.205498
     54          6           0       11.271911   -0.406418   -0.118189
     55          6           0       12.634224   -0.592397   -0.738319
     56          6           0       13.773676    0.045060    0.118420
     57          6           0       15.209717   -0.025585   -0.534896
     58          6           0       15.649061   -1.522711   -0.699742
     59          6           0       16.214106    0.563084    0.321108
     60          6           0       17.670326    0.737109   -0.183189
     61          6           0       18.585821    1.530389    0.764640
     62          6           0       20.111224    1.734354    0.369314
     63          6           0       20.339093    2.410661   -0.981429
     64          6           0       20.943620    2.275149    1.590840
     65          1           0       -3.833829    3.606889    1.892574
     66          1           0       -9.990861    4.331910   -0.348719
     67          1           0      -10.385213   -2.157596   -1.430002
     68          1           0       -2.711859   -1.537532    1.806594
     69          1           0       -2.309624    1.466958    1.304864
     70          1           0       -1.884381    0.368632    3.780562
     71          1           0       -3.112795    1.592405    3.753653
     72          1           0       -3.459371   -0.066045    3.656753
     73          1           0       -2.300388   -1.905912   -0.635875
     74          1           0       -2.434021    0.117053   -0.596839
     75          1           0       -0.305159    0.305161    0.873330
     76          1           0       -0.560926   -1.439607    1.175838
     77          1           0       -4.332161    5.916808    0.649560
     78          1           0       -5.609401    6.695960    1.964448
     79          1           0       -4.356203    5.592961    2.195100
     80          1           0       -7.699035    7.162622    1.195883
     81          1           0       -9.016737    5.941248   -1.349786
     82          1           0       -9.697141    7.480374   -0.639717
     83          1           0      -12.612760    3.621495   -0.091657
     84          1           0      -11.999968    3.858179   -1.891406
     85          1           0      -13.188203    2.473803   -1.474687
     86          1           0      -12.715277   -0.897438   -1.254419
     87          1           0      -13.560608    0.439075   -1.640050
     88          1           0      -12.127533    0.187732   -3.980962
     89          1           0      -11.487303   -1.152765   -3.325738
     90          1           0      -13.440103   -1.058112   -3.763938
     91          1           0      -10.113410   -4.913453    0.162990
     92          1           0       -9.654947   -4.430727   -1.837338
     93          1           0       -8.503782   -5.512157   -0.817265
     94          1           0       -3.753824   -3.392261   -0.116497
     95          1           0       -2.033922   -6.461617    2.534607
     96          1           0       -1.778991   -4.746899    3.228315
     97          1           0       -3.213773   -5.740373    3.550916
     98          1           0        2.583714   -2.434527   -1.263320
     99          1           0        2.514645   -1.022182   -2.199126
    100          1           0        4.288174   -1.565541    0.078700
    101          1           0        4.866146    1.779528   -2.315056
    102          1           0        5.693858    0.525827   -3.204843
    103          1           0        4.013407    0.510153   -2.900153
    104          1           0        6.431758    1.162369   -0.258685
    105          1           0        6.276048   -0.020902    0.666563
    106          1           0        7.245340   -1.517739   -1.119903
    107          1           0        7.672949   -0.030839   -2.135791
    108          1           0        8.745197    1.069221   -0.104725
    109          1           0        8.535502   -0.798448    0.707884
    110          1           0       10.032781   -0.238329   -1.962424
    111          1           0        8.852414   -2.415114   -1.766262
    112          1           0       10.744591   -2.963141   -2.084148
    113          1           0       10.172597   -3.064414   -0.314203
    114          1           0       11.004359    0.806218    0.134139
    115          1           0       11.311855   -0.955105    0.707647
    116          1           0       12.731879   -1.673058   -0.927047
    117          1           0       12.611733   -0.087464   -1.641901
    118          1           0       13.597574    1.140423    0.200434
    119          1           0       13.736548   -0.691880    1.060596
    120          1           0       15.169866    0.481734   -1.568846
    121          1           0       14.868467   -2.086628   -1.197623
    122          1           0       16.762328   -1.993565   -0.978732
    123          1           0       15.523550   -1.934325    0.309039
    124          1           0       15.897897    1.565840    0.464080
    125          1           0       16.248892    0.010433    1.408931
    126          1           0       18.036277   -0.162445   -0.327996
    127          1           0       17.461270    1.343601   -1.072463
    128          1           0       18.065126    2.499655    1.041060
    129          1           0       18.553043    1.102725    1.867259
    130          1           0       20.366422    0.668628    0.202286
    131          1           0       20.080911    3.489726   -0.609539
    132          1           0       21.365785    2.505341   -1.233647
    133          1           0       19.813818    1.867769   -1.908664
    134          1           0       20.696021    1.581929    2.467641
    135          1           0       22.113548    2.428307    1.369342
    136          1           0       20.563718    3.279469    1.990931
    137          1           0       -7.240533    1.720570    0.424110
    138          1           0       -7.455109   -0.272665   -0.232638
 ---------------------------------------------------------------------

 SCF Done:  E(RB3LYP) =  -2732.96072460     A.U. after   17 cycles

 Excitation energies and oscillator strengths:

 Excited State   1:      Singlet-A      2.0197 eV  613.88 nm  f=0.1262  <S**2>=0.000
     235 -> 237       -0.22713
     235 -> 238       -0.30355
     236 -> 237        0.56427
     236 -> 238       -0.18615
 This state for optimization and/or second-order correction.
 Total Energy, E(TD-HF/TD-KS) =  -2732.88650323
 Copying the excited state density for this state as the 1-particle RhoCI density.

 The electronic state is 1-A.
 Alpha  occ. eigenvalues --  -19.18632 -19.18083 -19.12203 -19.12062 -19.11756
 Alpha  occ. eigenvalues --  -14.37607 -14.35232 -14.31669 -14.30780 -10.31606
 Alpha  occ. eigenvalues --  -10.31209 -10.27203 -10.25640 -10.24875 -10.24302
 Alpha  occ. eigenvalues --  -10.23993 -10.23739 -10.23203 -10.22546 -10.22497
 Alpha  occ. eigenvalues --  -10.22133 -10.22081 -10.22021 -10.22004 -10.21931
 Alpha  occ. eigenvalues --  -10.21839 -10.21349 -10.21272 -10.21045 -10.20973
 Alpha  occ. eigenvalues --  -10.20915 -10.20882 -10.20853 -10.20776 -10.20556
 Alpha  occ. eigenvalues --  -10.20533 -10.20494 -10.20350 -10.20337 -10.20264
 Alpha  occ. eigenvalues --  -10.20091 -10.20032 -10.19968 -10.19676 -10.19664
 Alpha  occ. eigenvalues --  -10.19541 -10.19320 -10.19205 -10.19181 -10.19179
 Alpha  occ. eigenvalues --  -10.19138 -10.18998 -10.18993 -10.18826 -10.18531
 Alpha  occ. eigenvalues --  -10.18520 -10.18356 -10.18354 -10.18252 -10.18245
 Alpha  occ. eigenvalues --  -10.17824 -10.17673 -10.17204 -10.17075  -1.10579
 Alpha  occ. eigenvalues --   -1.09530  -1.04033  -1.01966  -0.98867  -0.98268
 Alpha  occ. eigenvalues --   -0.97623  -0.95310  -0.91890  -0.85278  -0.83865
 Alpha  occ. eigenvalues --   -0.82977  -0.82409  -0.81316  -0.81040  -0.80579
 Alpha  occ. eigenvalues --   -0.79958  -0.79412  -0.79112  -0.79033  -0.78158
 Alpha  occ. eigenvalues --   -0.77347  -0.76370  -0.75593  -0.75106  -0.74388
 Alpha  occ. eigenvalues --   -0.73900  -0.73436  -0.72401  -0.72125  -0.70351
 Alpha  occ. eigenvalues --   -0.69867  -0.68765  -0.68719  -0.68331  -0.66982
 Alpha  occ. eigenvalues --   -0.66775  -0.66461  -0.66160  -0.65942  -0.65546
 Alpha  occ. eigenvalues --   -0.64182  -0.62896  -0.62675  -0.62287  -0.61783
 Alpha  occ. eigenvalues --   -0.60992  -0.59284  -0.58432  -0.57751  -0.57569
 Alpha  occ. eigenvalues --   -0.56986  -0.56809  -0.56010  -0.55823  -0.55720
 Alpha  occ. eigenvalues --   -0.55244  -0.54864  -0.54571  -0.53760  -0.53489
 Alpha  occ. eigenvalues --   -0.52661  -0.51764  -0.51008  -0.50657  -0.50522
 Alpha  occ. eigenvalues --   -0.50000  -0.49573  -0.48863  -0.48665  -0.48424
 Alpha  occ. eigenvalues --   -0.48295  -0.47954  -0.47763  -0.47575  -0.47502
 Alpha  occ. eigenvalues --   -0.46704  -0.46507  -0.45986  -0.45852  -0.45530
 Alpha  occ. eigenvalues --   -0.45340  -0.45264  -0.45140  -0.45035  -0.44624
 Alpha  occ. eigenvalues --   -0.44316  -0.44246  -0.44044  -0.43903  -0.43719
 Alpha  occ. eigenvalues --   -0.43413  -0.43075  -0.43005  -0.42947  -0.42617
 Alpha  occ. eigenvalues --   -0.42489  -0.42251  -0.42095  -0.41691  -0.41230
 Alpha  occ. eigenvalues --   -0.41180  -0.40943  -0.40638  -0.40399  -0.40262
 Alpha  occ. eigenvalues --   -0.40176  -0.39986  -0.39900  -0.39672  -0.39366
 Alpha  occ. eigenvalues --   -0.39205  -0.38732  -0.38636  -0.38478  -0.38448
 Alpha  occ. eigenvalues --   -0.38360  -0.38210  -0.37729  -0.37442  -0.37338
 Alpha  occ. eigenvalues --   -0.37228  -0.37105  -0.36786  -0.36606  -0.36453
 Alpha  occ. eigenvalues --   -0.36368  -0.35954  -0.35853  -0.35734  -0.35632
 Alpha  occ. eigenvalues --   -0.35187  -0.34926  -0.34866  -0.34577  -0.34501
 Alpha  occ. eigenvalues --   -0.34487  -0.34205  -0.34204  -0.33893  -0.33838
 Alpha  occ. eigenvalues --   -0.33791  -0.32912  -0.32789  -0.32729  -0.32502
 Alpha  occ. eigenvalues --   -0.32134  -0.32111  -0.31641  -0.31405  -0.31356
 Alpha  occ. eigenvalues --   -0.30832  -0.30721  -0.30529  -0.30407  -0.30144
 Alpha  occ. eigenvalues --   -0.29930  -0.29492  -0.29015  -0.28580  -0.27820
 Alpha  occ. eigenvalues --   -0.27658  -0.27577  -0.26710  -0.26036  -0.25819
 Alpha  occ. eigenvalues --   -0.25305  -0.24655  -0.24020  -0.22513  -0.19893
 Alpha  occ. eigenvalues --   -0.18939
 Alpha virt. eigenvalues --   -0.10349  -0.08396  -0.04323  -0.02132  -0.01252
 Alpha virt. eigenvalues --   -0.00022   0.00234   0.01791   0.01846   0.02478
 Alpha virt. eigenvalues --    0.03335   0.03662   0.04048   0.04260   0.04391

 Mulliken charges:
               1
     1  C    0.100309
     2  C   -0.084485
     3  C   -0.100852
     4  C   -0.118727
     5  N   -0.114655
     6  C   -0.097119
     7  C   -0.168147
     8  C   -0.035440
     9  C   -0.038158
    10  C    0.196697
    11  C    0.054144
    12  C    0.033326
    13  C    0.188704
    14  O   -0.266923
    15  O   -0.293979
    16  N   -0.119251
    17  C    0.097987
    18  C   -0.078461
    19  C    0.048956
    20  C    0.078927
    21  C   -0.001186
    22  C   -0.025950
    23  C   -0.113582
    24  N   -0.294523
    25  C    0.086354
    26  C   -0.123474
    27  C   -0.111423
    28  C    0.085976
    29  C    0.018478
    30  C    0.209458
    31  C   -0.007795
    32  N   -0.007017
    33  C    0.138654
    34  C   -0.083974
    35  C    0.009368
    36  C    0.065100
    37  C   -0.069469
    38  C    0.065769
    39  O   -0.135662
    40  C   -0.092647
    41  C    0.165686
    42  O   -0.197397
    43  O   -0.277078
    44  C    0.167064
    45  C    0.335530
    46  C   -0.102604
    47  C   -0.097786
    48  C    0.133973
    49  C    0.194293
    50  C   -0.037972
    51  C   -0.065090
    52  C    0.000221
    53  C   -0.130518
    54  C    0.046179
    55  C    0.085635
    56  C   -0.004206
    57  C   -0.059831
    58  C   -0.003577
    59  C   -0.007227
    60  C    0.157710
    61  C   -0.048622
    62  C   -0.062702
    63  C    0.012727
    64  C   -0.032809
    65  H    0.034607
    66  H    0.008276
    67  H   -0.028663
    68  H    0.016429
    69  H   -0.018757
    70  H    0.004682
    71  H   -0.039108
    72  H    0.015209
    73  H    0.064533
    74  H   -0.020528
    75  H    0.044577
    76  H    0.028323
    77  H    0.036866
    78  H    0.027275
    79  H    0.011886
    80  H    0.025212
    81  H    0.040244
    82  H    0.046316
    83  H    0.039168
    84  H    0.035799
    85  H    0.016477
    86  H   -0.078611
    87  H   -0.000461
    88  H    0.002779
    89  H   -0.007093
    90  H    0.032571
    91  H    0.071422
    92  H    0.060177
    93  H    0.064726
    94  H    0.031645
    95  H    0.054252
    96  H    0.029322
    97  H    0.036970
    98  H    0.016470
    99  H   -0.027498
   100  H   -0.021242
   101  H    0.000019
   102  H    0.030026
   103  H   -0.037597
   104  H   -0.075322
   105  H   -0.023906
   106  H    0.010989
   107  H    0.007898
   108  H    0.001646
   109  H    0.011933
   110  H    0.004350
   111  H    0.048565
   112  H    0.014176
   113  H    0.046724
   114  H    0.007366
   115  H   -0.049034
   116  H    0.005004
   117  H   -0.040274
   118  H    0.010426
   119  H    0.018528
   120  H    0.001768
   121  H   -0.009536
   122  H    0.042071
   123  H   -0.019933
   124  H   -0.036165
   125  H    0.001288
   126  H   -0.049395
   127  H   -0.004484
   128  H   -0.019020
   129  H   -0.009549
   130  H   -0.010227
   131  H    0.010525
   132  H   -0.004015
   133  H    0.043791
   134  H    0.023582
   135  H    0.036421
   136  H    0.016010
   137  H    0.203598
   138  H    0.070595
 Sum of Mulliken charges =   0.00000

 Dipole moment (field-independent basis, Debye):
    X=              2.9303    Y=              3.3159    Z=              0.5543  Tot=              4.4598
 Quadrupole moment (field-independent basis, Debye-Ang):
   XX=           -371.7592   YY=           -380.5774   ZZ=           -397.6218
   XY=            -25.2604   XZ=             11.5848   YZ=             -4.8310

 Normal termination of Gaussian 09 at Thu Jul 25 11:57:06 2019.
