 Gaussian 09, Revision D.01,
 Gaussian 09:  ES64L-G09RevD.01 24-Apr-2013

 --------------------------
 # td=(NStates=1) B3LYP/SVP
 --------------------------

 --
 TD
 --
 Symbolic Z-matrix:
 Charge =  0 Multiplicity = 1

                         Standard orientation:
 ---------------------------------------------------------------------
 Center     Atomic      Atomic             Coordinates (Angstroms)
 Number     Number       Type             X           Y           Z
 ---------------------------------------------------------------------
      1          6           0       -5.093818   -1.996975    0.458864
      2          6           0       -4.731864    2.755877    1.281765
      3          6           0       -9.363296    3.339065   -0.239651
      4          6           0       -9.893301   -1.522817   -0.726772
      5          7           0       -5.248481    0.429345    0.789215
      6          6           0       -4.494483   -0.755390    0.772846
      7          6           0       -3.084090   -0.577858    1.224424
      8          6           0       -3.048604    0.952185    1.715735
      9          6           0       -4.406515    1.406627    1.318799
     10          6           0       -2.787767    1.107139    3.258837
     11          6           0       -2.106767   -0.799192    0.063445
     12          6           0       -0.672529   -0.676613    0.478302
     13          6           0        0.337121   -0.878979   -0.727305
     14          8           0        0.024474   -1.266295   -1.872511
     15          8           0        1.607004   -0.628799   -0.321324
     16          7           0       -7.026947    2.714796    0.441241
     17          6           0       -5.901534    3.386493    0.967381
     18          6           0       -6.243815    4.797714    0.994830
     19          6           0       -7.510056    5.002066    0.475270
     20          6           0       -8.085108    3.630854    0.103617
     21          6           0       -5.292550    5.875965    1.445363
     22          6           0       -8.087503    6.295291    0.351516
     23          6           0       -9.042484    6.669397   -0.576354
     24          7           0       -9.071926    0.809288   -0.505113
     25          6           0       -9.902714    2.024209   -0.558172
     26          6           0      -11.278374    1.744785   -0.905083
     27          6           0      -11.370449    0.409718   -1.045787
     28          6           0      -10.004357   -0.147439   -0.802564
     29          6           0      -12.328512    2.907419   -0.930891
     30          6           0      -12.676212   -0.318662   -1.342578
     31          6           0      -12.800469   -0.645025   -2.910850
     32          7           0       -7.500577   -1.312326   -0.082231
     33          6           0       -8.683213   -2.035769   -0.423727
     34          6           0       -8.136393   -3.505741   -0.492940
     35          6           0       -6.768197   -3.446817   -0.251695
     36          6           0       -6.397418   -2.095022    0.069997
     37          6           0       -8.897359   -4.769159   -0.857642
     38          6           0       -5.543182   -4.314654    0.073595
     39          8           0       -5.498533   -5.466606   -0.049243
     40          6           0       -4.424820   -3.294787    0.319131
     41          6           0       -3.817610   -3.812647    1.697342
     42          8           0       -4.035399   -3.386928    2.755273
     43          8           0       -3.020984   -4.977407    1.423802
     44          6           0       -2.538415   -5.640310    2.606925
     45          6           0        2.612140   -0.665874   -1.387814
     46          6           0        3.997572   -0.602978   -0.705435
     47          6           0        4.986929    0.257947   -1.107268
     48          6           0        4.915932    1.082498   -2.363094
     49          6           0        6.312255    0.272362   -0.332119
     50          6           0        7.466082   -0.185700   -1.063500
     51          6           0        8.761683   -0.208291   -0.151019
     52          6           0       10.042651   -0.680016   -0.882341
     53          6           0        9.845258   -2.135526   -1.362437
     54          6           0       11.313668   -0.260020    0.006151
     55          6           0       12.652510   -0.491524   -0.670433
     56          6           0       13.757623   -0.067635    0.250894
     57          6           0       15.258067   -0.340426   -0.200332
     58          6           0       15.579920   -1.850708   -0.335157
     59          6           0       16.278662    0.495806    0.530273
     60          6           0       17.621499    0.588637   -0.032580
     61          6           0       18.577797    1.483859    0.713850
     62          6           0       20.095481    1.590344    0.185263
     63          6           0       20.115757    2.170758   -1.127957
     64          6           0       20.775153    2.321440    1.229363
     65          1           0       -4.025530    3.469434    1.798929
     66          1           0      -10.059070    4.161415   -0.443615
     67          1           0      -10.792924   -2.069534   -1.183549
     68          1           0       -2.730499   -1.214023    2.063874
     69          1           0       -2.232730    1.560900    1.291124
     70          1           0       -1.918661    0.752146    3.611350
     71          1           0       -2.878918    2.159395    3.479479
     72          1           0       -3.448114    0.606174    3.747419
     73          1           0       -2.414631   -1.624656   -0.585386
     74          1           0       -2.442765    0.007026   -0.764740
     75          1           0       -0.494710    0.276796    0.889000
     76          1           0       -0.398304   -1.526577    1.297861
     77          1           0       -4.254825    5.921840    0.877926
     78          1           0       -5.667108    6.886873    1.000496
     79          1           0       -4.956689    5.992850    2.555084
     80          1           0       -7.815255    7.103871    1.236715
     81          1           0       -9.501522    5.990079   -1.417993
     82          1           0       -9.195626    7.797997   -0.514265
     83          1           0      -12.428823    3.694992   -0.282576
     84          1           0      -12.080816    3.395446   -1.766578
     85          1           0      -13.461862    2.628154   -1.091160
     86          1           0      -12.887231   -1.333004   -0.627261
     87          1           0      -13.484140    0.292670   -0.810976
     88          1           0      -12.738660    0.139612   -3.575955
     89          1           0      -11.933990   -1.433360   -3.099740
     90          1           0      -13.676520   -1.322670   -3.326669
     91          1           0       -9.742766   -4.915385   -0.125493
     92          1           0       -9.262300   -4.709873   -1.819699
     93          1           0       -8.332055   -5.719846   -0.929002
     94          1           0       -3.662447   -3.423528   -0.387075
     95          1           0       -1.885477   -6.449450    2.029102
     96          1           0       -1.997463   -4.813195    3.278853
     97          1           0       -3.209624   -6.269789    3.198979
     98          1           0        2.605682   -1.710110   -2.170867
     99          1           0        2.379420    0.173567   -2.053013
    100          1           0        4.127143   -1.279901    0.114715
    101          1           0        5.370136    2.042781   -2.259764
    102          1           0        5.151598    0.301933   -3.111771
    103          1           0        3.810268    1.459270   -2.485903
    104          1           0        6.716126    1.193536   -0.018048
    105          1           0        6.265673   -0.258130    0.819394
    106          1           0        7.335319   -1.236739   -1.409348
    107          1           0        7.469329    0.412722   -1.943142
    108          1           0        8.898502    0.934204    0.119769
    109          1           0        8.538407   -0.737875    0.687197
    110          1           0       10.222507   -0.077878   -1.815087
    111          1           0        9.124476   -2.356106   -2.190970
    112          1           0       10.809448   -2.352521   -1.773486
    113          1           0        9.489032   -2.787132   -0.500762
    114          1           0       10.994532    0.746041    0.361117
    115          1           0       11.112993   -0.845916    0.844390
    116          1           0       12.897841   -1.543696   -0.861946
    117          1           0       12.894080    0.189350   -1.563174
    118          1           0       13.722037    1.098958    0.584732
    119          1           0       13.473996   -0.492423    1.269187
    120          1           0       15.219590   -0.066803   -1.264759
    121          1           0       14.703179   -2.392190   -0.749986
    122          1           0       16.483628   -2.132536   -0.907904
    123          1           0       15.624724   -2.243335    0.734749
    124          1           0       15.939164    1.563817    0.826690
    125          1           0       16.475716    0.076540    1.525111
    126          1           0       18.101866   -0.594095    0.005531
    127          1           0       17.733958    0.772692   -1.206961
    128          1           0       18.093824    2.594296    0.765308
    129          1           0       18.793431    1.112315    1.837954
    130          1           0       20.452388    0.484529    0.292426
    131          1           0       19.848753    3.349784   -1.326393
    132          1           0       21.138860    2.054619   -1.561456
    133          1           0       19.528276    1.651137   -2.035293
    134          1           0       20.767854    2.054449    2.394033
    135          1           0       21.684793    2.252538    0.740198
    136          1           0       20.364616    3.331331    1.286722
    137          1           0       -6.803485    1.789471    0.124414
    138          1           0       -7.564498   -0.300125   -0.199512
 ---------------------------------------------------------------------

 SCF Done:  E(RB3LYP) =  -2733.07616997     A.U. after   17 cycles

 Excitation energies and oscillator strengths:

 Excited State   1:      Singlet-A      2.0248 eV  612.33 nm  f=0.1366  <S**2>=0.000
     235 -> 238       -0.32799
     236 -> 237        0.62222
 This state for optimization and/or second-order correction.
 Total Energy, E(TD-HF/TD-KS) =  -2733.00176007
 Copying the excited state density for this state as the 1-particle RhoCI density.

 The electronic state is 1-A.
 Alpha  occ. eigenvalues --  -19.18808 -19.16885 -19.14584 -19.12898 -19.12766
 Alpha  occ. eigenvalues --  -14.36292 -14.35989 -14.32999 -14.30334 -10.32361
 Alpha  occ. eigenvalues --  -10.32128 -10.28080 -10.26660 -10.25403 -10.24185
 Alpha  occ. eigenvalues --  -10.23941 -10.23373 -10.23342 -10.22937 -10.22930
 Alpha  occ. eigenvalues --  -10.22081 -10.21918 -10.21790 -10.21616 -10.21613
 Alpha  occ. eigenvalues --  -10.21490 -10.21385 -10.21175 -10.20812 -10.20688
 Alpha  occ. eigenvalues --  -10.20666 -10.20564 -10.20462 -10.20446 -10.20230
 Alpha  occ. eigenvalues --  -10.20193 -10.20025 -10.19955 -10.19876 -10.19851
 Alpha  occ. eigenvalues --  -10.19847 -10.19548 -10.19448 -10.19443 -10.19151
 Alpha  occ. eigenvalues --  -10.19146 -10.19102 -10.19062 -10.19035 -10.19001
 Alpha  occ. eigenvalues --  -10.18977 -10.18915 -10.18896 -10.18526 -10.18460
 Alpha  occ. eigenvalues --  -10.18405 -10.18341 -10.18321 -10.18263 -10.18204
 Alpha  occ. eigenvalues --  -10.18065 -10.17736 -10.17453 -10.16681  -1.09725
 Alpha  occ. eigenvalues --   -1.08588  -1.06346  -1.01398  -0.99217  -0.96526
 Alpha  occ. eigenvalues --   -0.95269  -0.92907  -0.91059  -0.85815  -0.82855
 Alpha  occ. eigenvalues --   -0.82444  -0.81676  -0.81374  -0.81109  -0.80436
 Alpha  occ. eigenvalues --   -0.79979  -0.79367  -0.78695  -0.78267  -0.77827
 Alpha  occ. eigenvalues --   -0.77210  -0.75918  -0.75311  -0.75008  -0.73806
 Alpha  occ. eigenvalues --   -0.73142  -0.72823  -0.72536  -0.71769  -0.70271
 Alpha  occ. eigenvalues --   -0.69363  -0.68990  -0.68245  -0.68092  -0.67718
 Alpha  occ. eigenvalues --   -0.67548  -0.66982  -0.66422  -0.65607  -0.64975
 Alpha  occ. eigenvalues --   -0.64396  -0.62959  -0.61556  -0.61329  -0.60995
 Alpha  occ. eigenvalues --   -0.60605  -0.58386  -0.58192  -0.57325  -0.56714
 Alpha  occ. eigenvalues --   -0.56185  -0.55849  -0.55623  -0.55065  -0.54712
 Alpha  occ. eigenvalues --   -0.54213  -0.53924  -0.53906  -0.53273  -0.52963
 Alpha  occ. eigenvalues --   -0.52223  -0.51906  -0.51707  -0.50753  -0.50562
 Alpha  occ. eigenvalues --   -0.49111  -0.48531  -0.48323  -0.48130  -0.47872
 Alpha  occ. eigenvalues --   -0.47754  -0.47529  -0.47227  -0.47139  -0.46986
 Alpha  occ. eigenvalues --   -0.46686  -0.46539  -0.46404  -0.46155  -0.45989
 Alpha  occ. eigenvalues --   -0.45616  -0.45206  -0.44999  -0.44705  -0.44590
 Alpha  occ. eigenvalues --   -0.44250  -0.44236  -0.44152  -0.43885  -0.43586
 Alpha  occ. eigenvalues --   -0.43319  -0.43233  -0.43101  -0.42843  -0.42723
 Alpha  occ. eigenvalues --   -0.42599  -0.41852  -0.41713  -0.41458  -0.41413
 Alpha  occ. eigenvalues --   -0.41282  -0.41101  -0.40813  -0.40503  -0.40403
 Alpha  occ. eigenvalues --   -0.40327  -0.39878  -0.39848  -0.39678  -0.39547
 Alpha  occ. eigenvalues --   -0.39396  -0.39225  -0.39083  -0.38954  -0.38738
 Alpha  occ. eigenvalues --   -0.38610  -0.38081  -0.37737  -0.37689  -0.37335
 Alpha  occ. eigenvalues --   -0.37298  -0.37171  -0.36875  -0.36639  -0.36582
 Alpha  occ. eigenvalues --   -0.36222  -0.36159  -0.36109  -0.35905  -0.35605
 Alpha  occ. eigenvalues --   -0.35526  -0.35467  -0.35234  -0.35044  -0.34708
 Alpha  occ. eigenvalues --   -0.34469  -0.34315  -0.34207  -0.33961  -0.33792
 Alpha  occ. eigenvalues --   -0.33336  -0.32936  -0.32909  -0.32426  -0.32397
 Alpha  occ. eigenvalues --   -0.31954  -0.31647  -0.31439  -0.31230  -0.31169
 Alpha  occ. eigenvalues --   -0.30818  -0.30490  -0.30385  -0.30144  -0.29899
 Alpha  occ. eigenvalues --   -0.29097  -0.28774  -0.28719  -0.28530  -0.28026
 Alpha  occ. eigenvalues --   -0.27933  -0.27720  -0.26787  -0.26156  -0.25733
 Alpha  occ. eigenvalues --   -0.25077  -0.24249  -0.23665  -0.22894  -0.20216
 Alpha  occ. eigenvalues --   -0.18137
 Alpha virt. eigenvalues --   -0.09356  -0.08360  -0.03944  -0.02364  -0.00931
 Alpha virt. eigenvalues --   -0.00197  -0.00031   0.00617   0.01640   0.03890
 Alpha virt. eigenvalues --    0.03950   0.03997   0.04107   0.04407   0.04842

 Mulliken charges:
               1
     1  C    0.002266
     2  C   -0.069756
     3  C   -0.070276
     4  C   -0.129277
     5  N   -0.224521
     6  C   -0.038559
     7  C   -0.001590
     8  C   -0.075287
     9  C    0.050057
    10  C    0.193036
    11  C   -0.017833
    12  C    0.069822
    13  C    0.201730
    14  O   -0.262702
    15  O   -0.308771
    16  N   -0.117036
    17  C    0.078321
    18  C   -0.073964
    19  C    0.059149
    20  C    0.167570
    21  C   -0.017429
    22  C   -0.138900
    23  C   -0.072266
    24  N   -0.303100
    25  C    0.030671
    26  C   -0.068092
    27  C   -0.122763
    28  C    0.065224
    29  C    0.150442
    30  C   -0.027177
    31  C    0.001932
    32  N   -0.067218
    33  C    0.158986
    34  C   -0.173056
    35  C   -0.051623
    36  C    0.131060
    37  C    0.115733
    38  C    0.068615
    39  O   -0.094734
    40  C   -0.016962
    41  C    0.180024
    42  O   -0.145961
    43  O   -0.352821
    44  C    0.122702
    45  C    0.195424
    46  C   -0.058601
    47  C   -0.141137
    48  C    0.077162
    49  C    0.060311
    50  C    0.020777
    51  C    0.014133
    52  C   -0.088747
    53  C    0.031256
    54  C    0.062015
    55  C    0.092194
    56  C   -0.078661
    57  C   -0.003702
    58  C    0.007590
    59  C    0.081657
    60  C   -0.035543
    61  C   -0.079941
    62  C   -0.062061
    63  C   -0.038253
    64  C    0.070128
    65  H   -0.014258
    66  H   -0.029389
    67  H    0.025148
    68  H    0.011673
    69  H    0.009049
    70  H   -0.023132
    71  H   -0.004751
    72  H   -0.037936
    73  H    0.011048
    74  H    0.011778
    75  H    0.014401
    76  H    0.057347
    77  H    0.029710
    78  H    0.024228
    79  H    0.051928
    80  H    0.057183
    81  H    0.064948
    82  H    0.039432
    83  H    0.000888
    84  H   -0.026037
    85  H    0.013499
    86  H    0.024392
    87  H    0.021881
    88  H    0.013212
    89  H    0.015773
    90  H    0.020793
    91  H    0.031265
    92  H    0.003433
    93  H    0.028406
    94  H    0.044761
    95  H    0.048172
    96  H    0.049805
    97  H    0.040043
    98  H    0.063746
    99  H    0.017425
   100  H   -0.011488
   101  H    0.018046
   102  H    0.060249
   103  H    0.022768
   104  H   -0.033400
   105  H   -0.001528
   106  H   -0.014430
   107  H   -0.014694
   108  H    0.000894
   109  H   -0.025470
   110  H   -0.016458
   111  H    0.022115
   112  H   -0.002637
   113  H    0.011044
   114  H   -0.005247
   115  H   -0.031163
   116  H    0.009158
   117  H    0.011587
   118  H   -0.001284
   119  H   -0.014676
   120  H   -0.022598
   121  H    0.000367
   122  H    0.028543
   123  H    0.003129
   124  H   -0.004387
   125  H   -0.016117
   126  H   -0.005798
   127  H    0.006709
   128  H    0.006426
   129  H    0.007974
   130  H    0.011228
   131  H    0.033532
   132  H    0.002650
   133  H    0.029124
   134  H    0.030631
   135  H   -0.018536
   136  H   -0.007908
   137  H    0.142137
   138  H    0.147980
 Sum of Mulliken charges =   0.00000

 Dipole moment (field-independent basis, Debye):
    X=              3.3586    Y=              3.8415    Z=              0.1101  Tot=              5.1039
 Quadrupole moment (field-independent basis, Debye-Ang):
   XX=           -351.9671   YY=           -378.5800   ZZ=           -394.3873
   XY=            -16.7724   XZ=              4.6766   YZ=             -2.5416

 Normal termination of Gaussian 09 at Wed Jul 24 07:36:43 2019.
