 Gaussian 09, Revision D.01,
 Gaussian 09:  ES64L-G09RevD.01 24-Apr-2013

 --------------------------
 # td=(NStates=1) B3LYP/SVP
 --------------------------

 --
 TD
 --
 Symbolic Z-matrix:
 Charge =  0 Multiplicity = 1

                         Standard orientation:
 ---------------------------------------------------------------------
 Center     Atomic      Atomic             Coordinates (Angstroms)
 Number     Number       Type             X           Y           Z
 ---------------------------------------------------------------------
      1          6           0       -5.053231   -1.934057    0.594490
      2          6           0       -4.944464    2.808315    1.603734
      3          6           0       -9.440971    3.133326   -0.245082
      4          6           0       -9.806491   -1.609921   -0.906017
      5          7           0       -5.177604    0.490280    0.892715
      6          6           0       -4.446665   -0.709667    0.918106
      7          6           0       -3.012918   -0.443828    1.428033
      8          6           0       -3.133486    1.070129    1.951568
      9          6           0       -4.454381    1.484915    1.406838
     10          6           0       -2.774276    1.321541    3.438191
     11          6           0       -2.053272   -0.693337    0.313743
     12          6           0       -0.668126   -0.529804    0.695573
     13          6           0        0.259397   -0.928126   -0.520217
     14          8           0       -0.001841   -1.321851   -1.578838
     15          8           0        1.632664   -0.744024   -0.132132
     16          7           0       -7.104422    2.740808    0.339498
     17          6           0       -6.094304    3.385339    0.951490
     18          6           0       -6.508619    4.773078    1.087036
     19          6           0       -7.728660    4.961732    0.434946
     20          6           0       -8.176490    3.568859    0.141883
     21          6           0       -5.524019    5.833233    1.661971
     22          6           0       -8.363253    6.346468    0.291590
     23          6           0       -9.194646    6.527652   -0.846442
     24          7           0       -9.281784    0.841282   -0.410319
     25          6           0       -9.925180    1.939104   -0.637555
     26          6           0      -11.326399    1.705362   -0.975002
     27          6           0      -11.452935    0.372691   -1.268939
     28          6           0      -10.134257   -0.234468   -0.931416
     29          6           0      -12.464346    2.752726   -1.327142
     30          6           0      -12.615861   -0.435789   -1.875315
     31          6           0      -12.586382   -0.605956   -3.385603
     32          7           0       -7.410632   -1.299474   -0.170991
     33          6           0       -8.527984   -2.063083   -0.641081
     34          6           0       -8.091334   -3.445032   -0.696942
     35          6           0       -6.821653   -3.419759   -0.198749
     36          6           0       -6.382142   -2.093396    0.118752
     37          6           0       -8.816760   -4.652717   -1.113266
     38          6           0       -5.650570   -4.315910    0.043936
     39          8           0       -5.495150   -5.491696   -0.073337
     40          6           0       -4.443234   -3.321238    0.522307
     41          6           0       -3.784310   -3.762433    1.759966
     42          8           0       -4.219076   -3.385088    2.817376
     43          8           0       -3.048906   -4.800715    1.492971
     44          6           0       -2.457486   -5.440970    2.712181
     45          6           0        2.595865   -0.949915   -1.095891
     46          6           0        3.896807   -0.533456   -0.389341
     47          6           0        4.955749    0.019043   -1.058205
     48          6           0        5.099565    0.564919   -2.511821
     49          6           0        6.203849    0.283344   -0.267299
     50          6           0        7.583753   -0.468950   -0.835383
     51          6           0        8.856890   -0.160593   -0.076761
     52          6           0       10.171966   -0.610669   -0.733766
     53          6           0       10.036845   -2.260431   -0.971316
     54          6           0       11.329654   -0.176546    0.156010
     55          6           0       12.728965   -0.607334   -0.489533
     56          6           0       13.931772   -0.009167    0.275195
     57          6           0       15.205871   -0.273613   -0.317755
     58          6           0       15.616637   -1.674626   -0.328400
     59          6           0       16.270365    0.690707    0.354497
     60          6           0       17.684689    0.659334   -0.173157
     61          6           0       18.732512    1.684785    0.494174
     62          6           0       20.204877    1.557925   -0.105180
     63          6           0       20.392095    2.075881   -1.528206
     64          6           0       21.058376    2.373066    0.746623
     65          1           0       -4.480939    3.651633    2.019441
     66          1           0      -10.107064    4.075446   -0.261100
     67          1           0      -10.652745   -2.223319   -1.373284
     68          1           0       -2.472924   -1.118145    2.281468
     69          1           0       -2.491582    1.868983    1.247731
     70          1           0       -1.842888    1.090965    3.676990
     71          1           0       -2.652886    2.526958    3.630142
     72          1           0       -3.533826    0.983857    3.945904
     73          1           0       -2.187534   -1.820170   -0.114295
     74          1           0       -2.173471    0.088709   -0.365277
     75          1           0       -0.342802    0.424929    1.098843
     76          1           0       -0.593965   -1.166677    1.571796
     77          1           0       -4.493091    5.516375    1.295807
     78          1           0       -5.864708    6.947456    1.242665
     79          1           0       -5.477256    5.826711    2.747321
     80          1           0       -8.054261    7.241608    0.749379
     81          1           0       -9.515645    5.774024   -1.262704
     82          1           0       -9.519321    7.619315   -1.051999
     83          1           0      -12.771765    3.472063   -0.294041
     84          1           0      -12.055689    3.407294   -2.143414
     85          1           0      -13.465176    2.419955   -1.485013
     86          1           0      -12.418246   -1.568618   -1.471034
     87          1           0      -13.575574   -0.084685   -1.493274
     88          1           0      -12.540033    0.323016   -3.957640
     89          1           0      -11.846902   -1.179693   -3.620242
     90          1           0      -13.561508   -1.154027   -3.838552
     91          1           0       -9.346358   -5.180963   -0.051649
     92          1           0       -9.538107   -4.111935   -1.926405
     93          1           0       -8.162858   -5.572388   -1.368336
     94          1           0       -3.784067   -3.281500   -0.217743
     95          1           0       -1.545303   -6.041808    2.099636
     96          1           0       -2.278320   -4.731975    3.493176
     97          1           0       -3.266626   -6.041642    3.106657
     98          1           0        2.502252   -1.906256   -1.398554
     99          1           0        2.406704   -0.280229   -1.722784
    100          1           0        4.094829   -0.879012    0.682814
    101          1           0        5.491934    1.583159   -2.550516
    102          1           0        5.342571   -0.296995   -3.416581
    103          1           0        3.980147    0.772475   -2.858852
    104          1           0        6.341891    1.230652   -0.191176
    105          1           0        6.112239    0.071176    0.867380
    106          1           0        7.392472   -1.498109   -0.728538
    107          1           0        7.698621   -0.075149   -1.926687
    108          1           0        8.700963    0.955544    0.255641
    109          1           0        8.689189   -0.643580    0.882148
    110          1           0        9.993851   -0.045094   -1.691884
    111          1           0        9.293834   -2.536060   -1.855388
    112          1           0       10.944662   -2.561854   -1.442104
    113          1           0        9.968535   -2.769516   -0.007332
    114          1           0       11.165909    0.848877    0.021252
    115          1           0       11.297056   -0.764867    1.198694
    116          1           0       12.635806   -1.537623   -0.595074
    117          1           0       12.704392   -0.222415   -1.668967
    118          1           0       13.824252    1.062331    0.470033
    119          1           0       13.837940   -0.568134    1.294391
    120          1           0       14.930636   -0.051522   -1.255823
    121          1           0       14.931045   -1.998735   -1.055212
    122          1           0       16.509750   -1.695155   -0.581193
    123          1           0       15.370730   -2.086113    0.709660
    124          1           0       15.914333    1.679554    0.097092
    125          1           0       16.169759    0.413799    1.346460
    126          1           0       18.198011   -0.345589    0.126746
    127          1           0       17.741219    0.780518   -1.303941
    128          1           0       18.454449    2.879437    0.500398
    129          1           0       18.703807    1.556803    1.626946
    130          1           0       20.353359    0.383853    0.013245
    131          1           0       19.958880    3.130951   -1.758372
    132          1           0       21.488961    2.074047   -1.504323
    133          1           0       19.989465    1.360848   -2.308874
    134          1           0       21.143371    2.053118    1.911955
    135          1           0       22.091299    2.419101    0.499932
    136          1           0       20.761841    3.338130    0.772382
    137          1           0       -7.208362    1.676919    0.519135
    138          1           0       -7.173947   -0.126395   -0.562019
 ---------------------------------------------------------------------

 SCF Done:  E(RB3LYP) =  -2732.84984749     A.U. after   17 cycles

 Excitation energies and oscillator strengths:

 Excited State   1:      Singlet-A      2.0762 eV  597.16 nm  f=0.1264  <S**2>=0.000
     235 -> 238       -0.33556
     236 -> 237        0.61840
 This state for optimization and/or second-order correction.
 Total Energy, E(TD-HF/TD-KS) =  -2732.77354781
 Copying the excited state density for this state as the 1-particle RhoCI density.

 The electronic state is 1-A.
 Alpha  occ. eigenvalues --  -19.18201 -19.14882 -19.14305 -19.12559 -19.11230
 Alpha  occ. eigenvalues --  -14.37633 -14.37025 -14.32536 -14.29616 -10.31863
 Alpha  occ. eigenvalues --  -10.30069 -10.27974 -10.25997 -10.24155 -10.23663
 Alpha  occ. eigenvalues --  -10.23581 -10.23467 -10.23463 -10.22874 -10.22478
 Alpha  occ. eigenvalues --  -10.22067 -10.21986 -10.21902 -10.21748 -10.21646
 Alpha  occ. eigenvalues --  -10.21632 -10.21368 -10.21323 -10.21034 -10.20882
 Alpha  occ. eigenvalues --  -10.20788 -10.20668 -10.20536 -10.20380 -10.20288
 Alpha  occ. eigenvalues --  -10.20276 -10.20221 -10.19951 -10.19839 -10.19658
 Alpha  occ. eigenvalues --  -10.19558 -10.19415 -10.19377 -10.19343 -10.19218
 Alpha  occ. eigenvalues --  -10.19072 -10.19029 -10.18990 -10.18928 -10.18825
 Alpha  occ. eigenvalues --  -10.18789 -10.18779 -10.18722 -10.18513 -10.18288
 Alpha  occ. eigenvalues --  -10.18005 -10.17920 -10.17852 -10.17765 -10.17693
 Alpha  occ. eigenvalues --  -10.17008 -10.16899 -10.15842 -10.15223  -1.10116
 Alpha  occ. eigenvalues --   -1.09989  -1.03864  -1.01961  -1.00583  -0.98560
 Alpha  occ. eigenvalues --   -0.97176  -0.93887  -0.92934  -0.83833  -0.83697
 Alpha  occ. eigenvalues --   -0.82870  -0.81174  -0.81005  -0.80886  -0.80614
 Alpha  occ. eigenvalues --   -0.80072  -0.79946  -0.79141  -0.78122  -0.77527
 Alpha  occ. eigenvalues --   -0.76177  -0.75680  -0.75436  -0.74594  -0.74080
 Alpha  occ. eigenvalues --   -0.73602  -0.73371  -0.72585  -0.71040  -0.69955
 Alpha  occ. eigenvalues --   -0.69740  -0.68960  -0.68294  -0.68227  -0.67222
 Alpha  occ. eigenvalues --   -0.67154  -0.66688  -0.66599  -0.65447  -0.64979
 Alpha  occ. eigenvalues --   -0.64362  -0.63147  -0.62463  -0.62063  -0.61193
 Alpha  occ. eigenvalues --   -0.60777  -0.58303  -0.58037  -0.57730  -0.57203
 Alpha  occ. eigenvalues --   -0.56892  -0.56465  -0.56193  -0.55991  -0.55182
 Alpha  occ. eigenvalues --   -0.54734  -0.54647  -0.54183  -0.53421  -0.52754
 Alpha  occ. eigenvalues --   -0.52393  -0.51809  -0.51584  -0.51256  -0.50984
 Alpha  occ. eigenvalues --   -0.50194  -0.49518  -0.49037  -0.48730  -0.48602
 Alpha  occ. eigenvalues --   -0.48480  -0.47788  -0.47527  -0.47304  -0.46899
 Alpha  occ. eigenvalues --   -0.46781  -0.46680  -0.46208  -0.45845  -0.45740
 Alpha  occ. eigenvalues --   -0.45349  -0.45276  -0.45181  -0.44954  -0.44687
 Alpha  occ. eigenvalues --   -0.44367  -0.44194  -0.44043  -0.43796  -0.43566
 Alpha  occ. eigenvalues --   -0.43296  -0.43173  -0.42906  -0.42732  -0.42505
 Alpha  occ. eigenvalues --   -0.41970  -0.41840  -0.41628  -0.41533  -0.41352
 Alpha  occ. eigenvalues --   -0.41103  -0.41082  -0.40817  -0.40776  -0.40341
 Alpha  occ. eigenvalues --   -0.40091  -0.40001  -0.39836  -0.39534  -0.39484
 Alpha  occ. eigenvalues --   -0.39256  -0.39048  -0.38752  -0.38539  -0.38492
 Alpha  occ. eigenvalues --   -0.38473  -0.38378  -0.38106  -0.37801  -0.37578
 Alpha  occ. eigenvalues --   -0.37480  -0.37405  -0.37123  -0.36979  -0.36514
 Alpha  occ. eigenvalues --   -0.36362  -0.36272  -0.36162  -0.36090  -0.35693
 Alpha  occ. eigenvalues --   -0.35350  -0.35189  -0.34866  -0.34709  -0.34426
 Alpha  occ. eigenvalues --   -0.34088  -0.33819  -0.33801  -0.33600  -0.33264
 Alpha  occ. eigenvalues --   -0.33144  -0.33018  -0.32637  -0.32485  -0.32358
 Alpha  occ. eigenvalues --   -0.32273  -0.32128  -0.31749  -0.31474  -0.31317
 Alpha  occ. eigenvalues --   -0.30941  -0.30615  -0.30527  -0.30162  -0.30048
 Alpha  occ. eigenvalues --   -0.29781  -0.29415  -0.28728  -0.28197  -0.27754
 Alpha  occ. eigenvalues --   -0.27331  -0.27105  -0.26453  -0.26027  -0.25457
 Alpha  occ. eigenvalues --   -0.24680  -0.24207  -0.24056  -0.22574  -0.19619
 Alpha  occ. eigenvalues --   -0.18817
 Alpha virt. eigenvalues --   -0.09781  -0.07803  -0.04323  -0.02740  -0.00318
 Alpha virt. eigenvalues --    0.00088   0.00422   0.00769   0.01540   0.02485
 Alpha virt. eigenvalues --    0.03215   0.03579   0.04023   0.04233   0.04597

 Mulliken charges:
               1
     1  C    0.061021
     2  C    0.002330
     3  C   -0.074986
     4  C   -0.099159
     5  N   -0.197744
     6  C   -0.028338
     7  C   -0.077240
     8  C   -0.100038
     9  C    0.036879
    10  C    0.189453
    11  C    0.043731
    12  C    0.039536
    13  C    0.181262
    14  O   -0.158326
    15  O   -0.395399
    16  N   -0.062245
    17  C    0.004250
    18  C   -0.145560
    19  C    0.048296
    20  C    0.013366
    21  C    0.023442
    22  C   -0.031525
    23  C    0.059774
    24  N   -0.251158
    25  C    0.086118
    26  C   -0.129914
    27  C   -0.055618
    28  C    0.010155
    29  C    0.018618
    30  C    0.023040
    31  C    0.069501
    32  N   -0.128087
    33  C    0.117113
    34  C   -0.117467
    35  C   -0.001657
    36  C    0.017088
    37  C   -0.030988
    38  C    0.085415
    39  O   -0.137209
    40  C    0.005034
    41  C    0.153490
    42  O   -0.235696
    43  O   -0.278646
    44  C    0.161428
    45  C    0.509334
    46  C   -0.155882
    47  C   -0.113997
    48  C    0.000381
    49  C    0.091815
    50  C   -0.007608
    51  C    0.006861
    52  C   -0.112443
    53  C   -0.001713
    54  C    0.084315
    55  C    0.025336
    56  C    0.048090
    57  C   -0.046226
    58  C    0.203141
    59  C    0.106337
    60  C    0.001466
    61  C   -0.054942
    62  C   -0.100718
    63  C    0.015700
    64  C    0.072944
    65  H   -0.073150
    66  H    0.000085
    67  H    0.012604
    68  H    0.027386
    69  H    0.022958
    70  H   -0.022323
    71  H    0.008976
    72  H   -0.000109
    73  H    0.057263
    74  H   -0.021312
    75  H    0.023723
    76  H    0.000153
    77  H    0.048226
    78  H    0.046503
    79  H    0.036245
    80  H   -0.009320
    81  H   -0.062036
    82  H    0.047130
    83  H    0.020437
    84  H    0.043531
    85  H    0.011705
    86  H    0.013358
    87  H    0.009860
    88  H    0.011627
    89  H   -0.037788
    90  H    0.015896
    91  H    0.062671
    92  H    0.059097
    93  H    0.064193
    94  H   -0.009936
    95  H    0.081637
    96  H    0.040160
    97  H    0.039636
    98  H   -0.015861
    99  H   -0.101697
   100  H    0.014129
   101  H    0.034504
   102  H    0.068633
   103  H    0.007581
   104  H   -0.055333
   105  H   -0.017192
   106  H    0.003905
   107  H    0.011227
   108  H   -0.006971
   109  H   -0.030564
   110  H    0.003366
   111  H    0.034793
   112  H    0.000025
   113  H    0.021222
   114  H   -0.009848
   115  H    0.025633
   116  H   -0.070082
   117  H   -0.009667
   118  H   -0.013009
   119  H   -0.021057
   120  H   -0.073504
   121  H   -0.015981
   122  H   -0.075187
   123  H   -0.002324
   124  H   -0.011433
   125  H   -0.026170
   126  H    0.010437
   127  H    0.008496
   128  H   -0.008497
   129  H   -0.000872
   130  H    0.011819
   131  H    0.028244
   132  H    0.012850
   133  H    0.019843
   134  H    0.005066
   135  H   -0.014128
   136  H   -0.027800
   137  H    0.188544
   138  H    0.242250
 Sum of Mulliken charges =   0.00000

 Dipole moment (field-independent basis, Debye):
    X=              2.3552    Y=              4.0943    Z=             -0.1029  Tot=              4.7245
 Quadrupole moment (field-independent basis, Debye-Ang):
   XX=           -372.8042   YY=           -374.8904   ZZ=           -392.0315
   XY=            -23.0457   XZ=             11.9820   YZ=             -2.0808

 Normal termination of Gaussian 09 at Sat Aug  3 20:29:20 2019.
