 Gaussian 09, Revision D.01,
 Gaussian 09:  ES64L-G09RevD.01 24-Apr-2013

 --------------------------
 # td=(NStates=1) B3LYP/SVP
 --------------------------

 --
 TD
 --
 Symbolic Z-matrix:
 Charge =  0 Multiplicity = 1

                         Standard orientation:
 ---------------------------------------------------------------------
 Center     Atomic      Atomic             Coordinates (Angstroms)
 Number     Number       Type             X           Y           Z
 ---------------------------------------------------------------------
      1          6           0       -5.124605   -1.792428    0.495209
      2          6           0       -4.718782    2.822713    1.372717
      3          6           0       -9.387390    3.259072   -0.289582
      4          6           0       -9.887085   -1.464281   -0.801899
      5          7           0       -5.261477    0.497770    0.894574
      6          6           0       -4.547063   -0.712245    0.921858
      7          6           0       -3.083972   -0.540296    1.311182
      8          6           0       -3.075574    0.875995    1.946842
      9          6           0       -4.467104    1.370889    1.357547
     10          6           0       -3.324528    0.886693    3.561566
     11          6           0       -2.134600   -0.601501    0.132892
     12          6           0       -0.693508   -0.698780    0.538585
     13          6           0        0.392284   -1.001248   -0.551765
     14          8           0        0.093295   -1.399141   -1.648198
     15          8           0        1.626366   -0.686911   -0.196269
     16          7           0       -7.016824    2.769633    0.475247
     17          6           0       -5.894292    3.348889    0.969068
     18          6           0       -6.290587    4.777108    1.003651
     19          6           0       -7.561697    4.969985    0.654907
     20          6           0       -8.138343    3.570999    0.238296
     21          6           0       -5.423993    5.857675    1.602517
     22          6           0       -8.285371    6.206316    0.493169
     23          6           0       -9.001506    6.620153   -0.639435
     24          7           0       -9.261886    0.806173   -0.372303
     25          6           0       -9.891435    2.033308   -0.562606
     26          6           0      -11.189846    1.840168   -1.022373
     27          6           0      -11.454655    0.443440   -1.086238
     28          6           0      -10.145480   -0.179798   -0.771816
     29          6           0      -12.253577    2.763005   -1.360188
     30          6           0      -12.634336   -0.278654   -1.605945
     31          6           0      -12.557459   -0.520853   -3.162586
     32          7           0       -7.617646   -1.318984   -0.242503
     33          6           0       -8.663364   -2.070678   -0.592811
     34          6           0       -8.235460   -3.436613   -0.516381
     35          6           0       -6.797542   -3.362159   -0.116972
     36          6           0       -6.497598   -1.990284    0.040440
     37          6           0       -9.031930   -4.508047   -0.889472
     38          6           0       -5.593128   -4.232370    0.028054
     39          8           0       -5.618560   -5.449926    0.057180
     40          6           0       -4.458638   -3.358628    0.409713
     41          6           0       -3.803663   -3.845077    1.726960
     42          8           0       -4.099580   -3.436483    2.824440
     43          8           0       -3.113397   -4.966063    1.527279
     44          6           0       -2.603419   -5.477354    2.695474
     45          6           0        2.721681   -1.044557   -1.195203
     46          6           0        4.057915   -0.570697   -0.760605
     47          6           0        4.974048    0.216426   -1.385640
     48          6           0        4.878771    0.687302   -2.767920
     49          6           0        6.403074    0.309600   -0.722329
     50          6           0        7.652481   -0.357367   -1.329153
     51          6           0        8.848861   -0.058337   -0.471781
     52          6           0       10.114159   -0.709480   -1.065140
     53          6           0       10.052318   -2.234504   -1.270712
     54          6           0       11.243900   -0.205593   -0.005969
     55          6           0       12.697573   -0.298230   -0.700961
     56          6           0       13.808180    0.217539    0.095988
     57          6           0       15.279251   -0.158589   -0.235113
     58          6           0       15.570216   -1.531691   -0.380641
     59          6           0       16.242613    0.643758    0.663618
     60          6           0       17.708133    0.602090    0.009284
     61          6           0       18.748707    1.400960    0.787865
     62          6           0       20.279101    1.438692    0.277705
     63          6           0       20.269802    2.228532   -1.032711
     64          6           0       21.190577    2.005000    1.420751
     65          1           0       -3.878716    3.456157    1.607625
     66          1           0       -9.986624    4.171489   -0.655343
     67          1           0      -10.517437   -2.328700   -1.224712
     68          1           0       -2.967575   -1.644484    1.939088
     69          1           0       -2.155737    1.636703    1.732293
     70          1           0       -2.346873    0.535895    4.149530
     71          1           0       -3.400775    1.957877    4.132728
     72          1           0       -4.247926    0.159167    3.788404
     73          1           0       -2.434035   -1.459919   -0.636508
     74          1           0       -2.241506    0.390843   -0.554316
     75          1           0       -0.095531    0.081904    1.119893
     76          1           0       -0.555106   -1.459115    1.323135
     77          1           0       -4.284096    5.582531    1.222341
     78          1           0       -5.946550    6.836767    1.131113
     79          1           0       -5.289780    5.777917    2.828448
     80          1           0       -8.009134    6.879206    1.293039
     81          1           0       -9.254893    5.762483   -1.306066
     82          1           0       -9.539279    7.603691   -0.594366
     83          1           0      -12.576560    3.474291   -0.385185
     84          1           0      -11.997860    3.473693   -2.117084
     85          1           0      -13.093795    2.184704   -1.844197
     86          1           0      -12.688363   -1.304993   -0.869227
     87          1           0      -13.517754    0.232527   -1.294502
     88          1           0      -12.516567    0.530130   -3.613580
     89          1           0      -11.748690   -1.243236   -3.275178
     90          1           0      -13.616392   -0.754957   -3.500976
     91          1           0      -10.018517   -4.501323   -0.394064
     92          1           0       -9.275029   -4.441717   -2.042029
     93          1           0       -8.496411   -5.411074   -0.751953
     94          1           0       -3.728236   -3.644044   -0.341604
     95          1           0       -1.566278   -5.921854    2.213190
     96          1           0       -2.309370   -4.695131    3.508577
     97          1           0       -3.483793   -6.006222    3.144851
     98          1           0        2.744232   -2.098691   -1.643541
     99          1           0        2.314857   -0.546882   -2.178064
    100          1           0        4.295943   -1.086445    0.160414
    101          1           0        4.850767    1.721282   -2.703247
    102          1           0        5.482457    0.346150   -3.523167
    103          1           0        3.732303    0.748619   -3.211499
    104          1           0        6.583645    1.498073   -0.512847
    105          1           0        6.422670   -0.183945    0.348990
    106          1           0        7.591046   -1.563750   -1.216035
    107          1           0        7.693260    0.095561   -2.363443
    108          1           0        9.118550    1.131576   -0.436555
    109          1           0        8.746893   -0.472207    0.590730
    110          1           0       10.149021   -0.068734   -1.996331
    111          1           0        9.368357   -2.496173   -2.088170
    112          1           0       11.093770   -2.600772   -1.499707
    113          1           0        9.702180   -2.719475   -0.156777
    114          1           0       11.082815    0.725345    0.406076
    115          1           0       11.195093   -0.796390    0.937522
    116          1           0       12.742956   -1.493917   -0.714458
    117          1           0       12.747699    0.094269   -1.738577
    118          1           0       13.687235    1.270959    0.370565
    119          1           0       13.572189   -0.087928    1.125645
    120          1           0       15.366513    0.149161   -1.207885
    121          1           0       14.885042   -2.009868   -1.245286
    122          1           0       16.620505   -1.873907   -0.674351
    123          1           0       15.417423   -2.000274    0.581976
    124          1           0       15.692986    1.509321    0.778234
    125          1           0       16.442251    0.330290    1.678936
    126          1           0       17.907691   -0.584198   -0.122829
    127          1           0       17.779279    0.917747   -1.089891
    128          1           0       18.450431    2.405632    0.567531
    129          1           0       18.774733    1.310919    1.765808
    130          1           0       20.590688    0.342122   -0.277200
    131          1           0       20.136350    3.351262   -0.632068
    132          1           0       21.291754    2.246453   -1.586701
    133          1           0       19.423824    1.990550   -1.740554
    134          1           0       21.182863    1.269149    2.289392
    135          1           0       22.254022    2.158003    0.913201
    136          1           0       20.711592    3.017156    1.814419
    137          1           0       -7.083051    1.744949   -0.064453
    138          1           0       -7.670519   -0.311952   -0.011206
 ---------------------------------------------------------------------

 SCF Done:  E(RB3LYP) =  -2732.98339085     A.U. after   17 cycles

 Excitation energies and oscillator strengths:

 Excited State   1:      Singlet-A      2.2227 eV  557.81 nm  f=0.2270  <S**2>=0.000
     235 -> 238        0.17311
     236 -> 237        0.66713
 This state for optimization and/or second-order correction.
 Total Energy, E(TD-HF/TD-KS) =  -2732.90170848
 Copying the excited state density for this state as the 1-particle RhoCI density.

 The electronic state is 1-A.
 Alpha  occ. eigenvalues --  -19.18518 -19.18105 -19.12928 -19.11224 -19.11165
 Alpha  occ. eigenvalues --  -14.37448 -14.36297 -14.32633 -14.29335 -10.32042
 Alpha  occ. eigenvalues --  -10.30897 -10.27072 -10.26071 -10.25556 -10.24732
 Alpha  occ. eigenvalues --  -10.24192 -10.23775 -10.23005 -10.22991 -10.22938
 Alpha  occ. eigenvalues --  -10.22167 -10.22019 -10.21988 -10.21985 -10.21646
 Alpha  occ. eigenvalues --  -10.21489 -10.21445 -10.21313 -10.21250 -10.21211
 Alpha  occ. eigenvalues --  -10.21075 -10.20769 -10.20716 -10.20691 -10.20619
 Alpha  occ. eigenvalues --  -10.20534 -10.20449 -10.20418 -10.20380 -10.20368
 Alpha  occ. eigenvalues --  -10.20291 -10.20120 -10.19921 -10.19868 -10.19845
 Alpha  occ. eigenvalues --  -10.19825 -10.19739 -10.19709 -10.19578 -10.19563
 Alpha  occ. eigenvalues --  -10.19464 -10.19253 -10.19219 -10.19004 -10.18638
 Alpha  occ. eigenvalues --  -10.18627 -10.18383 -10.18340 -10.17788 -10.17689
 Alpha  occ. eigenvalues --  -10.17650 -10.17442 -10.17266 -10.16895  -1.12131
 Alpha  occ. eigenvalues --   -1.08986  -1.01912  -1.01804  -0.99636  -0.99129
 Alpha  occ. eigenvalues --   -0.97277  -0.95953  -0.92411  -0.84064  -0.82725
 Alpha  occ. eigenvalues --   -0.82358  -0.81853  -0.81333  -0.81167  -0.80776
 Alpha  occ. eigenvalues --   -0.80267  -0.79684  -0.79451  -0.79018  -0.77123
 Alpha  occ. eigenvalues --   -0.76794  -0.75881  -0.75739  -0.74432  -0.74378
 Alpha  occ. eigenvalues --   -0.74150  -0.73468  -0.73281  -0.72333  -0.70012
 Alpha  occ. eigenvalues --   -0.69578  -0.68752  -0.68025  -0.67752  -0.67619
 Alpha  occ. eigenvalues --   -0.67109  -0.66860  -0.66524  -0.65951  -0.64800
 Alpha  occ. eigenvalues --   -0.63940  -0.62074  -0.61859  -0.61604  -0.61250
 Alpha  occ. eigenvalues --   -0.60564  -0.58461  -0.58222  -0.57683  -0.57191
 Alpha  occ. eigenvalues --   -0.56838  -0.56462  -0.56206  -0.55435  -0.55082
 Alpha  occ. eigenvalues --   -0.54388  -0.53829  -0.53734  -0.53533  -0.53254
 Alpha  occ. eigenvalues --   -0.52783  -0.52223  -0.51214  -0.50941  -0.50377
 Alpha  occ. eigenvalues --   -0.49854  -0.49082  -0.48430  -0.48266  -0.47851
 Alpha  occ. eigenvalues --   -0.47830  -0.47372  -0.47278  -0.46969  -0.46756
 Alpha  occ. eigenvalues --   -0.46699  -0.46408  -0.46222  -0.45698  -0.45649
 Alpha  occ. eigenvalues --   -0.45529  -0.45472  -0.45269  -0.45020  -0.44804
 Alpha  occ. eigenvalues --   -0.44475  -0.44107  -0.43828  -0.43685  -0.43679
 Alpha  occ. eigenvalues --   -0.43316  -0.43235  -0.43005  -0.42718  -0.42554
 Alpha  occ. eigenvalues --   -0.42336  -0.41839  -0.41646  -0.41564  -0.41501
 Alpha  occ. eigenvalues --   -0.41183  -0.41031  -0.40531  -0.40273  -0.40184
 Alpha  occ. eigenvalues --   -0.40139  -0.39998  -0.39752  -0.39210  -0.39154
 Alpha  occ. eigenvalues --   -0.38944  -0.38676  -0.38503  -0.38388  -0.38104
 Alpha  occ. eigenvalues --   -0.37906  -0.37715  -0.37496  -0.37456  -0.37219
 Alpha  occ. eigenvalues --   -0.37134  -0.36992  -0.36739  -0.36558  -0.36538
 Alpha  occ. eigenvalues --   -0.36242  -0.35999  -0.35882  -0.35745  -0.35474
 Alpha  occ. eigenvalues --   -0.35180  -0.35077  -0.34961  -0.34757  -0.34706
 Alpha  occ. eigenvalues --   -0.34502  -0.34404  -0.34197  -0.33868  -0.33822
 Alpha  occ. eigenvalues --   -0.33367  -0.33109  -0.32735  -0.32687  -0.32394
 Alpha  occ. eigenvalues --   -0.32311  -0.32075  -0.31902  -0.31630  -0.31348
 Alpha  occ. eigenvalues --   -0.30908  -0.30451  -0.30368  -0.30092  -0.29851
 Alpha  occ. eigenvalues --   -0.29150  -0.28691  -0.28507  -0.28027  -0.27772
 Alpha  occ. eigenvalues --   -0.27423  -0.27400  -0.26720  -0.25700  -0.25216
 Alpha  occ. eigenvalues --   -0.24462  -0.24355  -0.24106  -0.21565  -0.20746
 Alpha  occ. eigenvalues --   -0.18881
 Alpha virt. eigenvalues --   -0.09972  -0.07223  -0.04408  -0.03163  -0.01310
 Alpha virt. eigenvalues --   -0.00749   0.00582   0.01366   0.02334   0.03400
 Alpha virt. eigenvalues --    0.03435   0.03727   0.04266   0.04346   0.04432

 Mulliken charges:
               1
     1  C    0.015144
     2  C   -0.105064
     3  C   -0.160078
     4  C   -0.116316
     5  N   -0.125515
     6  C   -0.092781
     7  C   -0.053108
     8  C   -0.083465
     9  C   -0.027907
    10  C   -0.054099
    11  C    0.031197
    12  C    0.033811
    13  C    0.147653
    14  O   -0.240754
    15  O   -0.311053
    16  N   -0.149086
    17  C    0.204576
    18  C   -0.109876
    19  C    0.007435
    20  C    0.093795
    21  C   -0.047799
    22  C   -0.081293
    23  C   -0.019803
    24  N   -0.291227
    25  C    0.153198
    26  C   -0.137672
    27  C   -0.083865
    28  C    0.165302
    29  C    0.079059
    30  C   -0.015694
    31  C    0.042180
    32  N    0.023809
    33  C   -0.025395
    34  C   -0.106731
    35  C   -0.072956
    36  C    0.086153
    37  C    0.072076
    38  C    0.041566
    39  O   -0.184044
    40  C    0.047028
    41  C    0.153524
    42  O   -0.227455
    43  O   -0.238065
    44  C    0.104666
    45  C    0.204861
    46  C   -0.065687
    47  C   -0.078816
    48  C    0.103306
    49  C   -0.036753
    50  C    0.030002
    51  C   -0.074105
    52  C   -0.079245
    53  C    0.005960
    54  C    0.037672
    55  C   -0.004866
    56  C    0.059615
    57  C    0.021983
    58  C   -0.009923
    59  C    0.096493
    60  C   -0.050924
    61  C    0.147244
    62  C   -0.160224
    63  C   -0.041092
    64  C   -0.014180
    65  H   -0.028234
    66  H   -0.000449
    67  H    0.001249
    68  H    0.063703
    69  H    0.041664
    70  H    0.031079
    71  H    0.037179
    72  H    0.069073
    73  H    0.049751
    74  H    0.022744
    75  H    0.022097
    76  H    0.008171
    77  H    0.043394
    78  H    0.059884
    79  H    0.066306
    80  H    0.007468
    81  H    0.044155
    82  H    0.047930
    83  H    0.035908
    84  H   -0.001684
    85  H    0.010996
    86  H    0.021185
    87  H   -0.002211
    88  H    0.017757
    89  H    0.037563
    90  H    0.018022
    91  H    0.027738
    92  H    0.036650
    93  H    0.021319
    94  H    0.035943
    95  H    0.061616
    96  H    0.046770
    97  H    0.047212
    98  H    0.052866
    99  H    0.025904
   100  H   -0.005431
   101  H   -0.011587
   102  H    0.031960
   103  H    0.007104
   104  H    0.020883
   105  H    0.006986
   106  H    0.031157
   107  H    0.008277
   108  H    0.017860
   109  H    0.004372
   110  H   -0.002375
   111  H    0.033647
   112  H    0.027671
   113  H    0.027974
   114  H   -0.036405
   115  H   -0.009938
   116  H    0.018775
   117  H    0.002591
   118  H   -0.026611
   119  H   -0.043916
   120  H   -0.047119
   121  H    0.017140
   122  H    0.019965
   123  H   -0.014137
   124  H   -0.037471
   125  H   -0.011382
   126  H    0.008393
   127  H   -0.002620
   128  H   -0.023877
   129  H   -0.059582
   130  H    0.010777
   131  H    0.000791
   132  H    0.022248
   133  H    0.034170
   134  H    0.037289
   135  H    0.038486
   136  H    0.032530
   137  H    0.215330
   138  H    0.142966
 Sum of Mulliken charges =   0.00000

 Dipole moment (field-independent basis, Debye):
    X=              3.2936    Y=              4.7445    Z=             -0.3798  Tot=              5.7882
 Quadrupole moment (field-independent basis, Debye-Ang):
   XX=           -365.0827   YY=           -393.1189   ZZ=           -392.3266
   XY=            -26.7431   XZ=             15.9982   YZ=              0.9728

 Normal termination of Gaussian 09 at Mon Jul 29 09:15:27 2019.
