 Gaussian 09, Revision D.01,
 Gaussian 09:  ES64L-G09RevD.01 24-Apr-2013

 --------------------------
 # td=(NStates=1) B3LYP/SVP
 --------------------------

 --
 TD
 --
 Symbolic Z-matrix:
 Charge =  0 Multiplicity = 1

                         Standard orientation:
 ---------------------------------------------------------------------
 Center     Atomic      Atomic             Coordinates (Angstroms)
 Number     Number       Type             X           Y           Z
 ---------------------------------------------------------------------
      1          6           0       -5.073339   -1.979839    0.489391
      2          6           0       -4.706849    2.724933    1.468011
      3          6           0       -9.329707    3.319352   -0.183653
      4          6           0       -9.680936   -1.542619   -0.924663
      5          7           0       -5.186351    0.409479    0.892382
      6          6           0       -4.463867   -0.767114    0.762638
      7          6           0       -3.077985   -0.551411    1.272092
      8          6           0       -3.051299    0.857175    1.851081
      9          6           0       -4.459349    1.354047    1.384951
     10          6           0       -2.887071    0.943158    3.411133
     11          6           0       -2.112258   -0.918892    0.226088
     12          6           0       -0.564867   -0.639271    0.529390
     13          6           0        0.344461   -0.958792   -0.539940
     14          8           0       -0.004936   -1.377435   -1.662045
     15          8           0        1.513302   -0.728455   -0.148864
     16          7           0       -7.087729    2.644397    0.647501
     17          6           0       -5.984916    3.298428    1.114901
     18          6           0       -6.252574    4.766927    1.193141
     19          6           0       -7.547023    4.916651    0.601396
     20          6           0       -8.122024    3.599886    0.309058
     21          6           0       -5.330318    5.796054    1.473929
     22          6           0       -8.320036    6.208963    0.598958
     23          6           0       -8.839227    6.550806   -0.672166
     24          7           0       -9.222493    0.841725   -0.617223
     25          6           0       -9.853597    2.036632   -0.523423
     26          6           0      -11.227909    1.792098   -1.050082
     27          6           0      -11.370499    0.395769   -1.328954
     28          6           0      -10.149683   -0.128342   -1.000831
     29          6           0      -12.325182    2.786413   -1.284634
     30          6           0      -12.533055   -0.269744   -1.893884
     31          6           0      -12.520749   -0.370599   -3.388055
     32          7           0       -7.426386   -1.189324   -0.309078
     33          6           0       -8.499866   -1.995585   -0.589973
     34          6           0       -8.062923   -3.376806   -0.626315
     35          6           0       -6.794097   -3.482418   -0.202373
     36          6           0       -6.423406   -2.126790   -0.023507
     37          6           0       -8.986708   -4.580413   -1.006404
     38          6           0       -5.621118   -4.298445   -0.004259
     39          8           0       -5.583291   -5.529494   -0.181406
     40          6           0       -4.483452   -3.378222    0.450928
     41          6           0       -3.852343   -3.822683    1.750480
     42          8           0       -4.192613   -3.410243    2.870104
     43          8           0       -2.869696   -4.755949    1.545440
     44          6           0       -2.463969   -5.447675    2.789873
     45          6           0        2.685921   -1.031577   -1.128673
     46          6           0        3.948870   -0.577548   -0.462063
     47          6           0        4.943797    0.203273   -0.962223
     48          6           0        4.872061    0.916658   -2.222274
     49          6           0        6.220980    0.370490   -0.226292
     50          6           0        7.439196   -0.290563   -0.979884
     51          6           0        8.783606   -0.013597   -0.159113
     52          6           0       10.064666   -0.452701   -0.834010
     53          6           0        9.965462   -1.917077   -0.965144
     54          6           0       11.228401    0.056537   -0.022233
     55          6           0       12.570983   -0.411478   -0.739648
     56          6           0       13.729000   -0.026450    0.129350
     57          6           0       15.171749   -0.192513   -0.382073
     58          6           0       15.492646   -1.682779   -0.672923
     59          6           0       16.233458    0.514343    0.524005
     60          6           0       17.627931    0.588074   -0.179247
     61          6           0       18.686963    1.414514    0.685846
     62          6           0       20.092221    1.343626    0.116173
     63          6           0       19.993705    2.251649   -1.257864
     64          6           0       21.172278    1.984117    0.971597
     65          1           0       -4.193259    3.359966    2.241936
     66          1           0      -10.308674    4.098001   -0.012894
     67          1           0      -10.370167   -2.239781   -1.189022
     68          1           0       -3.043488   -1.260044    2.134658
     69          1           0       -2.253321    1.470291    1.308860
     70          1           0       -1.943802    0.706263    4.001162
     71          1           0       -2.707890    2.087265    3.505220
     72          1           0       -3.790367    0.500515    3.871803
     73          1           0       -2.378276   -2.011315   -0.119632
     74          1           0       -2.314332   -0.293895   -0.700253
     75          1           0       -0.439227    0.423371    0.989689
     76          1           0       -0.221134   -1.327360    1.517992
     77          1           0       -4.642969    5.874136    0.546974
     78          1           0       -5.971653    6.865484    1.735488
     79          1           0       -4.650738    5.605744    2.441481
     80          1           0       -8.475791    6.499283    1.628614
     81          1           0       -8.876554    6.036207   -1.789596
     82          1           0       -9.387727    7.535888   -0.335971
     83          1           0      -12.521712    3.479649   -0.382789
     84          1           0      -12.196984    3.697695   -1.991126
     85          1           0      -13.349313    2.363016   -1.517630
     86          1           0      -12.637565   -1.254550   -1.358193
     87          1           0      -13.440121    0.167408   -1.513753
     88          1           0      -12.532852    0.611852   -3.868246
     89          1           0      -11.513198   -0.965660   -3.559387
     90          1           0      -13.429788   -0.880329   -3.825416
     91          1           0      -10.150527   -4.139492   -0.607155
     92          1           0       -8.805652   -4.721612   -2.287353
     93          1           0       -8.745682   -5.655298   -0.326122
     94          1           0       -3.629222   -3.516061   -0.231197
     95          1           0       -1.716151   -6.115179    2.467346
     96          1           0       -2.194260   -4.951015    3.681709
     97          1           0       -3.315361   -6.076109    3.211809
     98          1           0        2.724700   -2.101421   -1.416200
     99          1           0        2.326175   -0.386996   -2.042329
    100          1           0        4.081430   -1.162074    0.444873
    101          1           0        5.049123    1.986004   -2.219745
    102          1           0        5.834938    0.580473   -2.770110
    103          1           0        3.812192    0.585487   -2.772603
    104          1           0        6.342257    1.478364   -0.146175
    105          1           0        6.097504    0.017233    0.806447
    106          1           0        7.339519   -1.318082   -1.381074
    107          1           0        7.733495    0.111912   -2.077629
    108          1           0        8.941325    1.128101   -0.111161
    109          1           0        8.543953   -0.506951    0.749228
    110          1           0        9.993935   -0.025743   -1.943640
    111          1           0        9.187143   -2.235025   -1.608205
    112          1           0       10.824565   -2.493544   -1.439565
    113          1           0        9.897697   -2.380370    0.124570
    114          1           0       11.236053    1.099922   -0.136056
    115          1           0       11.080553   -0.384536    0.900946
    116          1           0       12.542444   -1.511492   -0.855724
    117          1           0       12.654965    0.036445   -1.675834
    118          1           0       13.681194    1.112609    0.237315
    119          1           0       13.903757   -0.598902    1.033189
    120          1           0       15.022468    0.437415   -1.433299
    121          1           0       14.614430   -2.074511   -1.290156
    122          1           0       16.472267   -2.045098   -1.019699
    123          1           0       15.354531   -1.960572    0.636656
    124          1           0       15.831917    1.513442    0.776325
    125          1           0       16.167356    0.106482    1.582178
    126          1           0       17.922943   -0.310330   -0.511204
    127          1           0       17.305887    1.287134   -1.110710
    128          1           0       18.309637    2.445310    0.855153
    129          1           0       18.636774    1.020304    1.611988
    130          1           0       20.377657    0.228267   -0.273240
    131          1           0       19.896117    3.448340   -1.033934
    132          1           0       21.110659    1.967637   -1.701614
    133          1           0       19.303449    1.764082   -1.988004
    134          1           0       21.376130    1.463011    1.871133
    135          1           0       22.074698    1.948825    0.182093
    136          1           0       20.945058    3.126598    1.341636
    137          1           0       -7.071456    1.708344    0.684754
    138          1           0       -7.550046   -0.163533   -0.236262
 ---------------------------------------------------------------------

 SCF Done:  E(RB3LYP) =  -2732.99119433     A.U. after   17 cycles

 Excitation energies and oscillator strengths:

 Excited State   1:      Singlet-A      2.0347 eV  609.36 nm  f=0.1086  <S**2>=0.000
     235 -> 237       -0.20250
     235 -> 238       -0.29704
     236 -> 237        0.58077
     236 -> 238       -0.16813
 This state for optimization and/or second-order correction.
 Total Energy, E(TD-HF/TD-KS) =  -2732.91642171
 Copying the excited state density for this state as the 1-particle RhoCI density.

 The electronic state is 1-A.
 Alpha  occ. eigenvalues --  -19.18986 -19.17810 -19.12880 -19.12455 -19.09970
 Alpha  occ. eigenvalues --  -14.36838 -14.36495 -14.31503 -14.28844 -10.32304
 Alpha  occ. eigenvalues --  -10.29843 -10.28567 -10.26608 -10.24535 -10.24473
 Alpha  occ. eigenvalues --  -10.24420 -10.24246 -10.23807 -10.22914 -10.22873
 Alpha  occ. eigenvalues --  -10.22390 -10.22322 -10.22090 -10.22054 -10.22012
 Alpha  occ. eigenvalues --  -10.21937 -10.21096 -10.21033 -10.20850 -10.20776
 Alpha  occ. eigenvalues --  -10.20740 -10.20604 -10.20597 -10.20514 -10.20507
 Alpha  occ. eigenvalues --  -10.20468 -10.20358 -10.20314 -10.20225 -10.20112
 Alpha  occ. eigenvalues --  -10.20093 -10.19970 -10.19882 -10.19822 -10.19498
 Alpha  occ. eigenvalues --  -10.19438 -10.19326 -10.19323 -10.19194 -10.18999
 Alpha  occ. eigenvalues --  -10.18997 -10.18761 -10.18736 -10.18732 -10.18559
 Alpha  occ. eigenvalues --  -10.18556 -10.18493 -10.18413 -10.18022 -10.18019
 Alpha  occ. eigenvalues --  -10.17997 -10.17840 -10.17444 -10.16876  -1.10291
 Alpha  occ. eigenvalues --   -1.08304  -1.01516  -0.99530  -0.98249  -0.97503
 Alpha  occ. eigenvalues --   -0.96880  -0.94869  -0.91917  -0.85853  -0.83880
 Alpha  occ. eigenvalues --   -0.82991  -0.81865  -0.81268  -0.81044  -0.80593
 Alpha  occ. eigenvalues --   -0.80247  -0.79460  -0.79089  -0.78695  -0.77651
 Alpha  occ. eigenvalues --   -0.76887  -0.75913  -0.75443  -0.74333  -0.73779
 Alpha  occ. eigenvalues --   -0.73280  -0.72917  -0.72086  -0.71547  -0.70509
 Alpha  occ. eigenvalues --   -0.69730  -0.69353  -0.68198  -0.68120  -0.67610
 Alpha  occ. eigenvalues --   -0.66471  -0.66005  -0.65251  -0.65067  -0.64989
 Alpha  occ. eigenvalues --   -0.63784  -0.62974  -0.62364  -0.61889  -0.61101
 Alpha  occ. eigenvalues --   -0.61003  -0.59783  -0.58218  -0.57944  -0.57741
 Alpha  occ. eigenvalues --   -0.56871  -0.55954  -0.55604  -0.54981  -0.54900
 Alpha  occ. eigenvalues --   -0.54750  -0.54354  -0.53722  -0.53185  -0.52813
 Alpha  occ. eigenvalues --   -0.52793  -0.51340  -0.51197  -0.50657  -0.50419
 Alpha  occ. eigenvalues --   -0.50352  -0.49813  -0.49246  -0.48703  -0.48051
 Alpha  occ. eigenvalues --   -0.47731  -0.47665  -0.47119  -0.47056  -0.46549
 Alpha  occ. eigenvalues --   -0.46471  -0.46092  -0.46018  -0.45843  -0.45468
 Alpha  occ. eigenvalues --   -0.45224  -0.45143  -0.45027  -0.44998  -0.44882
 Alpha  occ. eigenvalues --   -0.44535  -0.44484  -0.44202  -0.43781  -0.43619
 Alpha  occ. eigenvalues --   -0.43249  -0.43003  -0.42944  -0.42713  -0.42492
 Alpha  occ. eigenvalues --   -0.42030  -0.41975  -0.41810  -0.41488  -0.41190
 Alpha  occ. eigenvalues --   -0.41042  -0.40806  -0.40539  -0.40239  -0.40106
 Alpha  occ. eigenvalues --   -0.39830  -0.39580  -0.39262  -0.39146  -0.39058
 Alpha  occ. eigenvalues --   -0.38692  -0.38634  -0.38498  -0.38243  -0.38056
 Alpha  occ. eigenvalues --   -0.37985  -0.37746  -0.37498  -0.37372  -0.37303
 Alpha  occ. eigenvalues --   -0.37056  -0.37028  -0.36858  -0.36589  -0.36446
 Alpha  occ. eigenvalues --   -0.36383  -0.36265  -0.35960  -0.35516  -0.35383
 Alpha  occ. eigenvalues --   -0.35191  -0.35051  -0.34898  -0.34785  -0.34618
 Alpha  occ. eigenvalues --   -0.34109  -0.33903  -0.33721  -0.33570  -0.33317
 Alpha  occ. eigenvalues --   -0.33234  -0.32789  -0.32346  -0.32140  -0.32008
 Alpha  occ. eigenvalues --   -0.31812  -0.31653  -0.31633  -0.31344  -0.31218
 Alpha  occ. eigenvalues --   -0.30992  -0.30256  -0.30218  -0.29613  -0.29522
 Alpha  occ. eigenvalues --   -0.29136  -0.28812  -0.28161  -0.27916  -0.27868
 Alpha  occ. eigenvalues --   -0.26936  -0.26614  -0.26318  -0.25780  -0.25587
 Alpha  occ. eigenvalues --   -0.25275  -0.24989  -0.24068  -0.21174  -0.19740
 Alpha  occ. eigenvalues --   -0.18587
 Alpha virt. eigenvalues --   -0.09760  -0.08153  -0.05111  -0.03020  -0.01350
 Alpha virt. eigenvalues --   -0.01152  -0.00105   0.00828   0.02402   0.03035
 Alpha virt. eigenvalues --    0.03266   0.03604   0.03849   0.03859   0.03903

 Mulliken charges:
               1
     1  C    0.054017
     2  C   -0.052232
     3  C   -0.136152
     4  C   -0.064260
     5  N   -0.158451
     6  C   -0.103443
     7  C    0.039334
     8  C   -0.073855
     9  C   -0.024274
    10  C    0.024448
    11  C    0.029485
    12  C   -0.050174
    13  C    0.187539
    14  O   -0.298834
    15  O   -0.274308
    16  N   -0.037150
    17  C    0.029664
    18  C   -0.103656
    19  C   -0.040409
    20  C    0.192660
    21  C   -0.026951
    22  C   -0.066696
    23  C   -0.068589
    24  N   -0.272280
    25  C    0.023205
    26  C   -0.098387
    27  C   -0.083947
    28  C    0.033670
    29  C    0.010321
    30  C    0.080721
    31  C    0.021924
    32  N   -0.042469
    33  C    0.153553
    34  C   -0.159490
    35  C    0.096002
    36  C    0.062839
    37  C   -0.093643
    38  C    0.067708
    39  O   -0.190089
    40  C   -0.013884
    41  C    0.210733
    42  O   -0.249082
    43  O   -0.317102
    44  C    0.213103
    45  C    0.208538
    46  C   -0.081969
    47  C   -0.123772
    48  C    0.049193
    49  C    0.122247
    50  C   -0.084505
    51  C    0.052198
    52  C   -0.120749
    53  C    0.016236
    54  C    0.146523
    55  C    0.065688
    56  C    0.024787
    57  C   -0.131866
    58  C   -0.036136
    59  C    0.037304
    60  C    0.026226
    61  C    0.136071
    62  C   -0.154518
    63  C   -0.071820
    64  C    0.019538
    65  H    0.005303
    66  H    0.054965
    67  H   -0.087808
    68  H    0.017233
    69  H    0.008177
    70  H    0.024872
    71  H    0.008678
    72  H    0.046749
    73  H    0.026219
    74  H    0.013037
    75  H    0.046882
    76  H    0.043840
    77  H    0.064158
    78  H    0.043373
    79  H    0.043330
    80  H    0.048729
    81  H    0.111013
    82  H    0.039636
    83  H    0.005550
    84  H    0.015775
    85  H    0.017831
    86  H   -0.009702
    87  H   -0.024275
    88  H    0.012846
    89  H    0.026449
    90  H    0.014860
    91  H    0.062534
    92  H    0.084776
    93  H    0.089215
    94  H    0.064534
    95  H    0.022302
    96  H    0.028089
    97  H    0.029875
    98  H    0.057227
    99  H    0.054964
   100  H   -0.011592
   101  H    0.019190
   102  H    0.020876
   103  H    0.036606
   104  H    0.007933
   105  H    0.002055
   106  H    0.013148
   107  H    0.004718
   108  H    0.005782
   109  H   -0.008992
   110  H   -0.006153
   111  H   -0.006286
   112  H    0.006473
   113  H    0.008565
   114  H   -0.017221
   115  H   -0.023592
   116  H    0.003722
   117  H   -0.028930
   118  H   -0.001096
   119  H   -0.021104
   120  H   -0.016176
   121  H    0.033298
   122  H    0.038359
   123  H    0.004534
   124  H   -0.023209
   125  H   -0.013010
   126  H   -0.031254
   127  H    0.023039
   128  H   -0.012425
   129  H   -0.047262
   130  H    0.022712
   131  H    0.047379
   132  H    0.011296
   133  H    0.031091
   134  H    0.006300
   135  H    0.024844
   136  H    0.025444
   137  H    0.082411
   138  H    0.146952
 Sum of Mulliken charges =   0.00000

 Dipole moment (field-independent basis, Debye):
    X=              4.4693    Y=              3.9173    Z=              1.9275  Tot=              6.2478
 Quadrupole moment (field-independent basis, Debye-Ang):
   XX=           -366.8176   YY=           -383.8298   ZZ=           -394.7062
   XY=            -28.7343   XZ=              1.5325   YZ=             -0.7666

 Normal termination of Gaussian 09 at Mon Jul 29 17:28:58 2019.
