 Gaussian 09, Revision D.01,
 Gaussian 09:  ES64L-G09RevD.01 24-Apr-2013

 --------------------------
 # td=(NStates=1) B3LYP/SVP
 --------------------------

 --
 TD
 --
 Symbolic Z-matrix:
 Charge =  0 Multiplicity = 1

                         Standard orientation:
 ---------------------------------------------------------------------
 Center     Atomic      Atomic             Coordinates (Angstroms)
 Number     Number       Type             X           Y           Z
 ---------------------------------------------------------------------
      1          6           0       -5.037743   -1.874510    0.429644
      2          6           0       -4.743593    2.801413    1.451308
      3          6           0       -9.298899    3.321650   -0.229752
      4          6           0       -9.778790   -1.552884   -0.785848
      5          7           0       -5.221724    0.430858    0.821264
      6          6           0       -4.540531   -0.677317    0.875853
      7          6           0       -3.006884   -0.481435    1.194126
      8          6           0       -3.085094    0.927054    1.874983
      9          6           0       -4.441895    1.433778    1.352214
     10          6           0       -3.138150    0.932077    3.360631
     11          6           0       -2.141187   -0.562454   -0.010995
     12          6           0       -0.555949   -0.555281    0.281447
     13          6           0        0.291266   -1.014028   -0.714978
     14          8           0        0.018253   -1.412630   -1.867890
     15          8           0        1.605207   -0.621187   -0.390272
     16          7           0       -7.026253    2.753050    0.453484
     17          6           0       -5.991940    3.319110    0.956680
     18          6           0       -6.265160    4.778058    1.106078
     19          6           0       -7.684787    4.969419    0.592771
     20          6           0       -8.053924    3.749273    0.206315
     21          6           0       -5.329738    5.835509    1.496509
     22          6           0       -8.182086    6.247656    0.430946
     23          6           0       -9.022096    6.489965   -0.641141
     24          7           0       -9.238421    0.834314   -0.411712
     25          6           0       -9.920589    2.008837   -0.453284
     26          6           0      -11.188650    1.773699   -0.925266
     27          6           0      -11.370065    0.469728   -1.161449
     28          6           0      -10.113922   -0.163092   -0.669175
     29          6           0      -12.276631    2.799214   -1.273305
     30          6           0      -12.626709   -0.321692   -1.664165
     31          6           0      -12.576073   -0.649818   -3.079919
     32          7           0       -7.396342   -1.225118   -0.259510
     33          6           0       -8.551250   -2.074682   -0.598494
     34          6           0       -8.133401   -3.409809   -0.481384
     35          6           0       -6.740592   -3.311331   -0.145789
     36          6           0       -6.317283   -2.065557    0.035293
     37          6           0       -9.015755   -4.739561   -0.846953
     38          6           0       -5.590751   -4.313614   -0.022377
     39          8           0       -5.477616   -5.457464    0.032297
     40          6           0       -4.358709   -3.316744    0.386302
     41          6           0       -3.881582   -3.745713    1.738435
     42          8           0       -4.046530   -3.361398    2.841295
     43          8           0       -2.860998   -4.713654    1.462588
     44          6           0       -2.141547   -5.225040    2.594314
     45          6           0        2.650753   -1.033306   -1.293305
     46          6           0        3.860801   -0.468122   -0.598429
     47          6           0        5.002502    0.150628   -1.179651
     48          6           0        5.173029    0.255122   -2.886033
     49          6           0        6.248798    0.451937   -0.475962
     50          6           0        7.529824   -0.428634   -0.861908
     51          6           0        8.824153    0.008387   -0.210381
     52          6           0        9.999976   -0.955846   -0.649041
     53          6           0        9.798343   -2.422397   -0.409647
     54          6           0       11.297110   -0.330374    0.066260
     55          6           0       12.644595   -0.676979   -0.515031
     56          6           0       13.675443    0.093444    0.235077
     57          6           0       15.159335   -0.333119   -0.132837
     58          6           0       15.427644   -1.805488    0.008464
     59          6           0       16.082738    0.689707    0.458880
     60          6           0       17.515284    0.576864   -0.062188
     61          6           0       18.502080    1.698232    0.541583
     62          6           0       19.961586    1.676743   -0.005949
     63          6           0       20.007706    2.197374   -1.469947
     64          6           0       20.915513    2.645945    0.812092
     65          1           0       -4.026186    3.351031    1.848613
     66          1           0      -10.080247    4.021069   -0.236272
     67          1           0      -10.468758   -2.369554   -1.204391
     68          1           0       -2.640084   -1.233647    1.943198
     69          1           0       -2.167363    1.508727    1.495746
     70          1           0       -2.140177    0.530340    3.640377
     71          1           0       -3.110391    1.878236    3.797606
     72          1           0       -3.930077    0.374039    3.665766
     73          1           0       -2.389708   -1.573009   -0.472554
     74          1           0       -2.216650    0.304860   -0.741805
     75          1           0       -0.250303    0.231979    0.844489
     76          1           0       -0.120234   -1.429961    1.230650
     77          1           0       -4.603208    5.775945    0.763419
     78          1           0       -5.811278    6.777507    1.629428
     79          1           0       -4.603819    5.475726    2.363548
     80          1           0       -7.922430    7.165741    0.793605
     81          1           0       -9.280278    5.779917   -1.450590
     82          1           0       -9.304669    7.516313   -0.724353
     83          1           0      -12.348297    3.459868   -0.490980
     84          1           0      -12.078237    3.496583   -2.041754
     85          1           0      -13.045311    2.160201   -1.498853
     86          1           0      -12.718833   -1.190580   -1.036672
     87          1           0      -13.472871    0.294564   -1.177475
     88          1           0      -12.463856    0.307751   -3.699725
     89          1           0      -11.659314   -1.149954   -3.362420
     90          1           0      -13.366258   -1.280674   -3.574755
     91          1           0      -10.007682   -4.703172   -0.466840
     92          1           0       -9.160178   -4.620724   -1.956478
     93          1           0       -8.331115   -5.491446   -0.500906
     94          1           0       -3.538523   -3.268152   -0.350832
     95          1           0       -1.390472   -5.761690    2.111749
     96          1           0       -1.677715   -4.226477    3.258492
     97          1           0       -3.048136   -5.809635    3.212596
     98          1           0        2.747001   -2.216597   -1.019512
     99          1           0        2.350187   -0.731373   -2.348933
    100          1           0        3.712600   -0.518487    0.684522
    101          1           0        5.480656    1.327235   -2.980590
    102          1           0        5.822183   -0.741535   -3.543379
    103          1           0        4.189594    0.156146   -3.500508
    104          1           0        6.322237    1.533323   -0.548271
    105          1           0        6.128181    0.424892    0.722107
    106          1           0        7.200289   -1.596132   -0.589069
    107          1           0        7.694709   -0.455209   -2.107055
    108          1           0        9.113966    1.069261   -0.410655
    109          1           0        8.357378   -0.024683    0.987932
    110          1           0       10.285393   -0.957621   -1.769108
    111          1           0        9.017965   -2.907120   -1.069642
    112          1           0       10.754462   -2.928906   -0.761031
    113          1           0        9.474764   -2.714017    0.705764
    114          1           0       11.087200    0.875150   -0.072327
    115          1           0       11.173982   -0.688461    1.205230
    116          1           0       12.855626   -1.782372   -0.371485
    117          1           0       12.700459   -0.221223   -1.532168
    118          1           0       13.713844    1.274538    0.216044
    119          1           0       13.565503   -0.015039    1.388466
    120          1           0       15.205520   -0.310951   -1.319789
    121          1           0       14.877394   -2.468977   -0.725495
    122          1           0       16.499594   -1.942440   -0.023305
    123          1           0       15.348449   -2.229937    1.035910
    124          1           0       15.696674    1.761477    0.191834
    125          1           0       15.968251    0.696934    1.753322
    126          1           0       17.954443   -0.295847    0.233854
    127          1           0       17.643107    0.800488   -1.077363
    128          1           0       17.983994    2.753780    0.415533
    129          1           0       18.658986    1.523844    1.689797
    130          1           0       20.256019    0.516637    0.201548
    131          1           0       19.803759    3.274601   -1.467451
    132          1           0       21.071562    2.329557   -1.907036
    133          1           0       19.394272    1.579296   -2.233951
    134          1           0       20.971281    2.277400    1.810463
    135          1           0       21.978935    2.527088    0.412749
    136          1           0       20.462533    3.548957    0.778515
    137          1           0       -7.257197    1.621783    0.435385
    138          1           0       -7.419590   -0.200223   -0.141037
 ---------------------------------------------------------------------

 SCF Done:  E(RB3LYP) =  -2732.95279067     A.U. after   17 cycles

 Excitation energies and oscillator strengths:

 Excited State   1:      Singlet-A      2.0989 eV  590.72 nm  f=0.1106  <S**2>=0.000
     235 -> 238        0.34832
     236 -> 237        0.60536
 This state for optimization and/or second-order correction.
 Total Energy, E(TD-HF/TD-KS) =  -2732.87565934
 Copying the excited state density for this state as the 1-particle RhoCI density.

 The electronic state is 1-A.
 Alpha  occ. eigenvalues --  -19.16078 -19.15159 -19.14027 -19.13525 -19.12312
 Alpha  occ. eigenvalues --  -14.37758 -14.35528 -14.32471 -14.29695 -10.31400
 Alpha  occ. eigenvalues --  -10.31249 -10.28903 -10.25769 -10.25414 -10.24399
 Alpha  occ. eigenvalues --  -10.23570 -10.23017 -10.22893 -10.22837 -10.22449
 Alpha  occ. eigenvalues --  -10.22308 -10.22241 -10.22138 -10.21555 -10.21459
 Alpha  occ. eigenvalues --  -10.21450 -10.21345 -10.21283 -10.21220 -10.21100
 Alpha  occ. eigenvalues --  -10.20999 -10.20962 -10.20870 -10.20551 -10.20544
 Alpha  occ. eigenvalues --  -10.20445 -10.20413 -10.20412 -10.20337 -10.20330
 Alpha  occ. eigenvalues --  -10.20289 -10.20221 -10.19948 -10.19924 -10.19856
 Alpha  occ. eigenvalues --  -10.19729 -10.19622 -10.19375 -10.19277 -10.19244
 Alpha  occ. eigenvalues --  -10.19208 -10.19089 -10.18902 -10.18866 -10.18628
 Alpha  occ. eigenvalues --  -10.18591 -10.18583 -10.17899 -10.17813 -10.17582
 Alpha  occ. eigenvalues --  -10.17457 -10.17378 -10.17174 -10.16751  -1.08383
 Alpha  occ. eigenvalues --   -1.07479  -1.06825  -0.99849  -0.98590  -0.98524
 Alpha  occ. eigenvalues --   -0.96351  -0.95107  -0.93946  -0.84587  -0.83652
 Alpha  occ. eigenvalues --   -0.82016  -0.81750  -0.80740  -0.80465  -0.79738
 Alpha  occ. eigenvalues --   -0.79599  -0.79505  -0.79288  -0.78757  -0.78157
 Alpha  occ. eigenvalues --   -0.76970  -0.76161  -0.75811  -0.75617  -0.74332
 Alpha  occ. eigenvalues --   -0.73205  -0.73012  -0.72574  -0.71846  -0.71431
 Alpha  occ. eigenvalues --   -0.69788  -0.68991  -0.68583  -0.67301  -0.67002
 Alpha  occ. eigenvalues --   -0.66853  -0.66007  -0.65832  -0.65058  -0.64786
 Alpha  occ. eigenvalues --   -0.64212  -0.62399  -0.62058  -0.61769  -0.60979
 Alpha  occ. eigenvalues --   -0.60617  -0.58378  -0.57945  -0.57725  -0.57255
 Alpha  occ. eigenvalues --   -0.56360  -0.55067  -0.54926  -0.54429  -0.54345
 Alpha  occ. eigenvalues --   -0.53805  -0.53650  -0.53288  -0.53125  -0.52962
 Alpha  occ. eigenvalues --   -0.52509  -0.52024  -0.50943  -0.50638  -0.50575
 Alpha  occ. eigenvalues --   -0.50396  -0.49845  -0.49105  -0.48991  -0.48185
 Alpha  occ. eigenvalues --   -0.47790  -0.47602  -0.47471  -0.47369  -0.47014
 Alpha  occ. eigenvalues --   -0.46588  -0.46251  -0.45880  -0.45758  -0.45656
 Alpha  occ. eigenvalues --   -0.45311  -0.45225  -0.45189  -0.44605  -0.44524
 Alpha  occ. eigenvalues --   -0.44252  -0.44090  -0.43872  -0.43743  -0.43378
 Alpha  occ. eigenvalues --   -0.43114  -0.43092  -0.42949  -0.42899  -0.42716
 Alpha  occ. eigenvalues --   -0.42452  -0.42296  -0.42163  -0.41832  -0.41467
 Alpha  occ. eigenvalues --   -0.41330  -0.41235  -0.41120  -0.40687  -0.40649
 Alpha  occ. eigenvalues --   -0.40312  -0.40237  -0.40157  -0.40107  -0.39899
 Alpha  occ. eigenvalues --   -0.39652  -0.39512  -0.39037  -0.38909  -0.38548
 Alpha  occ. eigenvalues --   -0.38421  -0.38300  -0.38220  -0.38034  -0.37985
 Alpha  occ. eigenvalues --   -0.37625  -0.37352  -0.37312  -0.36817  -0.36350
 Alpha  occ. eigenvalues --   -0.36170  -0.36161  -0.36008  -0.35746  -0.35631
 Alpha  occ. eigenvalues --   -0.35446  -0.35314  -0.34564  -0.34520  -0.34272
 Alpha  occ. eigenvalues --   -0.34235  -0.33931  -0.33802  -0.33774  -0.33308
 Alpha  occ. eigenvalues --   -0.33125  -0.32800  -0.32661  -0.32077  -0.32058
 Alpha  occ. eigenvalues --   -0.31990  -0.31688  -0.31657  -0.31578  -0.31413
 Alpha  occ. eigenvalues --   -0.31073  -0.30289  -0.29799  -0.29565  -0.29491
 Alpha  occ. eigenvalues --   -0.29166  -0.28702  -0.28347  -0.28224  -0.27659
 Alpha  occ. eigenvalues --   -0.27527  -0.27159  -0.26788  -0.26091  -0.25693
 Alpha  occ. eigenvalues --   -0.25381  -0.23453  -0.22847  -0.22714  -0.19703
 Alpha  occ. eigenvalues --   -0.19539
 Alpha virt. eigenvalues --   -0.10505  -0.08196  -0.04174  -0.02644  -0.02373
 Alpha virt. eigenvalues --   -0.01134  -0.00444   0.00481   0.02463   0.02566
 Alpha virt. eigenvalues --    0.03384   0.04125   0.04284   0.04400   0.04512

 Mulliken charges:
               1
     1  C   -0.057061
     2  C   -0.022506
     3  C   -0.062605
     4  C   -0.091584
     5  N   -0.146080
     6  C   -0.090890
     7  C   -0.050473
     8  C   -0.101172
     9  C   -0.009055
    10  C    0.182560
    11  C    0.113432
    12  C   -0.024177
    13  C    0.229459
    14  O   -0.263967
    15  O   -0.375745
    16  N   -0.102370
    17  C    0.144771
    18  C   -0.233016
    19  C    0.171990
    20  C    0.121920
    21  C    0.160871
    22  C   -0.061862
    23  C   -0.056428
    24  N   -0.237413
    25  C    0.020401
    26  C   -0.157319
    27  C   -0.161074
    28  C    0.073546
    29  C    0.233198
    30  C    0.080574
    31  C    0.042950
    32  N   -0.148464
    33  C    0.103303
    34  C   -0.153203
    35  C   -0.108075
    36  C    0.192135
    37  C    0.125153
    38  C    0.105099
    39  O   -0.084113
    40  C   -0.090393
    41  C    0.240625
    42  O   -0.174653
    43  O   -0.373362
    44  C    0.122216
    45  C    0.238222
    46  C   -0.135026
    47  C   -0.118892
    48  C   -0.070319
    49  C    0.067190
    50  C   -0.081028
    51  C    0.015939
    52  C   -0.067721
    53  C   -0.015903
    54  C   -0.077024
    55  C    0.125924
    56  C   -0.049100
    57  C   -0.084136
    58  C    0.043155
    59  C   -0.029947
    60  C    0.132101
    61  C   -0.067924
    62  C   -0.140765
    63  C    0.007732
    64  C    0.081102
    65  H   -0.105508
    66  H   -0.047078
    67  H    0.003773
    68  H    0.006411
    69  H   -0.000128
    70  H   -0.002437
    71  H   -0.012454
    72  H    0.003874
    73  H    0.030344
    74  H    0.035934
    75  H    0.003389
    76  H    0.047922
    77  H    0.004323
    78  H    0.025126
    79  H    0.026294
    80  H   -0.039587
    81  H    0.042261
    82  H    0.010636
    83  H   -0.017438
    84  H   -0.010708
    85  H   -0.020065
    86  H   -0.015813
    87  H    0.015408
    88  H    0.008877
    89  H   -0.001202
    90  H    0.019568
    91  H    0.021228
    92  H    0.040873
    93  H    0.052445
    94  H    0.071085
    95  H    0.031224
    96  H    0.042757
    97  H    0.061215
    98  H    0.038740
    99  H    0.059192
   100  H    0.046908
   101  H    0.039803
   102  H    0.062902
   103  H    0.024539
   104  H   -0.000670
   105  H    0.002047
   106  H    0.038274
   107  H    0.023238
   108  H    0.012765
   109  H    0.019229
   110  H    0.000269
   111  H    0.021367
   112  H    0.011981
   113  H    0.024885
   114  H    0.012470
   115  H    0.017082
   116  H    0.019979
   117  H    0.002531
   118  H   -0.002118
   119  H   -0.009892
   120  H   -0.007691
   121  H    0.034562
   122  H   -0.018365
   123  H   -0.012590
   124  H    0.009517
   125  H    0.014300
   126  H   -0.019770
   127  H   -0.017507
   128  H    0.001133
   129  H    0.000961
   130  H    0.010812
   131  H   -0.001099
   132  H    0.002654
   133  H    0.035564
   134  H   -0.007781
   135  H    0.023344
   136  H   -0.008607
   137  H    0.227726
   138  H    0.134046
 Sum of Mulliken charges =   0.00000

 Dipole moment (field-independent basis, Debye):
    X=              1.3538    Y=              4.5139    Z=              0.1369  Tot=              4.7145
 Quadrupole moment (field-independent basis, Debye-Ang):
   XX=           -350.8391   YY=           -377.4463   ZZ=           -399.3779
   XY=            -18.5764   XZ=              7.2725   YZ=              3.8057

 Normal termination of Gaussian 09 at Sat Aug  3 02:49:27 2019.
