 Gaussian 09, Revision D.01,
 Gaussian 09:  ES64L-G09RevD.01 24-Apr-2013

 --------------------------
 # td=(NStates=1) B3LYP/SVP
 --------------------------

 --
 TD
 --
 Symbolic Z-matrix:
 Charge =  0 Multiplicity = 1

                         Standard orientation:
 ---------------------------------------------------------------------
 Center     Atomic      Atomic             Coordinates (Angstroms)
 Number     Number       Type             X           Y           Z
 ---------------------------------------------------------------------
      1          6           0       -5.092770   -1.890473    0.386699
      2          6           0       -4.711030    2.744115    1.418403
      3          6           0       -9.368217    3.339888   -0.141107
      4          6           0       -9.858988   -1.465679   -0.937313
      5          7           0       -5.179873    0.378018    0.800707
      6          6           0       -4.438527   -0.779776    0.777548
      7          6           0       -3.076752   -0.580054    1.218070
      8          6           0       -2.978096    0.925784    1.865422
      9          6           0       -4.355645    1.376800    1.254576
     10          6           0       -2.951530    0.859873    3.336721
     11          6           0       -2.062799   -0.838070    0.092694
     12          6           0       -0.644292   -0.921177    0.643145
     13          6           0        0.414353   -1.103311   -0.461864
     14          8           0        0.106182   -1.475083   -1.601773
     15          8           0        1.698831   -0.785200   -0.135151
     16          7           0       -7.066952    2.773375    0.506262
     17          6           0       -5.931565    3.322379    1.036383
     18          6           0       -6.248944    4.810433    1.119233
     19          6           0       -7.580975    4.964611    0.617920
     20          6           0       -8.032346    3.693931    0.278746
     21          6           0       -5.319925    5.789702    1.509925
     22          6           0       -8.103729    6.289352    0.286628
     23          6           0       -9.009608    6.662557   -0.720011
     24          7           0       -9.142247    0.884852   -0.444393
     25          6           0       -9.946714    2.074373   -0.413186
     26          6           0      -11.248281    1.886794   -0.857848
     27          6           0      -11.330214    0.538075   -1.228906
     28          6           0      -10.126780   -0.044350   -0.882105
     29          6           0      -12.284079    3.047127   -1.156051
     30          6           0      -12.595688   -0.189911   -1.819852
     31          6           0      -12.423030   -0.462971   -3.296431
     32          7           0       -7.475303   -1.184948   -0.295983
     33          6           0       -8.569496   -1.956561   -0.737791
     34          6           0       -8.166973   -3.359597   -0.776264
     35          6           0       -6.893412   -3.374565   -0.189500
     36          6           0       -6.471588   -2.004910    0.011714
     37          6           0       -8.981570   -4.585434   -1.162034
     38          6           0       -5.796316   -4.308430   -0.060130
     39          8           0       -5.673180   -5.471580   -0.184665
     40          6           0       -4.478904   -3.320525    0.372750
     41          6           0       -3.947181   -3.799837    1.709184
     42          8           0       -4.242447   -3.382957    2.760498
     43          8           0       -3.082087   -4.930572    1.497883
     44          6           0       -2.731617   -5.852720    2.627069
     45          6           0        2.733944   -0.923282   -1.094586
     46          6           0        4.030324   -0.619070   -0.355962
     47          6           0        4.952827    0.162760   -0.821425
     48          6           0        4.937010    0.805397   -2.159860
     49          6           0        6.178308    0.385838   -0.031649
     50          6           0        7.399656   -0.370758   -0.595622
     51          6           0        8.699089   -0.116739    0.094430
     52          6           0        9.971846   -0.777813   -0.625069
     53          6           0        9.954716   -2.278221   -0.826848
     54          6           0       11.231278   -0.328316    0.162452
     55          6           0       12.570166   -0.584237   -0.496239
     56          6           0       13.799530    0.013817    0.187987
     57          6           0       15.205735   -0.174424   -0.475785
     58          6           0       15.582269   -1.649630   -0.733080
     59          6           0       16.265517    0.568181    0.320309
     60          6           0       17.633047    0.797405   -0.354496
     61          6           0       18.602732    1.532864    0.508002
     62          6           0       20.056954    1.707869    0.065753
     63          6           0       20.241849    1.996606   -1.528711
     64          6           0       20.902526    2.650021    0.917256
     65          1           0       -3.868065    3.410935    1.915191
     66          1           0      -10.223565    4.099113   -0.217427
     67          1           0      -10.569474   -2.360841   -1.192290
     68          1           0       -2.860723   -1.316998    1.997516
     69          1           0       -2.327267    1.482729    1.399890
     70          1           0       -1.950799    0.661561    3.843838
     71          1           0       -3.327655    1.750455    3.904912
     72          1           0       -3.719710    0.055880    3.427789
     73          1           0       -2.426455   -1.734038   -0.427803
     74          1           0       -2.290382   -0.194108   -0.811154
     75          1           0       -0.279244   -0.031075    1.436863
     76          1           0       -0.621007   -1.788893    1.224941
     77          1           0       -4.135044    5.373165    1.330859
     78          1           0       -5.397938    7.127897    1.132695
     79          1           0       -5.214797    5.850351    2.681028
     80          1           0       -7.692843    7.075094    1.077310
     81          1           0       -9.397679    6.029012   -1.386802
     82          1           0       -9.266672    7.777601   -0.834814
     83          1           0      -12.296469    3.698115   -0.268069
     84          1           0      -11.780226    3.575654   -2.118167
     85          1           0      -13.264314    2.878139   -1.421689
     86          1           0      -12.495108   -1.092995   -1.372517
     87          1           0      -13.459421    0.401280   -1.506492
     88          1           0      -12.504882    0.607912   -3.656705
     89          1           0      -11.479638   -0.872484   -3.562504
     90          1           0      -13.185012   -1.064756   -3.948335
     91          1           0       -9.947310   -4.716793   -0.764822
     92          1           0       -9.074920   -4.597340   -2.546504
     93          1           0       -8.208219   -5.414482   -1.008985
     94          1           0       -3.681409   -3.355193   -0.453015
     95          1           0       -2.295020   -6.813083    2.563181
     96          1           0       -1.857274   -5.365421    3.143449
     97          1           0       -3.613785   -5.812483    3.375740
     98          1           0        2.922098   -1.938286   -1.331394
     99          1           0        2.474066   -0.495070   -1.968593
    100          1           0        4.136786   -0.862216    0.724802
    101          1           0        5.268893    1.878959   -2.101732
    102          1           0        5.731759    0.458217   -2.804689
    103          1           0        3.865581    0.937957   -2.481940
    104          1           0        6.472313    1.429377   -0.187418
    105          1           0        6.039980   -0.004565    0.980434
    106          1           0        7.369103   -1.464689   -0.709529
    107          1           0        7.683613   -0.292039   -1.784957
    108          1           0        8.941426    0.968901    0.353813
    109          1           0        8.686503   -0.716433    1.072728
    110          1           0       10.071942   -0.241266   -1.516093
    111          1           0        9.215662   -2.753737   -1.438516
    112          1           0       10.782357   -2.533686   -1.518392
    113          1           0        9.983155   -2.973490    0.020417
    114          1           0       11.243021    0.765875    0.429995
    115          1           0       11.435975   -0.904026    1.066431
    116          1           0       12.839857   -1.707048   -0.522436
    117          1           0       12.587226   -0.146155   -1.426794
    118          1           0       13.645472    1.090481    0.339729
    119          1           0       13.969876   -0.312207    1.242462
    120          1           0       15.106211    0.288447   -1.624665
    121          1           0       14.950935   -2.373001   -1.327999
    122          1           0       16.679251   -1.835789   -1.211082
    123          1           0       15.732568   -2.362956    0.251540
    124          1           0       15.914222    1.531069    0.592682
    125          1           0       16.546905    0.154874    1.296484
    126          1           0       17.872469   -0.342807   -0.489978
    127          1           0       17.449022    1.174344   -1.330699
    128          1           0       18.118368    2.609350    0.665997
    129          1           0       18.519910    1.200551    1.494455
    130          1           0       20.577181    0.690519    0.063405
    131          1           0       19.947615    3.048068   -1.877986
    132          1           0       21.206122    2.110642   -1.846180
    133          1           0       19.876060    1.345696   -2.008785
    134          1           0       20.902491    2.208213    1.968829
    135          1           0       21.894640    2.531651    0.728468
    136          1           0       20.634050    3.649158    1.009721
    137          1           0       -7.128187    1.730891    0.666254
    138          1           0       -7.498506   -0.177926   -0.352136
 ---------------------------------------------------------------------

 SCF Done:  E(RB3LYP) =  -2733.04559952     A.U. after   17 cycles

 Excitation energies and oscillator strengths:

 Excited State   1:      Singlet-A      2.0355 eV  609.11 nm  f=0.1594  <S**2>=0.000
     235 -> 237       -0.24477
     235 -> 238        0.24518
     236 -> 237        0.57957
     236 -> 238        0.18915
 This state for optimization and/or second-order correction.
 Total Energy, E(TD-HF/TD-KS) =  -2732.97079611
 Copying the excited state density for this state as the 1-particle RhoCI density.

 The electronic state is 1-A.
 Alpha  occ. eigenvalues --  -19.17718 -19.15792 -19.13636 -19.13361 -19.12100
 Alpha  occ. eigenvalues --  -14.37659 -14.37484 -14.32603 -14.29791 -10.31970
 Alpha  occ. eigenvalues --  -10.31671 -10.28791 -10.24639 -10.24594 -10.24542
 Alpha  occ. eigenvalues --  -10.24040 -10.23644 -10.23633 -10.23440 -10.23360
 Alpha  occ. eigenvalues --  -10.22630 -10.22620 -10.22445 -10.22042 -10.21948
 Alpha  occ. eigenvalues --  -10.21838 -10.21706 -10.21219 -10.21019 -10.21013
 Alpha  occ. eigenvalues --  -10.20989 -10.20830 -10.20612 -10.20453 -10.20233
 Alpha  occ. eigenvalues --  -10.20207 -10.20081 -10.20070 -10.20055 -10.19862
 Alpha  occ. eigenvalues --  -10.19799 -10.19797 -10.19713 -10.19412 -10.19244
 Alpha  occ. eigenvalues --  -10.19202 -10.18982 -10.18905 -10.18854 -10.18797
 Alpha  occ. eigenvalues --  -10.18651 -10.18443 -10.18401 -10.18266 -10.18140
 Alpha  occ. eigenvalues --  -10.18136 -10.17989 -10.17981 -10.17970 -10.17777
 Alpha  occ. eigenvalues --  -10.17507 -10.17502 -10.16728 -10.15322  -1.08691
 Alpha  occ. eigenvalues --   -1.08031  -1.05691  -0.99459  -0.98932  -0.98861
 Alpha  occ. eigenvalues --   -0.98716  -0.94188  -0.91584  -0.83934  -0.83498
 Alpha  occ. eigenvalues --   -0.81895  -0.81817  -0.81401  -0.81348  -0.80931
 Alpha  occ. eigenvalues --   -0.79897  -0.79321  -0.79155  -0.78525  -0.77811
 Alpha  occ. eigenvalues --   -0.77023  -0.75890  -0.75071  -0.74808  -0.74054
 Alpha  occ. eigenvalues --   -0.73568  -0.72707  -0.72113  -0.71957  -0.70578
 Alpha  occ. eigenvalues --   -0.70402  -0.69512  -0.68803  -0.68733  -0.68283
 Alpha  occ. eigenvalues --   -0.67487  -0.67310  -0.66736  -0.65955  -0.65689
 Alpha  occ. eigenvalues --   -0.64404  -0.63164  -0.62974  -0.62406  -0.61965
 Alpha  occ. eigenvalues --   -0.61380  -0.59578  -0.59197  -0.57915  -0.57588
 Alpha  occ. eigenvalues --   -0.57251  -0.56452  -0.56140  -0.55916  -0.55797
 Alpha  occ. eigenvalues --   -0.54794  -0.54325  -0.54011  -0.53846  -0.53246
 Alpha  occ. eigenvalues --   -0.52683  -0.51753  -0.51259  -0.50373  -0.50113
 Alpha  occ. eigenvalues --   -0.49717  -0.49239  -0.48816  -0.48425  -0.48359
 Alpha  occ. eigenvalues --   -0.47846  -0.47536  -0.47439  -0.47129  -0.46693
 Alpha  occ. eigenvalues --   -0.46547  -0.46385  -0.46282  -0.46010  -0.45836
 Alpha  occ. eigenvalues --   -0.45576  -0.45497  -0.45214  -0.45174  -0.44790
 Alpha  occ. eigenvalues --   -0.44693  -0.44531  -0.44103  -0.43969  -0.43651
 Alpha  occ. eigenvalues --   -0.43609  -0.43207  -0.42901  -0.42697  -0.42533
 Alpha  occ. eigenvalues --   -0.42408  -0.42322  -0.41996  -0.41802  -0.41672
 Alpha  occ. eigenvalues --   -0.41377  -0.41070  -0.40788  -0.40744  -0.40295
 Alpha  occ. eigenvalues --   -0.40144  -0.40037  -0.39994  -0.39778  -0.39680
 Alpha  occ. eigenvalues --   -0.39169  -0.38904  -0.38759  -0.38729  -0.38582
 Alpha  occ. eigenvalues --   -0.38163  -0.38123  -0.37936  -0.37817  -0.37602
 Alpha  occ. eigenvalues --   -0.37389  -0.37223  -0.37142  -0.37077  -0.36920
 Alpha  occ. eigenvalues --   -0.36525  -0.36396  -0.36098  -0.35996  -0.35550
 Alpha  occ. eigenvalues --   -0.35379  -0.35232  -0.34963  -0.34786  -0.34692
 Alpha  occ. eigenvalues --   -0.34543  -0.34434  -0.34323  -0.34076  -0.33852
 Alpha  occ. eigenvalues --   -0.33704  -0.33665  -0.33258  -0.32654  -0.32466
 Alpha  occ. eigenvalues --   -0.32189  -0.31755  -0.31657  -0.31036  -0.30781
 Alpha  occ. eigenvalues --   -0.30559  -0.30547  -0.30384  -0.30174  -0.29757
 Alpha  occ. eigenvalues --   -0.29124  -0.29018  -0.28411  -0.28338  -0.28024
 Alpha  occ. eigenvalues --   -0.27881  -0.27644  -0.27339  -0.26994  -0.26480
 Alpha  occ. eigenvalues --   -0.25257  -0.24882  -0.23200  -0.21848  -0.20259
 Alpha  occ. eigenvalues --   -0.18948
 Alpha virt. eigenvalues --   -0.10603  -0.08352  -0.04884  -0.02720  -0.00638
 Alpha virt. eigenvalues --   -0.00330   0.00307   0.01650   0.01763   0.02457
 Alpha virt. eigenvalues --    0.03173   0.04346   0.04427   0.04586   0.04928

 Mulliken charges:
               1
     1  C   -0.019961
     2  C   -0.104290
     3  C   -0.089099
     4  C   -0.097639
     5  N   -0.201581
     6  C   -0.048406
     7  C   -0.048382
     8  C    0.094018
     9  C   -0.058163
    10  C    0.049131
    11  C    0.046376
    12  C    0.068818
    13  C    0.186407
    14  O   -0.264270
    15  O   -0.315852
    16  N   -0.038681
    17  C    0.100735
    18  C   -0.052680
    19  C    0.032715
    20  C    0.089804
    21  C   -0.108962
    22  C   -0.068668
    23  C   -0.002231
    24  N   -0.337812
    25  C    0.053757
    26  C   -0.133999
    27  C   -0.163049
    28  C    0.116157
    29  C    0.074192
    30  C    0.195250
    31  C   -0.029171
    32  N    0.006259
    33  C    0.043946
    34  C   -0.093076
    35  C   -0.048706
    36  C    0.104327
    37  C    0.003177
    38  C    0.072487
    39  O   -0.114814
    40  C   -0.124061
    41  C    0.237821
    42  O   -0.164498
    43  O   -0.393890
    44  C    0.182333
    45  C    0.366659
    46  C   -0.113151
    47  C   -0.162799
    48  C    0.097823
    49  C    0.193937
    50  C   -0.041346
    51  C    0.001535
    52  C   -0.012037
    53  C    0.043732
    54  C    0.019120
    55  C    0.071005
    56  C   -0.000118
    57  C   -0.047443
    58  C   -0.073676
    59  C    0.032243
    60  C    0.022029
    61  C    0.079078
    62  C   -0.106363
    63  C    0.150305
    64  C    0.106208
    65  H    0.016559
    66  H   -0.004186
    67  H    0.020966
    68  H    0.005145
    69  H   -0.068530
    70  H    0.029465
    71  H    0.012840
    72  H    0.039423
    73  H   -0.006189
    74  H    0.007579
    75  H    0.056932
    76  H    0.017172
    77  H    0.045449
    78  H    0.064270
    79  H    0.045905
    80  H    0.032874
    81  H   -0.007775
    82  H    0.041664
    83  H    0.034297
    84  H    0.048435
    85  H   -0.007155
    86  H   -0.037044
    87  H    0.007565
    88  H    0.008137
    89  H    0.011896
    90  H    0.023839
    91  H    0.046009
    92  H    0.043900
    93  H    0.064907
    94  H    0.081761
    95  H    0.035263
    96  H    0.009593
    97  H    0.045752
    98  H    0.000274
    99  H   -0.020198
   100  H   -0.005624
   101  H   -0.006656
   102  H    0.022151
   103  H    0.023206
   104  H   -0.008528
   105  H   -0.005827
   106  H   -0.018076
   107  H   -0.013848
   108  H    0.002079
   109  H   -0.005143
   110  H   -0.029720
   111  H   -0.010339
   112  H    0.001727
   113  H    0.011207
   114  H   -0.005641
   115  H   -0.014108
   116  H    0.014159
   117  H   -0.038263
   118  H   -0.019392
   119  H   -0.014299
   120  H    0.009428
   121  H    0.025138
   122  H    0.025854
   123  H    0.004924
   124  H   -0.033632
   125  H   -0.013151
   126  H   -0.004281
   127  H   -0.008586
   128  H   -0.012423
   129  H   -0.034482
   130  H   -0.003104
   131  H   -0.008417
   132  H   -0.037474
   133  H   -0.075936
   134  H   -0.010294
   135  H   -0.025987
   136  H    0.000563
   137  H    0.177783
   138  H    0.135709
 Sum of Mulliken charges =   0.00000

 Dipole moment (field-independent basis, Debye):
    X=              1.9185    Y=              2.8528    Z=              1.0328  Tot=              3.5897
 Quadrupole moment (field-independent basis, Debye-Ang):
   XX=           -348.9898   YY=           -381.4045   ZZ=           -395.1546
   XY=            -15.7867   XZ=              9.3652   YZ=             -1.1046

 Normal termination of Gaussian 09 at Sat Aug  3 23:07:31 2019.
