 Gaussian 09, Revision D.01,
 Gaussian 09:  ES64L-G09RevD.01 24-Apr-2013

 --------------------------
 # td=(NStates=1) B3LYP/SVP
 --------------------------

 --
 TD
 --
 Symbolic Z-matrix:
 Charge =  0 Multiplicity = 1

                         Standard orientation:
 ---------------------------------------------------------------------
 Center     Atomic      Atomic             Coordinates (Angstroms)
 Number     Number       Type             X           Y           Z
 ---------------------------------------------------------------------
      1          6           0       -5.049120   -1.936573    0.532131
      2          6           0       -4.798470    2.845227    1.370051
      3          6           0       -9.393890    3.141332   -0.335289
      4          6           0       -9.822078   -1.601100   -0.867753
      5          7           0       -5.243761    0.525805    0.802458
      6          6           0       -4.494879   -0.710576    0.912866
      7          6           0       -3.007711   -0.437428    1.203081
      8          6           0       -3.082217    1.075457    1.759917
      9          6           0       -4.527795    1.474966    1.317289
     10          6           0       -2.737444    1.205820    3.246301
     11          6           0       -1.984850   -0.652188    0.037050
     12          6           0       -0.643623   -0.567411    0.371793
     13          6           0        0.379270   -0.930656   -0.767035
     14          8           0        0.118773   -1.518199   -1.794712
     15          8           0        1.654612   -0.688698   -0.342108
     16          7           0       -7.162902    2.736998    0.406090
     17          6           0       -6.041894    3.393437    0.957141
     18          6           0       -6.353749    4.794727    0.943031
     19          6           0       -7.668573    4.962075    0.468476
     20          6           0       -8.172563    3.611151    0.062292
     21          6           0       -5.411429    5.833254    1.523118
     22          6           0       -8.331245    6.198795    0.326515
     23          6           0       -9.188751    6.554717   -0.656744
     24          7           0       -9.251787    0.820196   -0.543292
     25          6           0      -10.009842    1.975264   -0.643652
     26          6           0      -11.360355    1.648159   -0.937935
     27          6           0      -11.587041    0.315053   -1.057579
     28          6           0      -10.138446   -0.239440   -0.735523
     29          6           0      -12.404642    2.671079   -1.104620
     30          6           0      -12.657041   -0.434396   -1.419313
     31          6           0      -12.908292   -0.629359   -3.041384
     32          7           0       -7.416343   -1.313686   -0.190822
     33          6           0       -8.465804   -2.122075   -0.603907
     34          6           0       -8.034547   -3.402217   -0.599800
     35          6           0       -6.715026   -3.395296   -0.194035
     36          6           0       -6.389097   -2.044438    0.035759
     37          6           0       -8.851585   -4.743597   -0.815248
     38          6           0       -5.603317   -4.257117    0.117453
     39          8           0       -5.485171   -5.463874    0.186545
     40          6           0       -4.420296   -3.172893    0.496888
     41          6           0       -3.744844   -3.653893    1.802346
     42          8           0       -3.912947   -3.185524    2.944950
     43          8           0       -2.921089   -4.705787    1.576900
     44          6           0       -2.413936   -5.435046    2.688216
     45          6           0        2.666143   -1.085438   -1.263230
     46          6           0        3.965126   -0.732791   -0.584875
     47          6           0        4.921670    0.059138   -1.163804
     48          6           0        5.035184    0.715538   -2.525724
     49          6           0        6.216447    0.326283   -0.435884
     50          6           0        7.588871   -0.275420   -1.018989
     51          6           0        8.835318   -0.034124   -0.194027
     52          6           0       10.094525   -0.583422   -0.814349
     53          6           0        9.998871   -2.101215   -1.155796
     54          6           0       11.312379   -0.291665    0.001090
     55          6           0       12.645622   -0.466741   -0.711202
     56          6           0       13.745919   -0.049838    0.152439
     57          6           0       15.216974   -0.283182   -0.339782
     58          6           0       15.718652   -1.681233   -0.158328
     59          6           0       16.174574    0.573666    0.412306
     60          6           0       17.686667    0.499902   -0.114938
     61          6           0       18.527032    1.625050    0.611724
     62          6           0       20.020972    1.509043    0.255291
     63          6           0       20.233218    1.932349   -1.209383
     64          6           0       20.811058    2.517923    1.208477
     65          1           0       -4.045951    3.478468    1.660575
     66          1           0      -10.143717    3.971979   -0.431825
     67          1           0      -10.655232   -2.186558   -0.942624
     68          1           0       -2.726167   -1.098349    1.882293
     69          1           0       -2.347645    1.638020    1.295341
     70          1           0       -1.798294    0.794555    3.516170
     71          1           0       -2.883166    2.212542    3.683973
     72          1           0       -3.311001    0.446143    3.981218
     73          1           0       -2.396679   -1.600392   -0.507968
     74          1           0       -1.972709    0.113197   -0.690403
     75          1           0       -0.398555    0.489787    0.570851
     76          1           0       -0.263975   -1.215440    1.260967
     77          1           0       -4.265624    5.640129    1.164491
     78          1           0       -5.857466    6.806923    1.493196
     79          1           0       -5.278831    5.588451    2.796379
     80          1           0       -7.975579    7.005767    1.143070
     81          1           0       -9.577010    5.734197   -1.466319
     82          1           0       -9.504493    7.570451   -0.551091
     83          1           0      -12.529183    3.376999   -0.270696
     84          1           0      -12.108992    3.361304   -2.121184
     85          1           0      -13.573066    2.337695   -1.000966
     86          1           0      -12.624283   -1.330804   -1.073340
     87          1           0      -13.545190    0.074622   -0.893796
     88          1           0      -13.293895    0.349703   -3.535257
     89          1           0      -11.953044   -1.255114   -3.715238
     90          1           0      -13.709189   -1.341394   -3.260887
     91          1           0       -9.647488   -5.018945   -0.149973
     92          1           0       -9.237918   -4.810379   -1.828418
     93          1           0       -8.226343   -5.740894   -0.541645
     94          1           0       -3.602524   -3.397572   -0.346831
     95          1           0       -1.670874   -6.127600    2.106079
     96          1           0       -1.768983   -4.821070    3.087518
     97          1           0       -3.281153   -6.053879    3.367384
     98          1           0        2.595147   -2.239955   -1.287011
     99          1           0        2.641656   -0.386513   -2.085571
    100          1           0        4.000352   -1.030014    0.465024
    101          1           0        5.326667    1.898499   -2.532157
    102          1           0        6.019375    0.270917   -3.055999
    103          1           0        4.060710    0.696712   -2.998460
    104          1           0        6.403427    1.357395   -0.189218
    105          1           0        6.279620   -0.116992    0.600607
    106          1           0        7.574434   -1.301271   -1.230853
    107          1           0        7.703936    0.187548   -1.984892
    108          1           0        8.998050    1.243491   -0.107839
    109          1           0        8.446832   -0.211576    0.958829
    110          1           0        9.996642    0.010252   -1.699317
    111          1           0        9.168128   -2.506267   -1.571043
    112          1           0       10.935699   -2.352729   -1.910984
    113          1           0        9.838987   -2.489644   -0.126891
    114          1           0       11.372359    0.958994    0.369101
    115          1           0       11.234414   -0.600254    1.090512
    116          1           0       12.501698   -1.705745   -0.711762
    117          1           0       12.728767   -0.050704   -1.725267
    118          1           0       13.655607    1.094341    0.239153
    119          1           0       13.670044   -0.271252    1.179319
    120          1           0       15.412572   -0.014961   -1.388325
    121          1           0       14.830813   -2.487984   -0.549254
    122          1           0       16.701951   -1.757326   -0.713995
    123          1           0       15.768687   -2.040621    0.778456
    124          1           0       15.960863    1.516695    0.260936
    125          1           0       16.261187    0.439103    1.565123
    126          1           0       18.039313   -0.510259    0.124215
    127          1           0       17.763051    0.466867   -1.237108
    128          1           0       18.128255    2.717300    0.298282
    129          1           0       18.430447    1.327286    1.605996
    130          1           0       20.247074    0.549744    0.424807
    131          1           0       19.628613    2.887770   -1.343922
    132          1           0       21.360338    2.122511   -1.389791
    133          1           0       19.938851    1.164509   -2.124461
    134          1           0       20.734650    2.309847    2.340910
    135          1           0       21.987964    2.685608    0.936178
    136          1           0       20.416977    3.681675    1.079179
    137          1           0       -7.301862    1.734552    0.341982
    138          1           0       -7.678556   -0.180470   -0.326592
 ---------------------------------------------------------------------

 SCF Done:  E(RB3LYP) =  -2732.95418059     A.U. after   17 cycles

 Excitation energies and oscillator strengths:

 Excited State   1:      Singlet-A      2.0733 eV  598.01 nm  f=0.1954  <S**2>=0.000
     235 -> 237       -0.18926
     235 -> 238       -0.25510
     236 -> 237        0.61931
     236 -> 238       -0.10838
 This state for optimization and/or second-order correction.
 Total Energy, E(TD-HF/TD-KS) =  -2732.87798852
 Copying the excited state density for this state as the 1-particle RhoCI density.

 The electronic state is 1-A.
 Alpha  occ. eigenvalues --  -19.17434 -19.16970 -19.12689 -19.12005 -19.11541
 Alpha  occ. eigenvalues --  -14.37171 -14.36909 -14.32396 -14.31414 -10.31574
 Alpha  occ. eigenvalues --  -10.31273 -10.27592 -10.24865 -10.24731 -10.24683
 Alpha  occ. eigenvalues --  -10.24434 -10.23112 -10.22994 -10.22734 -10.22699
 Alpha  occ. eigenvalues --  -10.22627 -10.22184 -10.22089 -10.21920 -10.21421
 Alpha  occ. eigenvalues --  -10.21371 -10.21367 -10.21318 -10.21263 -10.21179
 Alpha  occ. eigenvalues --  -10.20809 -10.20800 -10.20778 -10.20729 -10.20643
 Alpha  occ. eigenvalues --  -10.20621 -10.20214 -10.19988 -10.19758 -10.19756
 Alpha  occ. eigenvalues --  -10.19703 -10.19678 -10.19643 -10.19468 -10.19347
 Alpha  occ. eigenvalues --  -10.19327 -10.19218 -10.19202 -10.19187 -10.19120
 Alpha  occ. eigenvalues --  -10.19026 -10.18963 -10.18894 -10.18848 -10.18803
 Alpha  occ. eigenvalues --  -10.18746 -10.18711 -10.18317 -10.18212 -10.18094
 Alpha  occ. eigenvalues --  -10.17886 -10.17702 -10.17655 -10.16921  -1.09231
 Alpha  occ. eigenvalues --   -1.08061  -1.02165  -1.00679  -1.00103  -0.98328
 Alpha  occ. eigenvalues --   -0.97355  -0.93452  -0.93099  -0.85533  -0.83070
 Alpha  occ. eigenvalues --   -0.82669  -0.82335  -0.82010  -0.81933  -0.81197
 Alpha  occ. eigenvalues --   -0.80865  -0.79871  -0.79813  -0.79272  -0.77584
 Alpha  occ. eigenvalues --   -0.77053  -0.76206  -0.75686  -0.75170  -0.74993
 Alpha  occ. eigenvalues --   -0.73450  -0.72960  -0.72484  -0.71552  -0.70032
 Alpha  occ. eigenvalues --   -0.69523  -0.68925  -0.68074  -0.67521  -0.67357
 Alpha  occ. eigenvalues --   -0.67152  -0.66534  -0.66171  -0.65347  -0.65025
 Alpha  occ. eigenvalues --   -0.64449  -0.63501  -0.62722  -0.62545  -0.62011
 Alpha  occ. eigenvalues --   -0.60583  -0.59251  -0.58521  -0.58344  -0.57416
 Alpha  occ. eigenvalues --   -0.56824  -0.56246  -0.55918  -0.55637  -0.55262
 Alpha  occ. eigenvalues --   -0.55011  -0.54902  -0.54213  -0.53620  -0.53025
 Alpha  occ. eigenvalues --   -0.52789  -0.51948  -0.51564  -0.51350  -0.50999
 Alpha  occ. eigenvalues --   -0.50482  -0.49536  -0.48848  -0.48565  -0.48437
 Alpha  occ. eigenvalues --   -0.48155  -0.47910  -0.47402  -0.47190  -0.47060
 Alpha  occ. eigenvalues --   -0.46861  -0.46456  -0.46143  -0.45892  -0.45649
 Alpha  occ. eigenvalues --   -0.45489  -0.45339  -0.45106  -0.44943  -0.44698
 Alpha  occ. eigenvalues --   -0.44457  -0.44270  -0.44042  -0.43876  -0.43642
 Alpha  occ. eigenvalues --   -0.43519  -0.43046  -0.42968  -0.42718  -0.42403
 Alpha  occ. eigenvalues --   -0.42343  -0.41971  -0.41935  -0.41531  -0.41271
 Alpha  occ. eigenvalues --   -0.40967  -0.40907  -0.40646  -0.40563  -0.40263
 Alpha  occ. eigenvalues --   -0.40152  -0.40027  -0.39892  -0.39823  -0.39532
 Alpha  occ. eigenvalues --   -0.39297  -0.39188  -0.38850  -0.38650  -0.38375
 Alpha  occ. eigenvalues --   -0.38162  -0.37941  -0.37702  -0.37533  -0.37390
 Alpha  occ. eigenvalues --   -0.37150  -0.36824  -0.36724  -0.36601  -0.36346
 Alpha  occ. eigenvalues --   -0.35974  -0.35915  -0.35834  -0.35599  -0.35404
 Alpha  occ. eigenvalues --   -0.35193  -0.34918  -0.34608  -0.34497  -0.34401
 Alpha  occ. eigenvalues --   -0.34214  -0.34141  -0.34035  -0.33559  -0.33445
 Alpha  occ. eigenvalues --   -0.33397  -0.33063  -0.32682  -0.32639  -0.32486
 Alpha  occ. eigenvalues --   -0.32176  -0.32113  -0.31985  -0.31862  -0.31473
 Alpha  occ. eigenvalues --   -0.31270  -0.31098  -0.30631  -0.30235  -0.29690
 Alpha  occ. eigenvalues --   -0.29614  -0.28865  -0.28090  -0.28035  -0.27749
 Alpha  occ. eigenvalues --   -0.27335  -0.26933  -0.26794  -0.26512  -0.26008
 Alpha  occ. eigenvalues --   -0.24597  -0.24385  -0.23819  -0.23312  -0.19957
 Alpha  occ. eigenvalues --   -0.19471
 Alpha virt. eigenvalues --   -0.10907  -0.07539  -0.04185  -0.02092  -0.00834
 Alpha virt. eigenvalues --   -0.00559   0.00022   0.00467   0.01460   0.02997
 Alpha virt. eigenvalues --    0.03292   0.03383   0.04113   0.04349   0.04563

 Mulliken charges:
               1
     1  C    0.054502
     2  C   -0.058470
     3  C   -0.043202
     4  C    0.010867
     5  N   -0.177735
     6  C   -0.059738
     7  C    0.096770
     8  C   -0.021342
     9  C    0.051858
    10  C    0.024989
    11  C    0.064531
    12  C    0.033473
    13  C    0.155101
    14  O   -0.226342
    15  O   -0.334163
    16  N   -0.096141
    17  C    0.155425
    18  C   -0.119066
    19  C    0.072238
    20  C    0.076449
    21  C    0.014809
    22  C   -0.128777
    23  C   -0.031666
    24  N   -0.314301
    25  C    0.062390
    26  C   -0.047750
    27  C   -0.042959
    28  C    0.029275
    29  C   -0.024859
    30  C    0.123294
    31  C   -0.080559
    32  N   -0.031579
    33  C    0.045553
    34  C   -0.113849
    35  C   -0.001329
    36  C    0.052504
    37  C    0.042370
    38  C    0.068405
    39  O   -0.161046
    40  C   -0.158516
    41  C    0.209496
    42  O   -0.260669
    43  O   -0.305905
    44  C    0.207958
    45  C    0.323452
    46  C   -0.129520
    47  C   -0.082044
    48  C    0.008423
    49  C    0.061267
    50  C    0.044834
    51  C   -0.122458
    52  C    0.042335
    53  C    0.024646
    54  C   -0.070191
    55  C    0.066788
    56  C    0.053444
    57  C   -0.012180
    58  C    0.034947
    59  C    0.064725
    60  C   -0.054122
    61  C    0.034949
    62  C    0.004977
    63  C   -0.043984
    64  C   -0.070540
    65  H   -0.062056
    66  H   -0.028778
    67  H   -0.057507
    68  H   -0.064753
    69  H   -0.026453
    70  H    0.000812
    71  H    0.016911
    72  H    0.024020
    73  H    0.027650
    74  H   -0.019645
    75  H    0.021955
    76  H    0.037968
    77  H    0.064190
    78  H    0.018758
    79  H    0.044492
    80  H    0.032396
    81  H    0.068997
    82  H    0.020885
    83  H    0.022082
    84  H    0.047610
    85  H    0.025815
    86  H   -0.062998
    87  H    0.016307
    88  H    0.043462
    89  H    0.043853
    90  H    0.017129
    91  H    0.016981
    92  H    0.021762
    93  H    0.046938
    94  H    0.091837
    95  H    0.027366
    96  H   -0.023965
    97  H    0.082376
    98  H    0.043080
    99  H    0.002479
   100  H   -0.000984
   101  H    0.037444
   102  H    0.060774
   103  H    0.010916
   104  H   -0.006958
   105  H   -0.017835
   106  H   -0.019633
   107  H   -0.019963
   108  H    0.004836
   109  H    0.008295
   110  H   -0.017517
   111  H   -0.014019
   112  H    0.053018
   113  H    0.005491
   114  H   -0.027024
   115  H    0.011916
   116  H    0.022175
   117  H    0.008099
   118  H   -0.017057
   119  H   -0.031142
   120  H   -0.021976
   121  H   -0.001940
   122  H    0.027902
   123  H   -0.030075
   124  H   -0.061819
   125  H   -0.001580
   126  H   -0.004964
   127  H   -0.002605
   128  H    0.023844
   129  H   -0.019882
   130  H   -0.039369
   131  H    0.016614
   132  H    0.020488
   133  H    0.034060
   134  H    0.029126
   135  H    0.025716
   136  H    0.018977
   137  H    0.130254
   138  H    0.232400
 Sum of Mulliken charges =   0.00000

 Dipole moment (field-independent basis, Debye):
    X=              0.3991    Y=              4.8971    Z=              0.1051  Tot=              4.9145
 Quadrupole moment (field-independent basis, Debye-Ang):
   XX=           -330.8999   YY=           -386.4720   ZZ=           -399.4064
   XY=            -26.7990   XZ=              8.8733   YZ=              0.0253

 Normal termination of Gaussian 09 at Fri Aug  2 09:09:18 2019.
