 Gaussian 09, Revision D.01,
 Gaussian 09:  ES64L-G09RevD.01 24-Apr-2013

 --------------------------
 # td=(NStates=1) B3LYP/SVP
 --------------------------

 --
 TD
 --
 Symbolic Z-matrix:
 Charge =  0 Multiplicity = 1

                         Standard orientation:
 ---------------------------------------------------------------------
 Center     Atomic      Atomic             Coordinates (Angstroms)
 Number     Number       Type             X           Y           Z
 ---------------------------------------------------------------------
      1          6           0       -5.102840   -1.991935    0.512697
      2          6           0       -4.775278    2.842745    1.369698
      3          6           0       -9.328104    3.306030   -0.235328
      4          6           0       -9.759138   -1.561347   -0.910322
      5          7           0       -5.205675    0.442752    0.864311
      6          6           0       -4.513196   -0.761704    0.891571
      7          6           0       -3.078527   -0.488173    1.259831
      8          6           0       -3.106999    0.910567    1.881188
      9          6           0       -4.426596    1.460967    1.391449
     10          6           0       -2.960142    1.056393    3.407256
     11          6           0       -2.081962   -0.700108    0.110815
     12          6           0       -0.610617   -0.637597    0.525915
     13          6           0        0.332940   -0.961035   -0.591651
     14          8           0        0.131798   -1.368807   -1.686644
     15          8           0        1.656608   -0.783643   -0.184121
     16          7           0       -7.079000    2.751590    0.462520
     17          6           0       -6.012582    3.393772    0.955434
     18          6           0       -6.235083    4.853634    0.918873
     19          6           0       -7.543961    5.000113    0.527024
     20          6           0       -8.037709    3.569451    0.166069
     21          6           0       -5.260449    5.810725    1.459613
     22          6           0       -8.337092    6.312850    0.272149
     23          6           0       -9.256768    6.570917   -0.645537
     24          7           0       -9.174368    0.829888   -0.466666
     25          6           0       -9.852675    2.025463   -0.439743
     26          6           0      -11.319920    1.763176   -0.968981
     27          6           0      -11.419125    0.432311   -1.171326
     28          6           0      -10.107312   -0.165028   -0.876446
     29          6           0      -12.268871    2.782277   -1.028055
     30          6           0      -12.660834   -0.345443   -1.652637
     31          6           0      -12.702478   -0.457354   -3.160517
     32          7           0       -7.413560   -1.232955   -0.264671
     33          6           0       -8.424795   -2.020788   -0.705002
     34          6           0       -8.076669   -3.442410   -0.819888
     35          6           0       -6.717741   -3.399267   -0.308998
     36          6           0       -6.323494   -2.147975   -0.012183
     37          6           0       -8.879444   -4.649306   -1.161060
     38          6           0       -5.636891   -4.374599    0.027761
     39          8           0       -5.521464   -5.515507   -0.052760
     40          6           0       -4.424578   -3.391903    0.475308
     41          6           0       -3.881535   -3.741360    1.847955
     42          8           0       -4.155553   -3.204664    2.906154
     43          8           0       -3.081558   -4.833587    1.599235
     44          6           0       -2.454826   -5.425725    2.757321
     45          6           0        2.605376   -1.005029   -1.136165
     46          6           0        3.939453   -0.619509   -0.540461
     47          6           0        4.901123    0.159189   -1.092887
     48          6           0        4.882948    0.789745   -2.395319
     49          6           0        6.240916    0.296370   -0.317805
     50          6           0        7.574634   -0.185554   -0.958431
     51          6           0        8.752531   -0.325127    0.041366
     52          6           0       10.026549   -0.742725   -0.677566
     53          6           0       10.048021   -2.179990   -0.982098
     54          6           0       11.246192   -0.355103    0.121206
     55          6           0       12.603453   -0.643010   -0.494487
     56          6           0       13.812745   -0.151326    0.299998
     57          6           0       15.167970   -0.174270   -0.359899
     58          6           0       15.562987   -1.612365   -0.756674
     59          6           0       16.251963    0.536338    0.398722
     60          6           0       17.606168    0.714509   -0.250540
     61          6           0       18.562594    1.494058    0.683304
     62          6           0       20.097232    1.727071    0.074937
     63          6           0       20.198364    2.376400   -1.304046
     64          6           0       20.940200    2.538129    1.082073
     65          1           0       -4.042415    3.572144    1.921440
     66          1           0       -9.994571    4.100468   -0.308387
     67          1           0      -10.628474   -2.224226   -1.153461
     68          1           0       -2.794038   -1.021895    2.146715
     69          1           0       -2.138093    1.414324    1.710087
     70          1           0       -1.915441    0.521506    3.748808
     71          1           0       -3.175420    2.112646    3.595317
     72          1           0       -3.642884    0.629363    3.990430
     73          1           0       -2.395125   -1.676410   -0.412944
     74          1           0       -2.337812   -0.271279   -0.696630
     75          1           0        0.029172    0.194988    1.034820
     76          1           0       -0.236987   -1.360165    1.263952
     77          1           0       -4.545166    6.108351    0.772884
     78          1           0       -5.664208    6.761317    1.344129
     79          1           0       -5.039586    5.735969    2.506661
     80          1           0       -8.018648    6.850476    1.118583
     81          1           0       -9.529359    5.958942   -1.467848
     82          1           0       -9.680249    7.576270   -0.875792
     83          1           0      -12.624167    3.514961   -0.144721
     84          1           0      -11.917696    3.475007   -1.912923
     85          1           0      -13.354376    2.713389   -1.325691
     86          1           0      -12.575369   -1.459635   -1.257711
     87          1           0      -13.483751    0.085407   -1.213921
     88          1           0      -12.767311    0.463819   -3.628930
     89          1           0      -11.667543   -0.923357   -3.358779
     90          1           0      -13.297047   -1.391022   -3.427678
     91          1           0      -10.165390   -4.526358   -0.721261
     92          1           0       -8.704059   -4.725703   -2.445937
     93          1           0       -8.467129   -5.569298   -0.557461
     94          1           0       -3.705575   -3.622984   -0.283088
     95          1           0       -1.876973   -6.281477    2.343800
     96          1           0       -1.955804   -4.587705    3.362719
     97          1           0       -3.318506   -5.974740    3.329844
     98          1           0        2.654086   -1.994280   -1.557132
     99          1           0        2.247302   -0.526668   -2.034233
    100          1           0        4.272555   -1.126848    0.360641
    101          1           0        5.307252    1.756175   -2.277810
    102          1           0        5.752276    0.296717   -2.972426
    103          1           0        3.842905    0.815598   -2.973918
    104          1           0        6.331529    1.383204   -0.008620
    105          1           0        6.227078   -0.427325    0.579605
    106          1           0        7.445657   -1.153718   -1.347575
    107          1           0        7.663743    0.615164   -1.846735
    108          1           0        8.929961    0.640727    0.502434
    109          1           0        8.336273   -1.271467    0.793451
    110          1           0       10.257094    0.040321   -1.528085
    111          1           0        9.197476   -2.522953   -1.651911
    112          1           0       10.825848   -2.631970   -1.580962
    113          1           0       10.028025   -2.950432   -0.087078
    114          1           0       11.063587    0.649793    0.519420
    115          1           0       11.418901   -1.182121    1.022562
    116          1           0       12.522783   -1.713999   -0.807481
    117          1           0       12.329985   -0.165377   -1.525462
    118          1           0       13.716204    0.967036    0.694307
    119          1           0       13.914440   -0.810499    1.272524
    120          1           0       15.282812    0.374213   -1.386757
    121          1           0       14.817563   -2.137931   -1.529899
    122          1           0       16.520240   -1.626521   -1.258804
    123          1           0       15.575480   -2.507129    0.276989
    124          1           0       15.760619    1.476370    0.882859
    125          1           0       16.347081   -0.049384    1.385069
    126          1           0       17.923198   -0.349456   -0.585976
    127          1           0       17.489597    1.111577   -1.149921
    128          1           0       18.188278    2.494435    0.803758
    129          1           0       18.763632    1.032099    1.648904
    130          1           0       20.488154    0.738053    0.033110
    131          1           0       19.714312    3.287891   -1.445370
    132          1           0       21.087701    2.103510   -1.925475
    133          1           0       19.401732    1.665948   -2.018836
    134          1           0       21.010365    1.680231    1.843919
    135          1           0       22.006396    2.416915    0.635934
    136          1           0       20.609462    3.614923    1.204766
    137          1           0       -7.149330    1.835817    0.423862
    138          1           0       -7.279455   -0.307782   -0.236936
 ---------------------------------------------------------------------

 SCF Done:  E(RB3LYP) =  -2732.98759756     A.U. after   16 cycles

 Excitation energies and oscillator strengths:

 Excited State   1:      Singlet-A      2.0232 eV  612.82 nm  f=0.1650  <S**2>=0.000
     235 -> 238       -0.31611
     236 -> 237        0.62851
 This state for optimization and/or second-order correction.
 Total Energy, E(TD-HF/TD-KS) =  -2732.91324667
 Copying the excited state density for this state as the 1-particle RhoCI density.

 The electronic state is 1-A.
 Alpha  occ. eigenvalues --  -19.17446 -19.16134 -19.13199 -19.12933 -19.12835
 Alpha  occ. eigenvalues --  -14.37489 -14.35992 -14.32350 -14.29997 -10.31484
 Alpha  occ. eigenvalues --  -10.31202 -10.27944 -10.25485 -10.24204 -10.24032
 Alpha  occ. eigenvalues --  -10.23858 -10.23683 -10.23089 -10.22854 -10.22811
 Alpha  occ. eigenvalues --  -10.21993 -10.21792 -10.21704 -10.21625 -10.21532
 Alpha  occ. eigenvalues --  -10.21424 -10.21374 -10.20822 -10.20494 -10.20367
 Alpha  occ. eigenvalues --  -10.20329 -10.20310 -10.20264 -10.20199 -10.20115
 Alpha  occ. eigenvalues --  -10.20060 -10.19802 -10.19771 -10.19458 -10.19455
 Alpha  occ. eigenvalues --  -10.19410 -10.19381 -10.19330 -10.19238 -10.19133
 Alpha  occ. eigenvalues --  -10.19122 -10.19048 -10.19023 -10.19013 -10.18943
 Alpha  occ. eigenvalues --  -10.18882 -10.18862 -10.18767 -10.18758 -10.18615
 Alpha  occ. eigenvalues --  -10.18612 -10.18601 -10.18596 -10.18537 -10.18491
 Alpha  occ. eigenvalues --  -10.18214 -10.18168 -10.17963 -10.17616  -1.10027
 Alpha  occ. eigenvalues --   -1.08078  -1.06872  -1.01627  -1.01536  -1.00625
 Alpha  occ. eigenvalues --   -0.97449  -0.92867  -0.90832  -0.85231  -0.83082
 Alpha  occ. eigenvalues --   -0.82770  -0.81858  -0.81617  -0.81025  -0.80719
 Alpha  occ. eigenvalues --   -0.79706  -0.79397  -0.79125  -0.78243  -0.77766
 Alpha  occ. eigenvalues --   -0.76868  -0.76512  -0.75618  -0.75355  -0.74695
 Alpha  occ. eigenvalues --   -0.73816  -0.73198  -0.72722  -0.72232  -0.71714
 Alpha  occ. eigenvalues --   -0.70325  -0.68922  -0.68381  -0.67765  -0.67117
 Alpha  occ. eigenvalues --   -0.66902  -0.66651  -0.65858  -0.65733  -0.65638
 Alpha  occ. eigenvalues --   -0.64247  -0.64000  -0.63003  -0.61598  -0.61078
 Alpha  occ. eigenvalues --   -0.60916  -0.59116  -0.58999  -0.58016  -0.57805
 Alpha  occ. eigenvalues --   -0.57156  -0.56733  -0.56248  -0.56159  -0.55245
 Alpha  occ. eigenvalues --   -0.54984  -0.54383  -0.53972  -0.53582  -0.53047
 Alpha  occ. eigenvalues --   -0.52614  -0.51462  -0.51377  -0.50447  -0.50211
 Alpha  occ. eigenvalues --   -0.49665  -0.49339  -0.49139  -0.48958  -0.48299
 Alpha  occ. eigenvalues --   -0.47787  -0.47578  -0.47389  -0.47325  -0.47314
 Alpha  occ. eigenvalues --   -0.47173  -0.46909  -0.46378  -0.46232  -0.45683
 Alpha  occ. eigenvalues --   -0.45618  -0.45451  -0.45392  -0.45176  -0.44993
 Alpha  occ. eigenvalues --   -0.44565  -0.44515  -0.44199  -0.44114  -0.43992
 Alpha  occ. eigenvalues --   -0.43653  -0.43465  -0.43190  -0.43159  -0.42887
 Alpha  occ. eigenvalues --   -0.42665  -0.42634  -0.42480  -0.42231  -0.41887
 Alpha  occ. eigenvalues --   -0.41573  -0.41389  -0.41203  -0.40838  -0.40707
 Alpha  occ. eigenvalues --   -0.40456  -0.40284  -0.40030  -0.39806  -0.39471
 Alpha  occ. eigenvalues --   -0.39356  -0.39173  -0.39033  -0.38485  -0.38257
 Alpha  occ. eigenvalues --   -0.38014  -0.37789  -0.37630  -0.37542  -0.37382
 Alpha  occ. eigenvalues --   -0.36979  -0.36726  -0.36512  -0.36399  -0.36333
 Alpha  occ. eigenvalues --   -0.36043  -0.35751  -0.35643  -0.35429  -0.35310
 Alpha  occ. eigenvalues --   -0.35097  -0.35027  -0.34947  -0.34535  -0.34366
 Alpha  occ. eigenvalues --   -0.34314  -0.34173  -0.34063  -0.33793  -0.33746
 Alpha  occ. eigenvalues --   -0.33661  -0.33577  -0.33328  -0.32668  -0.31984
 Alpha  occ. eigenvalues --   -0.31504  -0.31328  -0.31116  -0.30927  -0.30754
 Alpha  occ. eigenvalues --   -0.30710  -0.30242  -0.29974  -0.29689  -0.29377
 Alpha  occ. eigenvalues --   -0.29210  -0.28723  -0.28311  -0.28019  -0.27940
 Alpha  occ. eigenvalues --   -0.27613  -0.26950  -0.26395  -0.25681  -0.25421
 Alpha  occ. eigenvalues --   -0.25198  -0.24810  -0.23647  -0.22545  -0.19540
 Alpha  occ. eigenvalues --   -0.18210
 Alpha virt. eigenvalues --   -0.09656  -0.07429  -0.03922  -0.01824  -0.00309
 Alpha virt. eigenvalues --    0.00650   0.00974   0.01477   0.02357   0.02671
 Alpha virt. eigenvalues --    0.03912   0.03935   0.04110   0.04377   0.04530

 Mulliken charges:
               1
     1  C    0.021044
     2  C   -0.090437
     3  C   -0.047529
     4  C   -0.077558
     5  N   -0.223804
     6  C   -0.097815
     7  C    0.069395
     8  C   -0.093182
     9  C    0.033182
    10  C    0.095396
    11  C    0.216550
    12  C    0.062042
    13  C    0.123428
    14  O   -0.204254
    15  O   -0.327173
    16  N    0.166759
    17  C    0.033797
    18  C   -0.170959
    19  C   -0.075759
    20  C    0.044152
    21  C    0.242817
    22  C    0.044383
    23  C   -0.021091
    24  N   -0.280886
    25  C    0.055796
    26  C   -0.038244
    27  C   -0.091316
    28  C    0.030928
    29  C   -0.054490
    30  C    0.068609
    31  C    0.056779
    32  N    0.009119
    33  C    0.119394
    34  C   -0.104103
    35  C   -0.057073
    36  C    0.126473
    37  C   -0.074257
    38  C    0.056398
    39  O   -0.081063
    40  C   -0.097586
    41  C    0.233981
    42  O   -0.220504
    43  O   -0.328369
    44  C    0.144670
    45  C    0.292273
    46  C   -0.064921
    47  C   -0.152195
    48  C    0.093704
    49  C    0.017871
    50  C   -0.020280
    51  C    0.037006
    52  C   -0.046225
    53  C    0.003895
    54  C   -0.040222
    55  C    0.034497
    56  C    0.058461
    57  C   -0.060821
    58  C   -0.061611
    59  C   -0.020281
    60  C    0.112001
    61  C    0.057701
    62  C   -0.125334
    63  C    0.011434
    64  C    0.025472
    65  H    0.019489
    66  H   -0.055206
    67  H   -0.015941
    68  H   -0.027995
    69  H   -0.006335
    70  H    0.028639
    71  H   -0.002154
    72  H   -0.029060
    73  H    0.004806
    74  H   -0.078285
    75  H    0.044747
    76  H    0.021019
    77  H   -0.011377
    78  H   -0.050972
    79  H    0.040352
    80  H   -0.000518
    81  H    0.022826
    82  H    0.032163
    83  H    0.042144
    84  H    0.026892
    85  H    0.002402
    86  H    0.002621
    87  H   -0.017078
    88  H    0.008885
    89  H    0.001425
    90  H    0.015699
    91  H    0.059603
    92  H    0.082086
    93  H    0.077126
    94  H    0.050868
    95  H    0.042430
    96  H    0.057106
    97  H    0.041266
    98  H   -0.004564
    99  H   -0.024126
   100  H   -0.020643
   101  H   -0.010531
   102  H    0.029960
   103  H    0.043345
   104  H    0.018127
   105  H   -0.002728
   106  H   -0.010725
   107  H    0.008642
   108  H   -0.011515
   109  H    0.028957
   110  H    0.007909
   111  H    0.000369
   112  H    0.002741
   113  H    0.025284
   114  H   -0.006329
   115  H   -0.017385
   116  H    0.005435
   117  H   -0.027384
   118  H    0.009997
   119  H    0.014564
   120  H   -0.002599
   121  H    0.030338
   122  H    0.009148
   123  H    0.011056
   124  H   -0.009930
   125  H   -0.020157
   126  H   -0.000515
   127  H   -0.050413
   128  H   -0.008995
   129  H   -0.002138
   130  H   -0.017976
   131  H    0.004224
   132  H    0.026507
   133  H   -0.017844
   134  H    0.012202
   135  H    0.006575
   136  H    0.041633
   137  H    0.065044
   138  H    0.084697
 Sum of Mulliken charges =   0.00000

 Dipole moment (field-independent basis, Debye):
    X=              1.5422    Y=              4.2607    Z=              0.0717  Tot=              4.5318
 Quadrupole moment (field-independent basis, Debye-Ang):
   XX=           -355.4088   YY=           -369.5416   ZZ=           -398.4301
   XY=            -26.1400   XZ=              1.7640   YZ=             -0.7726

 Normal termination of Gaussian 09 at Sun Aug  4 07:56:53 2019.
