 Gaussian 09, Revision D.01,
 Gaussian 09:  ES64L-G09RevD.01 24-Apr-2013

 --------------------------
 # td=(NStates=1) B3LYP/SVP
 --------------------------

 --
 TD
 --
 Symbolic Z-matrix:
 Charge =  0 Multiplicity = 1

                         Standard orientation:
 ---------------------------------------------------------------------
 Center     Atomic      Atomic             Coordinates (Angstroms)
 Number     Number       Type             X           Y           Z
 ---------------------------------------------------------------------
      1          6           0       -5.110018   -1.949734    0.411342
      2          6           0       -4.775374    2.694757    1.387096
      3          6           0       -9.385370    3.289572   -0.093404
      4          6           0       -9.853914   -1.427229   -0.827369
      5          7           0       -5.124235    0.401898    0.891503
      6          6           0       -4.503963   -0.846524    0.878796
      7          6           0       -2.991044   -0.583397    1.277269
      8          6           0       -3.129873    0.811720    1.817134
      9          6           0       -4.387018    1.366166    1.276649
     10          6           0       -2.946541    0.919361    3.381627
     11          6           0       -2.011588   -0.864806    0.036472
     12          6           0       -0.606619   -0.951595    0.523761
     13          6           0        0.474156   -0.998780   -0.594373
     14          8           0        0.096515   -1.120168   -1.824331
     15          8           0        1.700906   -0.860191   -0.152643
     16          7           0       -7.167464    2.662299    0.686643
     17          6           0       -6.082984    3.313783    1.001111
     18          6           0       -6.222408    4.727636    1.029949
     19          6           0       -7.536168    4.908876    0.493579
     20          6           0       -8.093030    3.588027    0.314944
     21          6           0       -5.125343    5.778559    1.317774
     22          6           0       -8.203352    6.211701    0.355452
     23          6           0       -8.964709    6.745761   -0.675563
     24          7           0       -9.238492    0.889811   -0.377397
     25          6           0       -9.949636    2.005032   -0.442006
     26          6           0      -11.301680    1.799703   -0.885953
     27          6           0      -11.425909    0.477463   -1.035210
     28          6           0      -10.098450   -0.000225   -0.812788
     29          6           0      -12.334552    2.833977   -1.159101
     30          6           0      -12.621950   -0.321890   -1.565108
     31          6           0      -12.669338   -0.377640   -3.045024
     32          7           0       -7.508648   -1.251577   -0.243584
     33          6           0       -8.626298   -1.962653   -0.523339
     34          6           0       -8.258054   -3.410321   -0.571796
     35          6           0       -6.895037   -3.365687   -0.237171
     36          6           0       -6.526983   -2.093547    0.055834
     37          6           0       -9.209955   -4.439865   -1.069188
     38          6           0       -5.722507   -4.274254    0.013660
     39          8           0       -5.650080   -5.509696   -0.179992
     40          6           0       -4.568037   -3.384175    0.480900
     41          6           0       -3.875923   -3.856105    1.689593
     42          8           0       -4.165677   -3.450534    2.747941
     43          8           0       -2.945491   -4.795112    1.421820
     44          6           0       -2.287746   -5.363719    2.664866
     45          6           0        2.634797   -0.994048   -1.233865
     46          6           0        4.000286   -0.649710   -0.704819
     47          6           0        5.006167    0.135051   -1.195611
     48          6           0        4.998770    0.742081   -2.672151
     49          6           0        6.158218    0.416709   -0.422983
     50          6           0        7.485830   -0.263086   -1.085056
     51          6           0        8.685055   -0.044924   -0.132389
     52          6           0        9.975233   -0.641251   -0.771245
     53          6           0        9.947240   -2.088575   -0.877078
     54          6           0       11.210980   -0.112671    0.116802
     55          6           0       12.641696   -0.521280   -0.460145
     56          6           0       13.849703    0.138767    0.250237
     57          6           0       15.285631   -0.158352   -0.319072
     58          6           0       15.605381   -1.642191   -0.441848
     59          6           0       16.336106    0.663517    0.454446
     60          6           0       17.801024    0.504275   -0.061878
     61          6           0       18.609210    1.684352    0.438417
     62          6           0       20.113149    1.511134    0.212073
     63          6           0       20.452494    1.662058   -1.330209
     64          6           0       20.901713    2.506570    1.235272
     65          1           0       -4.169817    3.378505    1.745427
     66          1           0      -10.144449    4.191558   -0.224123
     67          1           0      -10.555835   -2.137862   -1.192057
     68          1           0       -2.553472   -1.144482    2.086039
     69          1           0       -2.358145    1.264966    1.423383
     70          1           0       -2.188393    0.393121    3.665030
     71          1           0       -2.597059    2.047618    3.523961
     72          1           0       -3.875240    0.524885    3.919941
     73          1           0       -2.314025   -1.700901   -0.318970
     74          1           0       -2.115186   -0.138411   -0.868273
     75          1           0       -0.361310   -0.227447    1.132975
     76          1           0       -0.671905   -1.919593    1.084241
     77          1           0       -4.387413    5.935192    0.646531
     78          1           0       -5.669506    6.799471    1.608792
     79          1           0       -4.543573    5.419746    2.260678
     80          1           0       -8.105941    7.003230    0.923672
     81          1           0       -9.257165    6.120185   -1.604374
     82          1           0       -9.459308    7.654199   -0.459207
     83          1           0      -12.545969    3.359319   -0.151494
     84          1           0      -12.109804    3.505967   -2.021684
     85          1           0      -13.248595    2.343658   -1.441808
     86          1           0      -12.456016   -1.372936   -1.023876
     87          1           0      -13.537956    0.109682   -1.123550
     88          1           0      -12.825821    0.638081   -3.504583
     89          1           0      -11.823363   -1.063301   -3.424937
     90          1           0      -13.594047   -0.906408   -3.487905
     91          1           0      -10.135243   -4.502597   -0.563307
     92          1           0       -9.374060   -4.331940   -2.099424
     93          1           0       -8.944934   -5.470724   -0.928757
     94          1           0       -3.800558   -3.311158   -0.479410
     95          1           0       -1.760172   -6.329696    2.262077
     96          1           0       -1.793574   -4.508169    3.164846
     97          1           0       -3.043300   -5.811581    3.275770
     98          1           0        2.602441   -1.925118   -1.841543
     99          1           0        2.318741   -0.118769   -2.160696
    100          1           0        4.012312   -0.911705    0.360283
    101          1           0        5.207108    1.706228   -2.833032
    102          1           0        5.658408   -0.123959   -3.170782
    103          1           0        4.151777    0.681601   -3.189151
    104          1           0        6.451871    1.661571   -0.640481
    105          1           0        6.131216    0.203120    0.644506
    106          1           0        7.254879   -1.297660   -1.202740
    107          1           0        7.877347    0.043271   -2.069396
    108          1           0        8.559933    1.031188    0.335338
    109          1           0        8.715852   -0.565530    0.903445
    110          1           0       10.159416   -0.208696   -1.754862
    111          1           0        9.161164   -2.515720   -1.501001
    112          1           0       10.900101   -2.574305   -1.201546
    113          1           0       10.058403   -2.381664    0.129674
    114          1           0       11.209980    1.035384    0.133489
    115          1           0       11.225154   -0.476463    1.113504
    116          1           0       12.972752   -1.517087   -0.807402
    117          1           0       12.647142   -0.087403   -1.570095
    118          1           0       13.574774    1.215292    0.460996
    119          1           0       13.801427   -0.196370    1.321630
    120          1           0       15.145876    0.319775   -1.241942
    121          1           0       14.857241   -2.170676   -0.901894
    122          1           0       16.643661   -1.913974   -0.959226
    123          1           0       15.728723   -2.041495    0.780294
    124          1           0       15.972814    1.742350    0.680742
    125          1           0       16.311141   -0.000577    1.395301
    126          1           0       18.352462   -0.539508    0.420359
    127          1           0       17.626607    0.343540   -1.256642
    128          1           0       18.115077    2.726493    0.057487
    129          1           0       18.477398    1.765120    1.695843
    130          1           0       20.459456    0.409491    0.399173
    131          1           0       20.172154    2.900189   -1.575074
    132          1           0       21.567476    1.326664   -1.525241
    133          1           0       20.027159    0.969475   -2.089664
    134          1           0       20.271691    2.381050    2.454671
    135          1           0       21.940789    2.155459    1.171544
    136          1           0       20.661072    3.631742    0.730425
    137          1           0       -7.212154    1.579965    0.780817
    138          1           0       -7.696009   -0.196118   -0.301130
 ---------------------------------------------------------------------

 SCF Done:  E(RB3LYP) =  -2732.96343072     A.U. after   17 cycles

 Excitation energies and oscillator strengths:

 Excited State   1:      Singlet-A      2.1211 eV  584.52 nm  f=0.1243  <S**2>=0.000
     235 -> 237        0.48246
     235 -> 238        0.15021
     236 -> 237       -0.36598
     236 -> 238        0.32246
 This state for optimization and/or second-order correction.
 Total Energy, E(TD-HF/TD-KS) =  -2732.88548105
 Copying the excited state density for this state as the 1-particle RhoCI density.

 The electronic state is 1-A.
 Alpha  occ. eigenvalues --  -19.20837 -19.17488 -19.12266 -19.12049 -19.11812
 Alpha  occ. eigenvalues --  -14.37580 -14.36741 -14.30415 -14.30027 -10.32315
 Alpha  occ. eigenvalues --  -10.30972 -10.28008 -10.26746 -10.25713 -10.23620
 Alpha  occ. eigenvalues --  -10.23450 -10.23133 -10.22290 -10.22216 -10.22136
 Alpha  occ. eigenvalues --  -10.21694 -10.21591 -10.21202 -10.21042 -10.20999
 Alpha  occ. eigenvalues --  -10.20980 -10.20964 -10.20844 -10.20772 -10.20755
 Alpha  occ. eigenvalues --  -10.20686 -10.20641 -10.20575 -10.20533 -10.20494
 Alpha  occ. eigenvalues --  -10.20142 -10.20026 -10.19986 -10.19940 -10.19879
 Alpha  occ. eigenvalues --  -10.19626 -10.19588 -10.19544 -10.19513 -10.19508
 Alpha  occ. eigenvalues --  -10.19367 -10.19282 -10.19214 -10.19193 -10.19036
 Alpha  occ. eigenvalues --  -10.18841 -10.18831 -10.18767 -10.18687 -10.18647
 Alpha  occ. eigenvalues --  -10.18616 -10.18497 -10.18447 -10.18138 -10.17668
 Alpha  occ. eigenvalues --  -10.17552 -10.17344 -10.17326 -10.17261  -1.11673
 Alpha  occ. eigenvalues --   -1.09559  -1.01162  -1.00357  -1.00121  -0.99376
 Alpha  occ. eigenvalues --   -0.97610  -0.96453  -0.94602  -0.84957  -0.82610
 Alpha  occ. eigenvalues --   -0.81603  -0.81423  -0.81260  -0.80702  -0.80665
 Alpha  occ. eigenvalues --   -0.80077  -0.79555  -0.78848  -0.78644  -0.77762
 Alpha  occ. eigenvalues --   -0.76374  -0.75908  -0.75513  -0.75086  -0.74424
 Alpha  occ. eigenvalues --   -0.73490  -0.72865  -0.72594  -0.71368  -0.70917
 Alpha  occ. eigenvalues --   -0.69958  -0.69683  -0.69418  -0.68647  -0.67799
 Alpha  occ. eigenvalues --   -0.66797  -0.65849  -0.65700  -0.65396  -0.65056
 Alpha  occ. eigenvalues --   -0.63915  -0.62951  -0.62710  -0.61898  -0.61268
 Alpha  occ. eigenvalues --   -0.60804  -0.58816  -0.58616  -0.57828  -0.57367
 Alpha  occ. eigenvalues --   -0.56742  -0.56463  -0.56363  -0.56147  -0.55714
 Alpha  occ. eigenvalues --   -0.55013  -0.54627  -0.54409  -0.53772  -0.53125
 Alpha  occ. eigenvalues --   -0.53103  -0.52292  -0.51924  -0.51402  -0.50503
 Alpha  occ. eigenvalues --   -0.50100  -0.49620  -0.49121  -0.48582  -0.48227
 Alpha  occ. eigenvalues --   -0.47930  -0.47848  -0.47234  -0.46967  -0.46878
 Alpha  occ. eigenvalues --   -0.46376  -0.46270  -0.46064  -0.46005  -0.45737
 Alpha  occ. eigenvalues --   -0.45559  -0.45286  -0.45243  -0.44902  -0.44664
 Alpha  occ. eigenvalues --   -0.44382  -0.44280  -0.43945  -0.43823  -0.43501
 Alpha  occ. eigenvalues --   -0.43342  -0.43218  -0.42863  -0.42478  -0.42451
 Alpha  occ. eigenvalues --   -0.42059  -0.41922  -0.41864  -0.41717  -0.41373
 Alpha  occ. eigenvalues --   -0.41323  -0.40927  -0.40727  -0.40657  -0.40519
 Alpha  occ. eigenvalues --   -0.40128  -0.40021  -0.39888  -0.39650  -0.39367
 Alpha  occ. eigenvalues --   -0.39101  -0.38955  -0.38865  -0.38752  -0.38373
 Alpha  occ. eigenvalues --   -0.37973  -0.37953  -0.37852  -0.37760  -0.37479
 Alpha  occ. eigenvalues --   -0.37453  -0.36941  -0.36905  -0.36635  -0.36315
 Alpha  occ. eigenvalues --   -0.36278  -0.36124  -0.36027  -0.35876  -0.35657
 Alpha  occ. eigenvalues --   -0.35178  -0.35070  -0.34903  -0.34690  -0.34324
 Alpha  occ. eigenvalues --   -0.34197  -0.34048  -0.33879  -0.33855  -0.33568
 Alpha  occ. eigenvalues --   -0.33496  -0.33397  -0.33184  -0.32666  -0.32065
 Alpha  occ. eigenvalues --   -0.32041  -0.31761  -0.31676  -0.31274  -0.31164
 Alpha  occ. eigenvalues --   -0.30999  -0.30967  -0.30735  -0.29940  -0.29561
 Alpha  occ. eigenvalues --   -0.29069  -0.29001  -0.28345  -0.28249  -0.28186
 Alpha  occ. eigenvalues --   -0.27651  -0.26739  -0.26149  -0.25897  -0.24998
 Alpha  occ. eigenvalues --   -0.24789  -0.24107  -0.23719  -0.23599  -0.19465
 Alpha  occ. eigenvalues --   -0.18602
 Alpha virt. eigenvalues --   -0.10080  -0.07276  -0.04077  -0.01771  -0.01501
 Alpha virt. eigenvalues --   -0.00400   0.00631   0.01215   0.02124   0.03469
 Alpha virt. eigenvalues --    0.03862   0.03895   0.04079   0.04190   0.04851

 Mulliken charges:
               1
     1  C   -0.011402
     2  C    0.012555
     3  C   -0.154366
     4  C   -0.082826
     5  N   -0.156944
     6  C   -0.042531
     7  C   -0.083142
     8  C    0.083385
     9  C   -0.015127
    10  C    0.117710
    11  C    0.156813
    12  C    0.095307
    13  C    0.195600
    14  O   -0.310785
    15  O   -0.244056
    16  N   -0.000309
    17  C    0.012280
    18  C   -0.133003
    19  C    0.085193
    20  C    0.124704
    21  C    0.083118
    22  C   -0.038546
    23  C   -0.063898
    24  N   -0.180840
    25  C    0.012600
    26  C   -0.143785
    27  C   -0.116192
    28  C    0.060141
    29  C    0.109645
    30  C    0.043703
    31  C    0.008460
    32  N   -0.006205
    33  C    0.010628
    34  C   -0.145875
    35  C   -0.015881
    36  C    0.088906
    37  C    0.162824
    38  C    0.090694
    39  O   -0.200256
    40  C   -0.063375
    41  C    0.197626
    42  O   -0.187171
    43  O   -0.332953
    44  C    0.177680
    45  C    0.168311
    46  C   -0.105329
    47  C   -0.104313
    48  C    0.136818
    49  C    0.042819
    50  C    0.018653
    51  C   -0.032990
    52  C   -0.058508
    53  C    0.092017
    54  C    0.029269
    55  C   -0.017488
    56  C   -0.008582
    57  C   -0.028635
    58  C    0.000507
    59  C    0.001467
    60  C   -0.043878
    61  C   -0.033050
    62  C   -0.104488
    63  C   -0.053744
    64  C   -0.053562
    65  H   -0.130219
    66  H    0.016162
    67  H   -0.037162
    68  H   -0.027009
    69  H   -0.090781
    70  H   -0.043821
    71  H    0.020640
    72  H    0.038801
    73  H   -0.087875
    74  H    0.025236
    75  H   -0.028184
    76  H    0.032180
    77  H    0.016234
    78  H    0.038627
    79  H    0.035461
    80  H   -0.055070
    81  H    0.038359
    82  H    0.017803
    83  H    0.034423
    84  H    0.031341
    85  H   -0.014220
    86  H    0.018425
    87  H    0.005041
    88  H    0.020785
    89  H    0.026921
    90  H    0.008549
    91  H    0.003244
    92  H    0.019198
    93  H    0.008070
    94  H    0.102160
    95  H    0.059925
    96  H    0.052368
    97  H    0.031144
    98  H    0.051565
    99  H    0.054941
   100  H   -0.006057
   101  H   -0.002444
   102  H    0.042761
   103  H   -0.046644
   104  H    0.021975
   105  H    0.011256
   106  H   -0.002069
   107  H    0.014132
   108  H    0.008224
   109  H   -0.009365
   110  H   -0.014326
   111  H    0.020315
   112  H   -0.000692
   113  H   -0.024734
   114  H    0.015074
   115  H   -0.005325
   116  H   -0.007739
   117  H   -0.021346
   118  H   -0.012872
   119  H   -0.026033
   120  H   -0.025364
   121  H   -0.001387
   122  H    0.037584
   123  H    0.017143
   124  H    0.021391
   125  H   -0.002058
   126  H    0.026923
   127  H    0.030941
   128  H    0.022923
   129  H    0.014347
   130  H    0.010324
   131  H    0.029388
   132  H    0.015886
   133  H    0.029224
   134  H    0.047108
   135  H    0.035702
   136  H    0.043284
   137  H    0.189387
   138  H    0.164503
 Sum of Mulliken charges =   0.00000

 Dipole moment (field-independent basis, Debye):
    X=              2.0349    Y=              2.9437    Z=              0.5840  Tot=              3.6259
 Quadrupole moment (field-independent basis, Debye-Ang):
   XX=           -349.1313   YY=           -383.7941   ZZ=           -394.9931
   XY=            -30.6801   XZ=              3.2872   YZ=             -2.6549

 Normal termination of Gaussian 09 at Sat Jul 27 05:30:55 2019.
