 Gaussian 09, Revision D.01,
 Gaussian 09:  ES64L-G09RevD.01 24-Apr-2013

 --------------------------
 # td=(NStates=1) B3LYP/SVP
 --------------------------

 --
 TD
 --
 Symbolic Z-matrix:
 Charge =  0 Multiplicity = 1

                         Standard orientation:
 ---------------------------------------------------------------------
 Center     Atomic      Atomic             Coordinates (Angstroms)
 Number     Number       Type             X           Y           Z
 ---------------------------------------------------------------------
      1          6           0       -5.032750   -1.878512    0.495674
      2          6           0       -4.896639    2.935076    1.314510
      3          6           0       -9.525011    3.203820   -0.229775
      4          6           0       -9.794416   -1.622838   -0.848466
      5          7           0       -5.246373    0.492757    0.689665
      6          6           0       -4.546409   -0.613138    0.767790
      7          6           0       -3.025074   -0.429837    1.194852
      8          6           0       -3.045037    1.026120    1.720894
      9          6           0       -4.423904    1.556711    1.078540
     10          6           0       -2.998597    0.968355    3.330421
     11          6           0       -2.064744   -0.718642   -0.016549
     12          6           0       -0.620044   -0.584322    0.437984
     13          6           0        0.375737   -0.861885   -0.711778
     14          8           0        0.076915   -1.080142   -1.867367
     15          8           0        1.641760   -0.607219   -0.284755
     16          7           0       -7.099185    2.697213    0.417032
     17          6           0       -6.098230    3.418632    0.932752
     18          6           0       -6.390519    4.807711    0.894416
     19          6           0       -7.781627    4.886072    0.539666
     20          6           0       -8.141476    3.525784    0.206293
     21          6           0       -5.563741    5.932662    1.394399
     22          6           0       -8.409778    6.106240    0.207305
     23          6           0       -9.391335    6.396592   -0.712968
     24          7           0       -9.249801    0.799389   -0.322640
     25          6           0      -10.055497    1.926973   -0.295713
     26          6           0      -11.448541    1.671392   -0.744179
     27          6           0      -11.492429    0.350581   -0.981756
     28          6           0      -10.161598   -0.170581   -0.730794
     29          6           0      -12.502682    2.686925   -1.021919
     30          6           0      -12.688281   -0.562650   -1.404264
     31          6           0      -12.760130   -1.039887   -2.891632
     32          7           0       -7.490589   -1.293563   -0.191042
     33          6           0       -8.534853   -2.155809   -0.511599
     34          6           0       -8.046281   -3.488662   -0.599184
     35          6           0       -6.708849   -3.436842   -0.134422
     36          6           0       -6.385764   -2.052700   -0.054392
     37          6           0       -8.766992   -4.826741   -0.926899
     38          6           0       -5.534147   -4.288604   -0.028240
     39          8           0       -5.421670   -5.510897   -0.057112
     40          6           0       -4.374822   -3.291502    0.371793
     41          6           0       -3.766190   -3.754385    1.749329
     42          8           0       -4.183512   -3.246355    2.777099
     43          8           0       -2.871319   -4.656078    1.607989
     44          6           0       -2.254001   -5.259080    2.786433
     45          6           0        2.727154   -0.760801   -1.226402
     46          6           0        4.045916   -0.422789   -0.640076
     47          6           0        5.013998    0.315625   -1.173341
     48          6           0        4.989760    0.870067   -2.613160
     49          6           0        6.368783    0.400863   -0.486837
     50          6           0        7.483001   -0.333150   -1.072777
     51          6           0        8.815011    0.081147   -0.242892
     52          6           0       10.165424   -0.609902   -0.744691
     53          6           0        9.982617   -2.191414   -0.542776
     54          6           0       11.398116   -0.154406   -0.055703
     55          6           0       12.748264   -0.631887   -0.637049
     56          6           0       13.883558    0.057720    0.114024
     57          6           0       15.222509   -0.152744   -0.420599
     58          6           0       15.610165   -1.692757   -0.437696
     59          6           0       16.267268    0.625891    0.447207
     60          6           0       17.827203    0.567204   -0.041746
     61          6           0       18.677521    1.479946    0.702739
     62          6           0       20.223003    1.432921    0.260948
     63          6           0       20.308415    1.900079   -1.189283
     64          6           0       20.962386    2.305311    1.261150
     65          1           0       -4.246970    3.573173    1.940354
     66          1           0      -10.322827    4.066945   -0.464308
     67          1           0      -10.671643   -2.298399   -1.148287
     68          1           0       -2.823490   -1.414898    1.908678
     69          1           0       -2.112627    1.557110    1.176107
     70          1           0       -2.043591    0.440730    3.685135
     71          1           0       -2.973381    2.013251    3.629600
     72          1           0       -3.886859    0.496588    3.531212
     73          1           0       -2.292815   -1.545267   -0.602071
     74          1           0       -2.246011   -0.104317   -0.721819
     75          1           0       -0.741597    0.437305    0.807534
     76          1           0       -0.568949   -1.141681    1.323999
     77          1           0       -4.656005    5.895804    0.750922
     78          1           0       -6.193969    6.888422    1.054170
     79          1           0       -5.270179    5.920926    2.555989
     80          1           0       -8.238182    6.875051    0.817632
     81          1           0       -9.682423    5.762340   -1.466515
     82          1           0      -10.008428    7.349042   -0.624796
     83          1           0      -12.710928    3.169254   -0.162476
     84          1           0      -12.078030    3.389125   -1.657294
     85          1           0      -13.316418    2.153454   -1.539762
     86          1           0      -12.742403   -1.454358   -0.928899
     87          1           0      -13.563997    0.009320   -1.263895
     88          1           0      -12.669395   -0.153942   -3.607851
     89          1           0      -11.924326   -1.640007   -3.266046
     90          1           0      -13.761036   -1.460321   -2.944437
     91          1           0       -9.568726   -4.856132   -0.147431
     92          1           0       -9.325157   -4.811594   -2.102315
     93          1           0       -7.926772   -5.613733   -0.935862
     94          1           0       -3.391510   -3.133140   -0.530456
     95          1           0       -1.759340   -6.226412    2.525354
     96          1           0       -1.615116   -4.534816    3.256200
     97          1           0       -3.103001   -5.431974    3.622998
     98          1           0        2.612446   -1.895747   -1.296651
     99          1           0        2.469034   -0.124327   -2.267353
    100          1           0        4.285649   -0.948586    0.406398
    101          1           0        5.376581    1.815540   -2.556119
    102          1           0        5.481461    0.155970   -3.409194
    103          1           0        3.982056    0.805339   -3.051883
    104          1           0        6.703262    1.479912   -0.634248
    105          1           0        6.311586    0.262068    0.634599
    106          1           0        7.338549   -1.390224   -0.934913
    107          1           0        7.703730   -0.124143   -2.246900
    108          1           0        8.992380    1.254079   -0.429363
    109          1           0        8.834490   -0.130252    0.952726
    110          1           0       10.326812   -0.321550   -1.814363
    111          1           0        9.237118   -2.709046   -1.231017
    112          1           0       11.059636   -2.708937   -0.844746
    113          1           0        9.874729   -2.339989    0.628485
    114          1           0       11.251852    1.048928    0.039887
    115          1           0       11.189417   -0.655932    1.088859
    116          1           0       12.860434   -1.737975   -0.700918
    117          1           0       12.840958   -0.307196   -1.726929
    118          1           0       13.616355    1.164286    0.066321
    119          1           0       13.776869   -0.098511    1.284051
    120          1           0       15.316880    0.309862   -1.470127
    121          1           0       15.012618   -2.208642   -1.319458
    122          1           0       16.801990   -1.891483   -0.641245
    123          1           0       15.282760   -2.200637    0.556672
    124          1           0       15.781268    1.661660    0.267642
    125          1           0       16.122045    0.254430    1.519891
    126          1           0       18.148068   -0.519776   -0.151021
    127          1           0       17.784622    0.782226   -1.180907
    128          1           0       18.250710    2.377395    0.737802
    129          1           0       18.400901    1.148942    1.826574
    130          1           0       20.548913    0.429821    0.318355
    131          1           0       19.850272    2.871829   -1.375058
    132          1           0       21.473833    1.932629   -1.627995
    133          1           0       19.550201    1.289181   -1.632638
    134          1           0       20.963090    1.635581    2.074922
    135          1           0       22.084121    2.234566    0.908018
    136          1           0       20.455543    3.171916    1.764976
    137          1           0       -7.218596    1.713758    0.478482
    138          1           0       -7.826827   -0.428563   -0.078292
 ---------------------------------------------------------------------

 SCF Done:  E(RB3LYP) =  -2733.04726533     A.U. after   17 cycles

 Excitation energies and oscillator strengths:

 Excited State   1:      Singlet-A      1.9295 eV  642.58 nm  f=0.1532  <S**2>=0.000
     235 -> 237       -0.18389
     235 -> 238       -0.25280
     236 -> 237        0.61369
     236 -> 238       -0.14707
 This state for optimization and/or second-order correction.
 Total Energy, E(TD-HF/TD-KS) =  -2732.97635802
 Copying the excited state density for this state as the 1-particle RhoCI density.

 The electronic state is 1-A.
 Alpha  occ. eigenvalues --  -19.19489 -19.17194 -19.12806 -19.12498 -19.11860
 Alpha  occ. eigenvalues --  -14.37110 -14.36309 -14.32690 -14.30561 -10.31938
 Alpha  occ. eigenvalues --  -10.31874 -10.28238 -10.26671 -10.26227 -10.23975
 Alpha  occ. eigenvalues --  -10.23965 -10.23889 -10.23218 -10.23203 -10.22471
 Alpha  occ. eigenvalues --  -10.22269 -10.22112 -10.21935 -10.21863 -10.21555
 Alpha  occ. eigenvalues --  -10.21409 -10.21267 -10.21150 -10.21142 -10.21027
 Alpha  occ. eigenvalues --  -10.20628 -10.20544 -10.20488 -10.20446 -10.20309
 Alpha  occ. eigenvalues --  -10.20306 -10.20187 -10.19902 -10.19802 -10.19691
 Alpha  occ. eigenvalues --  -10.19657 -10.19591 -10.19586 -10.19459 -10.19431
 Alpha  occ. eigenvalues --  -10.19423 -10.19360 -10.19345 -10.19323 -10.19307
 Alpha  occ. eigenvalues --  -10.19155 -10.19113 -10.18980 -10.18952 -10.18846
 Alpha  occ. eigenvalues --  -10.18659 -10.18628 -10.18583 -10.18372 -10.18116
 Alpha  occ. eigenvalues --  -10.18007 -10.17818 -10.17693 -10.16531  -1.11551
 Alpha  occ. eigenvalues --   -1.08712  -1.02082  -1.00680  -1.00534  -0.99880
 Alpha  occ. eigenvalues --   -0.99061  -0.93767  -0.92717  -0.83939  -0.82758
 Alpha  occ. eigenvalues --   -0.82295  -0.82036  -0.81153  -0.80924  -0.80667
 Alpha  occ. eigenvalues --   -0.79680  -0.79548  -0.79531  -0.77996  -0.77197
 Alpha  occ. eigenvalues --   -0.76277  -0.75751  -0.75440  -0.74853  -0.74673
 Alpha  occ. eigenvalues --   -0.73318  -0.73159  -0.72030  -0.71446  -0.70589
 Alpha  occ. eigenvalues --   -0.69768  -0.69019  -0.68827  -0.68012  -0.67422
 Alpha  occ. eigenvalues --   -0.67056  -0.65738  -0.65498  -0.65145  -0.64869
 Alpha  occ. eigenvalues --   -0.63673  -0.63448  -0.62861  -0.62076  -0.61351
 Alpha  occ. eigenvalues --   -0.61032  -0.58546  -0.57985  -0.57521  -0.56806
 Alpha  occ. eigenvalues --   -0.56481  -0.56353  -0.56276  -0.55998  -0.55450
 Alpha  occ. eigenvalues --   -0.54799  -0.54506  -0.53954  -0.53030  -0.52791
 Alpha  occ. eigenvalues --   -0.52597  -0.51680  -0.51033  -0.50724  -0.50227
 Alpha  occ. eigenvalues --   -0.49826  -0.49454  -0.48979  -0.48337  -0.47909
 Alpha  occ. eigenvalues --   -0.47676  -0.47607  -0.47371  -0.46833  -0.46435
 Alpha  occ. eigenvalues --   -0.46260  -0.46179  -0.46081  -0.46002  -0.45395
 Alpha  occ. eigenvalues --   -0.45142  -0.44996  -0.44740  -0.44597  -0.44559
 Alpha  occ. eigenvalues --   -0.44241  -0.44165  -0.43985  -0.43743  -0.43642
 Alpha  occ. eigenvalues --   -0.43465  -0.43196  -0.42954  -0.42424  -0.42397
 Alpha  occ. eigenvalues --   -0.42090  -0.41969  -0.41696  -0.41422  -0.41276
 Alpha  occ. eigenvalues --   -0.41051  -0.40953  -0.40636  -0.40479  -0.40407
 Alpha  occ. eigenvalues --   -0.40373  -0.40122  -0.39553  -0.39339  -0.39191
 Alpha  occ. eigenvalues --   -0.39082  -0.39030  -0.38785  -0.38541  -0.38371
 Alpha  occ. eigenvalues --   -0.38059  -0.37968  -0.37762  -0.37729  -0.37334
 Alpha  occ. eigenvalues --   -0.37031  -0.36913  -0.36854  -0.36556  -0.36442
 Alpha  occ. eigenvalues --   -0.36299  -0.36255  -0.36169  -0.35759  -0.35577
 Alpha  occ. eigenvalues --   -0.35339  -0.35183  -0.34948  -0.34679  -0.34607
 Alpha  occ. eigenvalues --   -0.34441  -0.34231  -0.34188  -0.33624  -0.33566
 Alpha  occ. eigenvalues --   -0.33351  -0.33288  -0.32991  -0.32829  -0.32631
 Alpha  occ. eigenvalues --   -0.32016  -0.31385  -0.31171  -0.31103  -0.31048
 Alpha  occ. eigenvalues --   -0.30879  -0.30737  -0.30310  -0.30073  -0.30023
 Alpha  occ. eigenvalues --   -0.29902  -0.29328  -0.28779  -0.28505  -0.28240
 Alpha  occ. eigenvalues --   -0.27830  -0.27339  -0.27071  -0.26378  -0.25799
 Alpha  occ. eigenvalues --   -0.25481  -0.25227  -0.23379  -0.23253  -0.19578
 Alpha  occ. eigenvalues --   -0.18365
 Alpha virt. eigenvalues --   -0.10425  -0.07629  -0.04914  -0.02952  -0.00921
 Alpha virt. eigenvalues --   -0.00706  -0.00072   0.00970   0.02148   0.03485
 Alpha virt. eigenvalues --    0.03610   0.03962   0.04132   0.04354   0.04840

 Mulliken charges:
               1
     1  C    0.028691
     2  C   -0.121209
     3  C   -0.113270
     4  C   -0.072087
     5  N   -0.152124
     6  C   -0.071010
     7  C   -0.156933
     8  C   -0.093544
     9  C    0.013101
    10  C    0.108554
    11  C    0.153118
    12  C    0.088760
    13  C    0.227152
    14  O   -0.231168
    15  O   -0.326781
    16  N    0.053809
    17  C    0.130119
    18  C   -0.157042
    19  C    0.048304
    20  C    0.035454
    21  C    0.040243
    22  C   -0.025948
    23  C   -0.032781
    24  N   -0.288302
    25  C    0.077542
    26  C   -0.211753
    27  C   -0.080502
    28  C    0.015051
    29  C    0.230331
    30  C    0.136723
    31  C   -0.026698
    32  N    0.063077
    33  C    0.048522
    34  C   -0.122054
    35  C   -0.050531
    36  C    0.080512
    37  C    0.002715
    38  C    0.127923
    39  O   -0.189495
    40  C   -0.141568
    41  C    0.196236
    42  O   -0.245992
    43  O   -0.237165
    44  C    0.149737
    45  C    0.217689
    46  C   -0.088353
    47  C   -0.134876
    48  C    0.091529
    49  C    0.055609
    50  C    0.027389
    51  C   -0.071492
    52  C   -0.047901
    53  C   -0.059505
    54  C   -0.056950
    55  C    0.060315
    56  C   -0.011863
    57  C   -0.057195
    58  C   -0.065486
    59  C   -0.027429
    60  C   -0.012913
    61  C    0.043343
    62  C   -0.065592
    63  C    0.041639
    64  C    0.088383
    65  H   -0.008285
    66  H    0.019668
    67  H    0.006638
    68  H    0.049103
    69  H    0.027729
    70  H    0.032860
    71  H    0.009750
    72  H    0.022025
    73  H   -0.045696
    74  H   -0.079178
    75  H    0.006997
    76  H   -0.008682
    77  H    0.031945
    78  H    0.034094
    79  H    0.063049
    80  H   -0.034144
    81  H    0.004699
    82  H    0.032715
    83  H   -0.008122
    84  H   -0.000029
    85  H    0.013459
    86  H   -0.022419
    87  H   -0.020152
    88  H    0.006056
    89  H    0.019532
    90  H    0.019518
    91  H    0.054130
    92  H    0.047513
    93  H    0.073586
    94  H    0.103924
    95  H    0.064854
    96  H    0.031991
    97  H    0.059083
    98  H    0.021420
    99  H    0.064996
   100  H    0.015451
   101  H    0.006002
   102  H    0.044038
   103  H   -0.008397
   104  H   -0.009563
   105  H    0.011489
   106  H   -0.004989
   107  H    0.028218
   108  H    0.013384
   109  H    0.021097
   110  H   -0.012749
   111  H    0.039750
   112  H    0.018468
   113  H    0.028652
   114  H    0.019021
   115  H    0.002107
   116  H    0.013739
   117  H   -0.006088
   118  H   -0.010170
   119  H    0.004628
   120  H    0.002317
   121  H    0.029415
   122  H    0.035973
   123  H    0.028364
   124  H    0.007333
   125  H    0.010128
   126  H    0.002585
   127  H   -0.001445
   128  H   -0.047999
   129  H   -0.006214
   130  H   -0.014827
   131  H   -0.007533
   132  H    0.034377
   133  H   -0.016128
   134  H   -0.028718
   135  H    0.011105
   136  H    0.021075
   137  H    0.138090
   138  H    0.059333
 Sum of Mulliken charges =   0.00000

 Dipole moment (field-independent basis, Debye):
    X=              1.9379    Y=              2.7991    Z=              0.9233  Tot=              3.5275
 Quadrupole moment (field-independent basis, Debye-Ang):
   XX=           -356.0995   YY=           -385.8633   ZZ=           -395.2197
   XY=            -26.1312   XZ=              5.6339   YZ=             -3.6573

 Normal termination of Gaussian 09 at Sat Jul 27 11:19:06 2019.
