 Gaussian 09, Revision D.01,
 Gaussian 09:  ES64L-G09RevD.01 24-Apr-2013

 --------------------------
 # td=(NStates=1) B3LYP/SVP
 --------------------------

 --
 TD
 --
 Symbolic Z-matrix:
 Charge =  0 Multiplicity = 1

                         Standard orientation:
 ---------------------------------------------------------------------
 Center     Atomic      Atomic             Coordinates (Angstroms)
 Number     Number       Type             X           Y           Z
 ---------------------------------------------------------------------
      1          6           0       -5.113813   -1.804694    0.401703
      2          6           0       -4.840686    2.865046    1.294948
      3          6           0       -9.356592    3.335558   -0.184741
      4          6           0       -9.783476   -1.558409   -0.659185
      5          7           0       -5.162283    0.487848    0.743834
      6          6           0       -4.395567   -0.668783    0.731447
      7          6           0       -2.879700   -0.484597    1.167109
      8          6           0       -3.079770    1.012511    1.747666
      9          6           0       -4.396675    1.497786    1.216186
     10          6           0       -2.931344    1.157394    3.224057
     11          6           0       -2.048321   -0.779520    0.021226
     12          6           0       -0.556329   -0.685767    0.457450
     13          6           0        0.332964   -1.065368   -0.704270
     14          8           0        0.020224   -1.465892   -1.752011
     15          8           0        1.645574   -0.751388   -0.356141
     16          7           0       -7.063327    2.717959    0.424908
     17          6           0       -6.018331    3.504508    0.914179
     18          6           0       -6.366225    4.878021    0.975407
     19          6           0       -7.716376    4.992877    0.445062
     20          6           0       -8.138560    3.593464    0.171280
     21          6           0       -5.443910    5.930727    1.413699
     22          6           0       -8.378404    6.175345    0.302190
     23          6           0       -9.138402    6.475887   -0.818573
     24          7           0       -9.341191    0.875866   -0.411826
     25          6           0       -9.929582    2.071694   -0.477765
     26          6           0      -11.327454    1.815490   -0.917746
     27          6           0      -11.531403    0.424334   -0.964608
     28          6           0      -10.240034   -0.164999   -0.743543
     29          6           0      -12.418111    2.850763   -0.985594
     30          6           0      -12.629481   -0.399409   -1.372862
     31          6           0      -12.732669   -0.606522   -2.995694
     32          7           0       -7.547728   -1.252714   -0.048165
     33          6           0       -8.566281   -2.052504   -0.480292
     34          6           0       -8.164090   -3.456302   -0.473127
     35          6           0       -6.818157   -3.360960   -0.155936
     36          6           0       -6.415531   -1.997339    0.047511
     37          6           0       -8.860330   -4.644298   -0.905978
     38          6           0       -5.638893   -4.262850    0.131431
     39          8           0       -5.536036   -5.482492    0.161205
     40          6           0       -4.402306   -3.211490    0.366418
     41          6           0       -3.817840   -3.713478    1.657832
     42          8           0       -4.175603   -3.421560    2.742955
     43          8           0       -2.875588   -4.631286    1.475120
     44          6           0       -2.295998   -5.405549    2.534993
     45          6           0        2.667293   -1.173215   -1.289080
     46          6           0        3.986035   -0.715247   -0.663696
     47          6           0        5.040589   -0.141877   -1.295796
     48          6           0        5.020847    0.479000   -2.672826
     49          6           0        6.227385    0.108984   -0.548781
     50          6           0        7.522688   -0.606988   -1.005163
     51          6           0        8.789499   -0.322512   -0.187585
     52          6           0       10.156585   -0.842936   -0.692436
     53          6           0        9.998618   -2.348249   -0.974697
     54          6           0       11.330982   -0.448587    0.161842
     55          6           0       12.718895   -0.655816   -0.440678
     56          6           0       13.780812   -0.039430    0.395246
     57          6           0       15.284077   -0.173774   -0.167653
     58          6           0       15.765327   -1.683186   -0.294782
     59          6           0       16.273385    0.634320    0.568094
     60          6           0       17.636341    0.825132   -0.131524
     61          6           0       18.448926    1.801114    0.578493
     62          6           0       20.014048    1.853137    0.188058
     63          6           0       20.166332    2.203133   -1.287435
     64          6           0       20.963523    2.672445    1.030193
     65          1           0       -4.188195    3.561862    1.755347
     66          1           0       -9.986829    4.208665   -0.157670
     67          1           0      -10.545518   -2.316967   -0.811017
     68          1           0       -2.830151   -0.941574    2.264633
     69          1           0       -2.271209    1.682202    1.108292
     70          1           0       -1.831563    0.880893    3.696004
     71          1           0       -2.917898    2.285392    3.515233
     72          1           0       -3.670734    0.493933    3.636628
     73          1           0       -2.340260   -1.674828   -0.436745
     74          1           0       -2.346629    0.117532   -0.680539
     75          1           0       -0.301509    0.384842    0.834298
     76          1           0       -0.204168   -1.323479    1.294403
     77          1           0       -4.572727    5.567044    0.737372
     78          1           0       -5.860817    6.987277    1.128612
     79          1           0       -5.262793    5.635831    2.452994
     80          1           0       -8.295453    7.053286    0.895153
     81          1           0       -9.560185    5.858990   -1.585763
     82          1           0       -9.835912    7.288540   -1.139370
     83          1           0      -12.254583    3.504292   -0.162974
     84          1           0      -12.363409    3.650342   -1.908108
     85          1           0      -13.491640    2.473394   -0.991600
     86          1           0      -12.729151   -1.368242   -0.850347
     87          1           0      -13.479708    0.033367   -0.889111
     88          1           0      -12.490939    0.371755   -3.616994
     89          1           0      -11.628017   -1.070318   -3.232749
     90          1           0      -13.415027   -1.388783   -3.412239
     91          1           0       -9.631718   -5.157798   -0.153504
     92          1           0       -9.325946   -4.397560   -1.865982
     93          1           0       -8.275718   -5.613287   -0.987397
     94          1           0       -3.660395   -3.297486   -0.302772
     95          1           0       -1.545337   -6.169741    2.173534
     96          1           0       -1.861634   -4.793953    3.183619
     97          1           0       -3.138875   -5.906453    2.970048
     98          1           0        2.664927   -2.340843   -1.406171
     99          1           0        2.344393   -0.789969   -2.347241
    100          1           0        4.266129   -1.201820    0.328189
    101          1           0        5.266713    1.613646   -2.523451
    102          1           0        6.026211    0.296214   -3.289208
    103          1           0        4.197411    0.373513   -3.375745
    104          1           0        6.561067    1.233067   -0.693948
    105          1           0        5.905334   -0.017297    0.466743
    106          1           0        7.365908   -1.530122   -1.195756
    107          1           0        7.848851   -0.122440   -1.984126
    108          1           0        8.747527    0.868384   -0.076095
    109          1           0        8.547974   -0.613130    0.816480
    110          1           0       10.367963   -0.269900   -1.604056
    111          1           0        9.078659   -2.693975   -1.609885
    112          1           0       10.769471   -2.831458   -1.399835
    113          1           0        9.889532   -2.754872   -0.037854
    114          1           0       11.297187    0.534221    0.312163
    115          1           0       11.004238   -1.027189    1.125359
    116          1           0       12.880907   -1.698848   -0.636639
    117          1           0       12.266663   -0.196894   -1.413059
    118          1           0       13.880034    1.085481    0.712911
    119          1           0       13.678270   -0.544242    1.477182
    120          1           0       15.198214    0.186809   -1.139257
    121          1           0       14.904658   -2.317201   -0.691512
    122          1           0       16.672254   -1.855785   -0.986506
    123          1           0       16.125268   -2.055158    0.804188
    124          1           0       15.754873    1.596330    0.592249
    125          1           0       16.377122    0.217569    1.661937
    126          1           0       18.031971   -0.203120   -0.266927
    127          1           0       17.418167    1.585784   -1.161169
    128          1           0       18.021805    2.928564    0.588026
    129          1           0       18.729119    1.760025    1.848293
    130          1           0       20.408583    0.765918    0.457926
    131          1           0       20.159715    3.311004   -1.289348
    132          1           0       21.204341    2.214409   -1.594776
    133          1           0       19.623937    1.549583   -2.026346
    134          1           0       21.088814    2.393116    2.192582
    135          1           0       22.086551    2.646608    0.743851
    136          1           0       20.607120    3.839319    0.957411
    137          1           0       -6.971285    1.694443    0.540251
    138          1           0       -7.535910   -0.134585   -0.378441
 ---------------------------------------------------------------------

 SCF Done:  E(RB3LYP) =  -2733.02105371     A.U. after   17 cycles

 Excitation energies and oscillator strengths:

 Excited State   1:      Singlet-A      2.0583 eV  602.37 nm  f=0.0761  <S**2>=0.000
     235 -> 238        0.38724
     236 -> 237        0.58467
 This state for optimization and/or second-order correction.
 Total Energy, E(TD-HF/TD-KS) =  -2732.94541300
 Copying the excited state density for this state as the 1-particle RhoCI density.

 The electronic state is 1-A.
 Alpha  occ. eigenvalues --  -19.16384 -19.16162 -19.13475 -19.13026 -19.10670
 Alpha  occ. eigenvalues --  -14.36752 -14.36445 -14.32629 -14.28944 -10.31199
 Alpha  occ. eigenvalues --  -10.30249 -10.28707 -10.25817 -10.23652 -10.23560
 Alpha  occ. eigenvalues --  -10.23523 -10.23286 -10.23147 -10.23107 -10.22504
 Alpha  occ. eigenvalues --  -10.21745 -10.21734 -10.21642 -10.21454 -10.21423
 Alpha  occ. eigenvalues --  -10.21337 -10.21089 -10.20964 -10.20919 -10.20877
 Alpha  occ. eigenvalues --  -10.20755 -10.20732 -10.20708 -10.20675 -10.20548
 Alpha  occ. eigenvalues --  -10.20394 -10.20380 -10.20334 -10.20302 -10.20282
 Alpha  occ. eigenvalues --  -10.20277 -10.20072 -10.20065 -10.20035 -10.19819
 Alpha  occ. eigenvalues --  -10.19680 -10.19350 -10.19335 -10.19266 -10.19194
 Alpha  occ. eigenvalues --  -10.19179 -10.19018 -10.18919 -10.18897 -10.18719
 Alpha  occ. eigenvalues --  -10.18621 -10.18520 -10.18430 -10.18396 -10.17754
 Alpha  occ. eigenvalues --  -10.17697 -10.17628 -10.17410 -10.17202  -1.09635
 Alpha  occ. eigenvalues --   -1.09469  -1.02381  -1.01498  -1.00193  -0.98278
 Alpha  occ. eigenvalues --   -0.96656  -0.93933  -0.91719  -0.84311  -0.83525
 Alpha  occ. eigenvalues --   -0.83192  -0.82636  -0.82120  -0.81627  -0.81533
 Alpha  occ. eigenvalues --   -0.80782  -0.79366  -0.79070  -0.78324  -0.77869
 Alpha  occ. eigenvalues --   -0.77388  -0.76664  -0.76153  -0.75071  -0.74330
 Alpha  occ. eigenvalues --   -0.73740  -0.73233  -0.72517  -0.71833  -0.70689
 Alpha  occ. eigenvalues --   -0.70234  -0.69539  -0.68427  -0.68283  -0.67648
 Alpha  occ. eigenvalues --   -0.66651  -0.66624  -0.66032  -0.65310  -0.64936
 Alpha  occ. eigenvalues --   -0.64197  -0.63680  -0.62818  -0.61728  -0.61290
 Alpha  occ. eigenvalues --   -0.61220  -0.59293  -0.58495  -0.57624  -0.57167
 Alpha  occ. eigenvalues --   -0.56846  -0.56278  -0.56138  -0.55242  -0.54885
 Alpha  occ. eigenvalues --   -0.54591  -0.54489  -0.54176  -0.53461  -0.52981
 Alpha  occ. eigenvalues --   -0.52223  -0.51939  -0.51231  -0.50962  -0.50540
 Alpha  occ. eigenvalues --   -0.49917  -0.49436  -0.49310  -0.48990  -0.48662
 Alpha  occ. eigenvalues --   -0.48458  -0.47863  -0.47685  -0.47649  -0.47303
 Alpha  occ. eigenvalues --   -0.46783  -0.46618  -0.46453  -0.46196  -0.46055
 Alpha  occ. eigenvalues --   -0.45970  -0.45745  -0.45361  -0.44935  -0.44635
 Alpha  occ. eigenvalues --   -0.44503  -0.44419  -0.44242  -0.44111  -0.43539
 Alpha  occ. eigenvalues --   -0.43403  -0.43352  -0.43024  -0.42929  -0.42402
 Alpha  occ. eigenvalues --   -0.42190  -0.42159  -0.41866  -0.41717  -0.41600
 Alpha  occ. eigenvalues --   -0.41137  -0.40906  -0.40735  -0.40606  -0.40448
 Alpha  occ. eigenvalues --   -0.40305  -0.40128  -0.39997  -0.39848  -0.39569
 Alpha  occ. eigenvalues --   -0.39185  -0.39113  -0.38902  -0.38673  -0.38251
 Alpha  occ. eigenvalues --   -0.37951  -0.37900  -0.37851  -0.37732  -0.37490
 Alpha  occ. eigenvalues --   -0.37356  -0.36997  -0.36908  -0.36819  -0.36443
 Alpha  occ. eigenvalues --   -0.36262  -0.36144  -0.35822  -0.35707  -0.35625
 Alpha  occ. eigenvalues --   -0.35476  -0.35303  -0.35063  -0.34918  -0.34869
 Alpha  occ. eigenvalues --   -0.34754  -0.34442  -0.34424  -0.34095  -0.33690
 Alpha  occ. eigenvalues --   -0.33339  -0.33109  -0.32953  -0.32516  -0.32483
 Alpha  occ. eigenvalues --   -0.32431  -0.31745  -0.31532  -0.31120  -0.30802
 Alpha  occ. eigenvalues --   -0.30630  -0.30591  -0.29968  -0.29925  -0.29799
 Alpha  occ. eigenvalues --   -0.29680  -0.29187  -0.28900  -0.28551  -0.27852
 Alpha  occ. eigenvalues --   -0.27596  -0.26825  -0.26451  -0.26021  -0.24986
 Alpha  occ. eigenvalues --   -0.24452  -0.24226  -0.23535  -0.21430  -0.19716
 Alpha  occ. eigenvalues --   -0.18784
 Alpha virt. eigenvalues --   -0.09550  -0.08712  -0.04975  -0.02587  -0.00906
 Alpha virt. eigenvalues --    0.00097   0.00760   0.01766   0.02479   0.03522
 Alpha virt. eigenvalues --    0.03597   0.03893   0.04334   0.04563   0.04856

 Mulliken charges:
               1
     1  C    0.033769
     2  C   -0.062918
     3  C   -0.132157
     4  C   -0.053591
     5  N   -0.211551
     6  C   -0.157274
     7  C   -0.014636
     8  C   -0.106366
     9  C    0.030639
    10  C    0.031445
    11  C    0.139294
    12  C    0.004455
    13  C    0.173647
    14  O   -0.174718
    15  O   -0.353072
    16  N   -0.109024
    17  C    0.065597
    18  C   -0.130568
    19  C    0.124389
    20  C    0.212748
    21  C    0.064584
    22  C   -0.085445
    23  C   -0.084822
    24  N   -0.257824
    25  C    0.070010
    26  C   -0.126846
    27  C   -0.095194
    28  C    0.042093
    29  C    0.046954
    30  C    0.107478
    31  C   -0.045474
    32  N   -0.078446
    33  C    0.074895
    34  C   -0.086091
    35  C   -0.017894
    36  C    0.120335
    37  C    0.023680
    38  C    0.107704
    39  O   -0.173628
    40  C   -0.038740
    41  C    0.144322
    42  O   -0.205967
    43  O   -0.314792
    44  C    0.250515
    45  C    0.196388
    46  C   -0.084867
    47  C   -0.098923
    48  C    0.026859
    49  C    0.062369
    50  C    0.071141
    51  C    0.000799
    52  C   -0.055127
    53  C    0.095741
    54  C    0.057269
    55  C    0.064102
    56  C   -0.014453
    57  C   -0.021450
    58  C   -0.057765
    59  C    0.027690
    60  C    0.026841
    61  C   -0.068118
    62  C   -0.094829
    63  C    0.065793
    64  C   -0.078729
    65  H   -0.067080
    66  H   -0.032348
    67  H   -0.031725
    68  H    0.038713
    69  H    0.007962
    70  H    0.030394
    71  H    0.035289
    72  H    0.041630
    73  H    0.010366
    74  H    0.033923
    75  H    0.051372
    76  H    0.038195
    77  H    0.054996
    78  H    0.051348
    79  H    0.047004
    80  H    0.003206
    81  H    0.009568
    82  H    0.016917
    83  H    0.008946
    84  H    0.014306
    85  H    0.027355
    86  H   -0.010428
    87  H   -0.022729
    88  H    0.037633
    89  H    0.005462
    90  H    0.035599
    91  H    0.041151
    92  H    0.040726
    93  H    0.041618
    94  H    0.002080
    95  H    0.041088
    96  H   -0.011559
    97  H    0.024660
    98  H    0.033718
    99  H    0.039536
   100  H    0.009956
   101  H    0.018766
   102  H    0.021890
   103  H    0.021341
   104  H    0.005264
   105  H   -0.011647
   106  H   -0.055385
   107  H   -0.002578
   108  H   -0.009261
   109  H   -0.023161
   110  H   -0.024425
   111  H    0.022467
   112  H   -0.027333
   113  H   -0.025241
   114  H   -0.045042
   115  H   -0.009214
   116  H   -0.001586
   117  H   -0.001313
   118  H    0.007813
   119  H    0.009161
   120  H   -0.033422
   121  H    0.018583
   122  H    0.027995
   123  H    0.019775
   124  H   -0.019146
   125  H    0.014987
   126  H    0.017793
   127  H    0.039105
   128  H    0.014787
   129  H    0.000060
   130  H    0.004915
   131  H   -0.012956
   132  H   -0.022753
   133  H    0.037932
   134  H    0.029435
   135  H    0.029329
   136  H    0.018853
   137  H    0.152952
   138  H    0.220170
 Sum of Mulliken charges =   0.00000

 Dipole moment (field-independent basis, Debye):
    X=              3.3364    Y=              3.6346    Z=              0.1167  Tot=              4.9351
 Quadrupole moment (field-independent basis, Debye-Ang):
   XX=           -371.3434   YY=           -375.4914   ZZ=           -397.5362
   XY=            -25.2943   XZ=             -0.3688   YZ=              2.0249

 Normal termination of Gaussian 09 at Sat Aug  3 04:49:36 2019.
