 Gaussian 09, Revision D.01,
 Gaussian 09:  ES64L-G09RevD.01 24-Apr-2013

 --------------------------
 # td=(NStates=1) B3LYP/SVP
 --------------------------

 --
 TD
 --
 Symbolic Z-matrix:
 Charge =  0 Multiplicity = 1

                         Standard orientation:
 ---------------------------------------------------------------------
 Center     Atomic      Atomic             Coordinates (Angstroms)
 Number     Number       Type             X           Y           Z
 ---------------------------------------------------------------------
      1          6           0       -5.054671   -1.859523    0.471047
      2          6           0       -4.911668    2.769395    1.415437
      3          6           0       -9.448527    3.253202   -0.293690
      4          6           0       -9.818398   -1.603809   -0.958794
      5          7           0       -5.269340    0.428656    0.902794
      6          6           0       -4.527591   -0.728497    0.823469
      7          6           0       -3.115820   -0.427488    1.298487
      8          6           0       -3.165335    0.938638    1.896081
      9          6           0       -4.566251    1.424881    1.398118
     10          6           0       -3.038534    0.992182    3.433938
     11          6           0       -2.039851   -0.599739    0.182671
     12          6           0       -0.593577   -0.560757    0.691094
     13          6           0        0.419521   -0.736573   -0.531866
     14          8           0        0.082849   -1.085399   -1.600206
     15          8           0        1.620583   -0.627608   -0.061391
     16          7           0       -7.237610    2.714097    0.617685
     17          6           0       -6.106706    3.339820    1.039674
     18          6           0       -6.401482    4.839359    1.037820
     19          6           0       -7.703027    4.947193    0.516785
     20          6           0       -8.198520    3.602410    0.197276
     21          6           0       -5.540117    5.865065    1.477086
     22          6           0       -8.543277    6.214288    0.357781
     23          6           0       -9.368323    6.548503   -0.606549
     24          7           0       -9.194535    0.651775   -0.510777
     25          6           0       -9.893107    1.871153   -0.656197
     26          6           0      -11.284440    1.666164   -1.169811
     27          6           0      -11.357349    0.355418   -1.334739
     28          6           0      -10.149274   -0.210786   -1.007542
     29          6           0      -12.310859    2.723644   -1.291865
     30          6           0      -12.576695   -0.363875   -1.747287
     31          6           0      -12.482132   -0.906919   -3.240718
     32          7           0       -7.482611   -1.306496   -0.208789
     33          6           0       -8.519560   -2.152296   -0.694683
     34          6           0       -8.097208   -3.429249   -0.638682
     35          6           0       -6.723103   -3.512490   -0.272275
     36          6           0       -6.374594   -2.119636    0.043342
     37          6           0       -8.823149   -4.670429   -1.073358
     38          6           0       -5.544061   -4.400416   -0.010733
     39          8           0       -5.498002   -5.596875   -0.054166
     40          6           0       -4.482251   -3.291888    0.483648
     41          6           0       -3.802148   -3.746367    1.791759
     42          8           0       -4.146500   -3.258107    2.832392
     43          8           0       -2.953934   -4.720196    1.635171
     44          6           0       -2.491932   -5.353038    2.826120
     45          6           0        2.597277   -0.663777   -1.085748
     46          6           0        3.960602   -0.349545   -0.400248
     47          6           0        5.043157    0.294457   -1.038111
     48          6           0        4.937078    0.951218   -2.246241
     49          6           0        6.338853    0.388289   -0.236822
     50          6           0        7.583226   -0.208533   -0.865188
     51          6           0        8.788142   -0.116309    0.024917
     52          6           0       10.085729   -0.551818   -0.802725
     53          6           0        9.855778   -2.024210   -1.305814
     54          6           0       11.435697   -0.261670    0.112621
     55          6           0       12.786647   -0.648274   -0.570685
     56          6           0       13.903535   -0.127165    0.274275
     57          6           0       15.228611   -0.194385   -0.448116
     58          6           0       15.590631   -1.618662   -0.808394
     59          6           0       16.395652    0.506724    0.490374
     60          6           0       17.761357    0.628420   -0.290673
     61          6           0       18.743944    1.413029    0.602761
     62          6           0       20.212303    1.431518    0.048713
     63          6           0       20.279809    2.099766   -1.307030
     64          6           0       21.153568    2.034234    1.108567
     65          1           0       -4.193917    3.333410    2.025167
     66          1           0      -10.181537    4.053845   -0.395181
     67          1           0      -10.776368   -2.146891   -1.200278
     68          1           0       -2.918399   -1.144403    2.116753
     69          1           0       -2.356158    1.545450    1.367312
     70          1           0       -2.150343    0.340865    3.750968
     71          1           0       -3.276849    2.015242    3.899547
     72          1           0       -3.957230    0.341804    3.820387
     73          1           0       -2.135447   -1.542092   -0.459074
     74          1           0       -2.386936    0.265816   -0.650221
     75          1           0       -0.427120    0.504450    0.989729
     76          1           0       -0.612433   -1.322150    1.519683
     77          1           0       -4.693216    6.234301    0.588419
     78          1           0       -6.273962    6.698029    1.704482
     79          1           0       -5.019466    5.626040    2.397380
     80          1           0       -8.196342    6.904875    1.122036
     81          1           0       -9.426210    5.882810   -1.505342
     82          1           0       -9.877402    7.502474   -0.661688
     83          1           0      -12.751869    2.812175   -0.232839
     84          1           0      -11.783560    3.904722   -1.750784
     85          1           0      -13.070930    2.229323   -1.855864
     86          1           0      -12.649855   -1.268282   -1.039483
     87          1           0      -13.547058    0.277969   -1.789492
     88          1           0      -12.499020   -0.001325   -3.921183
     89          1           0      -11.751197   -1.661538   -3.258110
     90          1           0      -13.409562   -1.366946   -3.497301
     91          1           0       -9.811400   -4.942508   -0.673217
     92          1           0       -9.106578   -4.607226   -2.126302
     93          1           0       -8.403203   -5.799782   -1.142215
     94          1           0       -3.424855   -3.738500   -0.155674
     95          1           0       -1.884468   -6.225676    2.412844
     96          1           0       -1.974230   -4.697103    3.586695
     97          1           0       -3.388850   -5.965709    3.272444
     98          1           0        2.451488   -1.633597   -1.384170
     99          1           0        2.394488    0.036279   -1.947477
    100          1           0        4.118655   -0.871704    0.560662
    101          1           0        5.431968    2.057838   -2.386013
    102          1           0        5.554822    0.553227   -3.079911
    103          1           0        4.035578    0.878766   -2.741966
    104          1           0        6.402292    1.507097   -0.039917
    105          1           0        6.247237   -0.328539    0.781812
    106          1           0        7.599770   -1.312416   -1.037546
    107          1           0        7.681969    0.344686   -1.859008
    108          1           0        8.781990    0.937623    0.519225
    109          1           0        8.512043   -0.960404    0.966858
    110          1           0       10.139118    0.097565   -1.569549
    111          1           0        8.654945   -2.126402   -1.724448
    112          1           0       10.527471   -2.223622   -2.253684
    113          1           0       10.231398   -2.493157   -0.377325
    114          1           0       11.331191    0.842033    0.378468
    115          1           0       11.252890   -0.815724    1.105342
    116          1           0       12.706434   -1.672936   -0.395020
    117          1           0       12.631433    0.047535   -1.329246
    118          1           0       13.785341    0.962407    0.437290
    119          1           0       13.894842   -0.588392    1.282434
    120          1           0       15.102426    0.351169   -1.374431
    121          1           0       14.924908   -2.145320   -1.425818
    122          1           0       16.642005   -1.634530   -1.437972
    123          1           0       15.628722   -2.118699    0.084607
    124          1           0       16.152192    1.713530    0.956159
    125          1           0       16.624165   -0.211473    1.265004
    126          1           0       18.282080   -0.211791   -0.565445
    127          1           0       17.551300    1.063028   -1.514381
    128          1           0       18.366546    2.446064    1.033586
    129          1           0       18.678972    0.890724    1.544020
    130          1           0       20.658698    0.376774   -0.242309
    131          1           0       19.942090    3.202751   -1.404487
    132          1           0       21.456654    2.280452   -1.825629
    133          1           0       19.667218    1.458577   -1.925837
    134          1           0       21.171786    1.379955    1.950253
    135          1           0       22.140056    2.253962    0.718732
    136          1           0       20.819127    3.118578    1.350257
    137          1           0       -7.235199    1.728044    0.595014
    138          1           0       -7.461926   -0.299277   -0.224164
 ---------------------------------------------------------------------

 SCF Done:  E(RB3LYP) =  -2733.00879290     A.U. after   16 cycles

 Excitation energies and oscillator strengths:

 Excited State   1:      Singlet-A      2.1469 eV  577.49 nm  f=0.1518  <S**2>=0.000
     235 -> 237       -0.13661
     235 -> 238       -0.29367
     236 -> 237        0.61371
     236 -> 238       -0.11494
 This state for optimization and/or second-order correction.
 Total Energy, E(TD-HF/TD-KS) =  -2732.92989456
 Copying the excited state density for this state as the 1-particle RhoCI density.

 The electronic state is 1-A.
 Alpha  occ. eigenvalues --  -19.18792 -19.18288 -19.12617 -19.12091 -19.11166
 Alpha  occ. eigenvalues --  -14.37068 -14.35915 -14.31371 -14.30087 -10.31188
 Alpha  occ. eigenvalues --  -10.30785 -10.28097 -10.26081 -10.24631 -10.24404
 Alpha  occ. eigenvalues --  -10.23969 -10.23117 -10.22890 -10.22408 -10.22293
 Alpha  occ. eigenvalues --  -10.21959 -10.21673 -10.21428 -10.21376 -10.21324
 Alpha  occ. eigenvalues --  -10.21150 -10.21124 -10.21068 -10.20777 -10.20732
 Alpha  occ. eigenvalues --  -10.20722 -10.20665 -10.20632 -10.20584 -10.20400
 Alpha  occ. eigenvalues --  -10.20359 -10.20289 -10.20248 -10.20185 -10.20035
 Alpha  occ. eigenvalues --  -10.20007 -10.19901 -10.19795 -10.19748 -10.19631
 Alpha  occ. eigenvalues --  -10.19543 -10.19482 -10.19475 -10.19357 -10.19161
 Alpha  occ. eigenvalues --  -10.19158 -10.19055 -10.19017 -10.18910 -10.18860
 Alpha  occ. eigenvalues --  -10.18751 -10.18469 -10.18080 -10.17991 -10.17601
 Alpha  occ. eigenvalues --  -10.17581 -10.17580 -10.17566 -10.17081  -1.12632
 Alpha  occ. eigenvalues --   -1.11383  -1.03180  -1.03046  -1.00966  -0.98437
 Alpha  occ. eigenvalues --   -0.96193  -0.94351  -0.92783  -0.83675  -0.83141
 Alpha  occ. eigenvalues --   -0.82295  -0.82216  -0.80850  -0.80464  -0.80315
 Alpha  occ. eigenvalues --   -0.80051  -0.79788  -0.79647  -0.78181  -0.77250
 Alpha  occ. eigenvalues --   -0.77084  -0.76459  -0.75532  -0.74801  -0.74242
 Alpha  occ. eigenvalues --   -0.73574  -0.73429  -0.72577  -0.72399  -0.71135
 Alpha  occ. eigenvalues --   -0.69534  -0.69117  -0.68304  -0.67762  -0.67118
 Alpha  occ. eigenvalues --   -0.67032  -0.66695  -0.65626  -0.65285  -0.64636
 Alpha  occ. eigenvalues --   -0.63421  -0.62510  -0.61725  -0.61547  -0.61027
 Alpha  occ. eigenvalues --   -0.59923  -0.58382  -0.58152  -0.57411  -0.57097
 Alpha  occ. eigenvalues --   -0.56407  -0.56139  -0.55688  -0.55585  -0.55507
 Alpha  occ. eigenvalues --   -0.54985  -0.54975  -0.54171  -0.54053  -0.53526
 Alpha  occ. eigenvalues --   -0.52958  -0.51782  -0.51498  -0.51005  -0.50927
 Alpha  occ. eigenvalues --   -0.50481  -0.49490  -0.49350  -0.49020  -0.48379
 Alpha  occ. eigenvalues --   -0.48222  -0.47582  -0.47421  -0.47242  -0.47004
 Alpha  occ. eigenvalues --   -0.46468  -0.46351  -0.46157  -0.45847  -0.45800
 Alpha  occ. eigenvalues --   -0.45496  -0.45009  -0.44877  -0.44705  -0.44675
 Alpha  occ. eigenvalues --   -0.44285  -0.43984  -0.43852  -0.43517  -0.43465
 Alpha  occ. eigenvalues --   -0.43297  -0.43145  -0.43052  -0.42892  -0.42864
 Alpha  occ. eigenvalues --   -0.42370  -0.42310  -0.42041  -0.41761  -0.41608
 Alpha  occ. eigenvalues --   -0.41565  -0.41437  -0.41005  -0.40768  -0.40369
 Alpha  occ. eigenvalues --   -0.39922  -0.39849  -0.39682  -0.39532  -0.38707
 Alpha  occ. eigenvalues --   -0.38562  -0.38449  -0.38344  -0.38172  -0.38046
 Alpha  occ. eigenvalues --   -0.37755  -0.37731  -0.37577  -0.37378  -0.37140
 Alpha  occ. eigenvalues --   -0.37047  -0.36921  -0.36754  -0.36308  -0.36188
 Alpha  occ. eigenvalues --   -0.35939  -0.35832  -0.35447  -0.35369  -0.35262
 Alpha  occ. eigenvalues --   -0.34878  -0.34818  -0.34541  -0.34323  -0.34275
 Alpha  occ. eigenvalues --   -0.34211  -0.34034  -0.33975  -0.33908  -0.33290
 Alpha  occ. eigenvalues --   -0.33195  -0.32955  -0.32916  -0.32903  -0.32244
 Alpha  occ. eigenvalues --   -0.32153  -0.31896  -0.31746  -0.31681  -0.31519
 Alpha  occ. eigenvalues --   -0.31130  -0.30847  -0.30843  -0.30310  -0.30254
 Alpha  occ. eigenvalues --   -0.29864  -0.29644  -0.28134  -0.27914  -0.27678
 Alpha  occ. eigenvalues --   -0.27548  -0.26685  -0.26174  -0.25727  -0.25080
 Alpha  occ. eigenvalues --   -0.24560  -0.24523  -0.23851  -0.22716  -0.19765
 Alpha  occ. eigenvalues --   -0.18992
 Alpha virt. eigenvalues --   -0.09881  -0.07462  -0.03985  -0.01861  -0.01699
 Alpha virt. eigenvalues --   -0.00131   0.01115   0.01263   0.02475   0.02914
 Alpha virt. eigenvalues --    0.03397   0.03971   0.04202   0.04428   0.04507

 Mulliken charges:
               1
     1  C    0.245671
     2  C   -0.056114
     3  C   -0.107936
     4  C   -0.062866
     5  N   -0.171261
     6  C   -0.155906
     7  C    0.022366
     8  C   -0.041770
     9  C   -0.072151
    10  C    0.019165
    11  C   -0.066688
    12  C    0.036112
    13  C    0.138129
    14  O   -0.197832
    15  O   -0.259515
    16  N   -0.019506
    17  C    0.118908
    18  C   -0.112442
    19  C   -0.014734
    20  C    0.118508
    21  C    0.036646
    22  C   -0.012948
    23  C   -0.018089
    24  N   -0.273851
    25  C    0.062237
    26  C   -0.164235
    27  C   -0.002519
    28  C    0.018182
    29  C    0.049363
    30  C   -0.045853
    31  C    0.049112
    32  N   -0.072521
    33  C    0.153573
    34  C   -0.082602
    35  C   -0.027057
    36  C    0.004815
    37  C    0.025480
    38  C    0.133750
    39  O   -0.143109
    40  C   -0.220903
    41  C    0.179071
    42  O   -0.230425
    43  O   -0.255562
    44  C    0.129697
    45  C    0.278044
    46  C   -0.098268
    47  C   -0.092370
    48  C    0.095013
    49  C    0.026816
    50  C   -0.018542
    51  C   -0.061313
    52  C   -0.012567
    53  C   -0.063985
    54  C   -0.106583
    55  C    0.226672
    56  C   -0.012502
    57  C   -0.043845
    58  C    0.041242
    59  C   -0.006896
    60  C   -0.016345
    61  C    0.028931
    62  C   -0.112385
    63  C   -0.035604
    64  C    0.062038
    65  H   -0.023459
    66  H   -0.020519
    67  H   -0.012218
    68  H   -0.003037
    69  H    0.005102
    70  H    0.036420
    71  H    0.033060
    72  H    0.031257
    73  H    0.033884
    74  H    0.018149
    75  H    0.023871
    76  H    0.045283
    77  H    0.063773
    78  H    0.018091
    79  H    0.026196
    80  H   -0.003196
    81  H    0.042017
    82  H    0.027642
    83  H    0.044914
    84  H    0.060590
    85  H    0.003269
    86  H    0.023148
    87  H    0.013618
    88  H    0.021778
    89  H    0.007988
    90  H   -0.007449
    91  H    0.005072
    92  H    0.007238
    93  H    0.047888
    94  H    0.080430
    95  H    0.041408
    96  H    0.061286
    97  H    0.047936
    98  H   -0.008531
    99  H    0.032325
   100  H    0.002501
   101  H    0.025947
   102  H    0.010819
   103  H   -0.030624
   104  H    0.025729
   105  H    0.013625
   106  H    0.020346
   107  H   -0.001833
   108  H    0.013320
   109  H    0.009541
   110  H   -0.038058
   111  H    0.057544
   112  H    0.034278
   113  H    0.032719
   114  H    0.002531
   115  H   -0.002542
   116  H   -0.007490
   117  H   -0.019604
   118  H   -0.017600
   119  H   -0.014484
   120  H   -0.020580
   121  H    0.002401
   122  H    0.022023
   123  H   -0.020038
   124  H    0.036699
   125  H    0.002741
   126  H   -0.013056
   127  H    0.008272
   128  H    0.006358
   129  H   -0.021178
   130  H    0.011462
   131  H    0.015105
   132  H    0.014834
   133  H    0.015129
   134  H    0.008063
   135  H   -0.005714
   136  H    0.004838
   137  H    0.122956
   138  H    0.137851
 Sum of Mulliken charges =   0.00000

 Dipole moment (field-independent basis, Debye):
    X=              2.5753    Y=              4.4949    Z=              0.3288  Tot=              5.1908
 Quadrupole moment (field-independent basis, Debye-Ang):
   XX=           -357.7607   YY=           -379.1183   ZZ=           -394.7755
   XY=            -36.1205   XZ=             10.1234   YZ=             -2.6658

 Normal termination of Gaussian 09 at Fri Aug  2 23:36:51 2019.
