 Gaussian 09, Revision D.01,
 Gaussian 09:  ES64L-G09RevD.01 24-Apr-2013

 --------------------------
 # td=(NStates=1) B3LYP/SVP
 --------------------------

 --
 TD
 --
 Symbolic Z-matrix:
 Charge =  0 Multiplicity = 1

                         Standard orientation:
 ---------------------------------------------------------------------
 Center     Atomic      Atomic             Coordinates (Angstroms)
 Number     Number       Type             X           Y           Z
 ---------------------------------------------------------------------
      1          6           0       -5.053756   -1.958712    0.507486
      2          6           0       -4.975287    2.769266    1.281585
      3          6           0       -9.584888    3.131269   -0.240062
      4          6           0       -9.796204   -1.700767   -0.871361
      5          7           0       -5.267974    0.503897    0.857695
      6          6           0       -4.468361   -0.742988    0.894005
      7          6           0       -2.983638   -0.495666    1.196870
      8          6           0       -3.051909    1.000136    1.775844
      9          6           0       -4.433053    1.417228    1.251795
     10          6           0       -2.926443    1.178987    3.343818
     11          6           0       -2.017809   -0.591290    0.018767
     12          6           0       -0.645071   -0.588680    0.422899
     13          6           0        0.349439   -0.709544   -0.764418
     14          8           0        0.138639   -0.872292   -1.979763
     15          8           0        1.637401   -0.462808   -0.254220
     16          7           0       -7.238135    2.660336    0.346433
     17          6           0       -6.163989    3.343728    0.783158
     18          6           0       -6.598268    4.785772    0.929549
     19          6           0       -7.852748    4.961976    0.433754
     20          6           0       -8.284786    3.555679    0.085902
     21          6           0       -5.610608    5.814810    1.356255
     22          6           0       -8.562588    6.145325    0.389214
     23          6           0       -9.560846    6.358771   -0.550600
     24          7           0       -9.320382    0.749384   -0.439058
     25          6           0      -10.061275    1.823164   -0.583500
     26          6           0      -11.498463    1.494062   -0.874620
     27          6           0      -11.524280    0.130982   -0.996888
     28          6           0      -10.198376   -0.279316   -0.814069
     29          6           0      -12.471427    2.586553   -1.089229
     30          6           0      -12.686067   -0.640186   -1.344893
     31          6           0      -12.770232   -0.793247   -2.796476
     32          7           0       -7.414077   -1.368373   -0.201057
     33          6           0       -8.499445   -2.132471   -0.527410
     34          6           0       -8.017506   -3.525672   -0.555580
     35          6           0       -6.775467   -3.547139   -0.116514
     36          6           0       -6.367930   -2.180057    0.061337
     37          6           0       -8.860505   -4.752685   -0.782971
     38          6           0       -5.508858   -4.358161   -0.001320
     39          8           0       -5.361784   -5.551806    0.110056
     40          6           0       -4.353981   -3.288107    0.367075
     41          6           0       -3.629761   -3.831144    1.682209
     42          8           0       -4.001431   -3.400326    2.752636
     43          8           0       -2.704884   -4.698823    1.503335
     44          6           0       -2.067217   -5.189696    2.659177
     45          6           0        2.584900   -0.512392   -1.329496
     46          6           0        3.968490   -0.356453   -0.752632
     47          6           0        5.043933    0.388554   -1.203152
     48          6           0        4.911261    1.283488   -2.378228
     49          6           0        6.371708    0.449047   -0.260863
     50          6           0        7.541869   -0.142310   -0.972217
     51          6           0        8.789856   -0.119362   -0.135100
     52          6           0       10.078450   -0.662201   -0.832009
     53          6           0       10.133283   -2.172612   -1.083049
     54          6           0       11.455148   -0.149707   -0.092264
     55          6           0       12.776939   -0.490047   -0.755957
     56          6           0       13.812797   -0.077524    0.219565
     57          6           0       15.244910   -0.192272   -0.457796
     58          6           0       15.716432   -1.608021   -0.877615
     59          6           0       16.277945    0.546610    0.435270
     60          6           0       17.796716    0.522978   -0.038528
     61          6           0       18.680476    1.289358    0.860116
     62          6           0       20.111841    1.377649    0.363478
     63          6           0       20.464689    1.897490   -1.030865
     64          6           0       21.045510    2.169254    1.423887
     65          1           0       -4.450492    3.690867    1.835014
     66          1           0      -10.218800    3.982945   -0.295227
     67          1           0      -10.451481   -2.572336   -0.910814
     68          1           0       -2.540544   -0.914998    1.987085
     69          1           0       -2.277927    1.608469    1.366470
     70          1           0       -2.072879    0.564696    3.738060
     71          1           0       -3.112857    2.225397    3.600126
     72          1           0       -3.703576    0.690766    3.867306
     73          1           0       -2.127679   -1.521439   -0.328055
     74          1           0       -2.077272    0.211576   -0.730724
     75          1           0       -0.505073    0.436582    0.769489
     76          1           0       -0.252455   -1.420835    1.026869
     77          1           0       -4.764791    5.957662    0.549881
     78          1           0       -6.280479    6.773053    1.497453
     79          1           0       -4.958199    5.753177    2.359259
     80          1           0       -8.334991    6.885782    1.096307
     81          1           0       -9.852035    5.620353   -1.290391
     82          1           0      -10.077081    7.462692   -0.646360
     83          1           0      -12.502455    3.063836   -0.284118
     84          1           0      -12.303031    3.494352   -1.879991
     85          1           0      -13.592730    2.171066   -0.950372
     86          1           0      -12.757340   -1.537829   -0.870563
     87          1           0      -13.593750   -0.278142   -0.738561
     88          1           0      -12.875587    0.164987   -3.248827
     89          1           0      -11.898713   -1.250186   -3.276286
     90          1           0      -13.662147   -1.273278   -3.181709
     91          1           0       -9.694925   -4.881254    0.022425
     92          1           0       -9.498285   -4.668551   -1.745586
     93          1           0       -8.284704   -5.671253   -0.706427
     94          1           0       -3.445005   -3.293043   -0.345497
     95          1           0       -1.461954   -6.107231    2.459131
     96          1           0       -1.198640   -4.402084    3.006104
     97          1           0       -2.820570   -5.326892    3.333423
     98          1           0        2.706297   -1.459893   -2.039804
     99          1           0        2.346309    0.543337   -1.936958
    100          1           0        4.138184   -0.936033    0.192902
    101          1           0        5.426946    2.212217   -2.333740
    102          1           0        5.529722    0.865803   -3.319280
    103          1           0        3.916733    1.784492   -2.569536
    104          1           0        6.482952    1.499693    0.211057
    105          1           0        6.131623   -0.158684    0.642959
    106          1           0        7.301708   -1.168913   -1.455137
    107          1           0        7.457418    0.572263   -1.895594
    108          1           0        9.019521    1.062135    0.201160
    109          1           0        8.725774   -0.638263    0.773498
    110          1           0        9.926266   -0.087294   -1.881936
    111          1           0        9.107084   -2.533403   -1.543747
    112          1           0       10.914110   -2.343350   -1.863620
    113          1           0       10.186797   -2.654302   -0.082360
    114          1           0       11.236147    0.911249   -0.059249
    115          1           0       11.252898   -0.562314    1.033888
    116          1           0       12.780374   -1.601261   -1.077098
    117          1           0       12.833729    0.034780   -1.694838
    118          1           0       13.657805    1.164259    0.547038
    119          1           0       13.789428   -0.619813    1.394948
    120          1           0       15.091641    0.218835   -1.496125
    121          1           0       14.896862   -1.831549   -1.684033
    122          1           0       16.641400   -1.656929   -1.421839
    123          1           0       15.761596   -2.279697   -0.069160
    124          1           0       16.049757    1.603371    0.762660
    125          1           0       16.217007    0.125554    1.494615
    126          1           0       18.019805   -0.407828   -0.211341
    127          1           0       17.838888    0.901158   -1.145598
    128          1           0       18.159397    2.333604    0.944169
    129          1           0       18.680290    0.945192    1.770893
    130          1           0       20.344377    0.305228    0.657151
    131          1           0       19.826124    2.873559   -1.027558
    132          1           0       21.371921    1.900543   -1.235500
    133          1           0       20.241179    1.369904   -1.923804
    134          1           0       21.173203    1.692194    2.575402
    135          1           0       22.051667    2.360483    1.048344
    136          1           0       20.661113    3.010354    1.647365
    137          1           0       -7.414106    1.786041    0.222478
    138          1           0       -7.584370   -0.506173   -0.041987
 ---------------------------------------------------------------------

 SCF Done:  E(RB3LYP) =  -2732.96662924     A.U. after   17 cycles

 Excitation energies and oscillator strengths:

 Excited State   1:      Singlet-A      2.0609 eV  601.62 nm  f=0.0995  <S**2>=0.000
     235 -> 237       -0.23328
     235 -> 238        0.28919
     236 -> 237        0.53435
     236 -> 238        0.26989
 This state for optimization and/or second-order correction.
 Total Energy, E(TD-HF/TD-KS) =  -2732.89089436
 Copying the excited state density for this state as the 1-particle RhoCI density.

 The electronic state is 1-A.
 Alpha  occ. eigenvalues --  -19.19501 -19.18590 -19.13902 -19.13040 -19.11468
 Alpha  occ. eigenvalues --  -14.36773 -14.36201 -14.32889 -14.29709 -10.32576
 Alpha  occ. eigenvalues --  -10.31532 -10.28940 -10.26341 -10.25885 -10.24249
 Alpha  occ. eigenvalues --  -10.24068 -10.23555 -10.23512 -10.23419 -10.22929
 Alpha  occ. eigenvalues --  -10.22210 -10.22126 -10.21543 -10.21429 -10.21267
 Alpha  occ. eigenvalues --  -10.21170 -10.20947 -10.20915 -10.20888 -10.20868
 Alpha  occ. eigenvalues --  -10.20834 -10.20708 -10.20646 -10.20542 -10.20399
 Alpha  occ. eigenvalues --  -10.20216 -10.20177 -10.19913 -10.19824 -10.19647
 Alpha  occ. eigenvalues --  -10.19623 -10.19505 -10.19485 -10.19422 -10.19252
 Alpha  occ. eigenvalues --  -10.19217 -10.19196 -10.19033 -10.18957 -10.18954
 Alpha  occ. eigenvalues --  -10.18900 -10.18802 -10.18702 -10.18506 -10.18322
 Alpha  occ. eigenvalues --  -10.18049 -10.17941 -10.17650 -10.17396 -10.17195
 Alpha  occ. eigenvalues --  -10.16963 -10.16945 -10.16865 -10.16848  -1.12835
 Alpha  occ. eigenvalues --   -1.08451  -1.03585  -1.00843  -1.00045  -0.99987
 Alpha  occ. eigenvalues --   -0.98514  -0.93737  -0.93517  -0.84872  -0.83972
 Alpha  occ. eigenvalues --   -0.83801  -0.81665  -0.81606  -0.81278  -0.81143
 Alpha  occ. eigenvalues --   -0.80412  -0.79389  -0.78909  -0.77877  -0.77719
 Alpha  occ. eigenvalues --   -0.76573  -0.76077  -0.75907  -0.75159  -0.74669
 Alpha  occ. eigenvalues --   -0.73914  -0.73180  -0.72640  -0.72004  -0.70533
 Alpha  occ. eigenvalues --   -0.70406  -0.69727  -0.69179  -0.68973  -0.67484
 Alpha  occ. eigenvalues --   -0.67203  -0.66975  -0.65816  -0.65624  -0.65247
 Alpha  occ. eigenvalues --   -0.64053  -0.63805  -0.62889  -0.62699  -0.61828
 Alpha  occ. eigenvalues --   -0.61172  -0.59514  -0.58227  -0.58010  -0.57645
 Alpha  occ. eigenvalues --   -0.57227  -0.56765  -0.56566  -0.56304  -0.56249
 Alpha  occ. eigenvalues --   -0.55177  -0.54917  -0.54722  -0.53355  -0.53046
 Alpha  occ. eigenvalues --   -0.52944  -0.52039  -0.51833  -0.51657  -0.51480
 Alpha  occ. eigenvalues --   -0.50474  -0.50381  -0.49121  -0.49005  -0.48862
 Alpha  occ. eigenvalues --   -0.48163  -0.47964  -0.47858  -0.47638  -0.46841
 Alpha  occ. eigenvalues --   -0.46654  -0.46530  -0.46271  -0.46102  -0.45933
 Alpha  occ. eigenvalues --   -0.45542  -0.45317  -0.44840  -0.44760  -0.44642
 Alpha  occ. eigenvalues --   -0.44412  -0.44229  -0.43831  -0.43662  -0.43260
 Alpha  occ. eigenvalues --   -0.43228  -0.43001  -0.42941  -0.42876  -0.42548
 Alpha  occ. eigenvalues --   -0.42334  -0.42167  -0.41989  -0.41811  -0.41180
 Alpha  occ. eigenvalues --   -0.41048  -0.40796  -0.40629  -0.40368  -0.40034
 Alpha  occ. eigenvalues --   -0.40014  -0.39878  -0.39699  -0.39448  -0.39327
 Alpha  occ. eigenvalues --   -0.39179  -0.39114  -0.38840  -0.38676  -0.38422
 Alpha  occ. eigenvalues --   -0.38381  -0.38327  -0.38022  -0.37855  -0.37762
 Alpha  occ. eigenvalues --   -0.37485  -0.37202  -0.37024  -0.36920  -0.36728
 Alpha  occ. eigenvalues --   -0.36662  -0.36607  -0.36321  -0.36269  -0.36012
 Alpha  occ. eigenvalues --   -0.35800  -0.35626  -0.35414  -0.35245  -0.35114
 Alpha  occ. eigenvalues --   -0.34950  -0.34598  -0.34468  -0.34422  -0.33757
 Alpha  occ. eigenvalues --   -0.33416  -0.32922  -0.32865  -0.32459  -0.32430
 Alpha  occ. eigenvalues --   -0.32248  -0.31772  -0.31526  -0.31234  -0.31034
 Alpha  occ. eigenvalues --   -0.30814  -0.30765  -0.30456  -0.30163  -0.29907
 Alpha  occ. eigenvalues --   -0.29592  -0.29100  -0.28786  -0.28174  -0.28091
 Alpha  occ. eigenvalues --   -0.27616  -0.27160  -0.27013  -0.26711  -0.25952
 Alpha  occ. eigenvalues --   -0.25441  -0.24088  -0.23796  -0.22554  -0.19562
 Alpha  occ. eigenvalues --   -0.18264
 Alpha virt. eigenvalues --   -0.09352  -0.08110  -0.04871  -0.02844  -0.01478
 Alpha virt. eigenvalues --   -0.00072   0.00146   0.00877   0.01238   0.03227
 Alpha virt. eigenvalues --    0.03635   0.04022   0.04179   0.04269   0.04743

 Mulliken charges:
               1
     1  C    0.095554
     2  C   -0.073889
     3  C   -0.052275
     4  C   -0.052811
     5  N   -0.189412
     6  C   -0.011815
     7  C    0.058651
     8  C   -0.058967
     9  C    0.008510
    10  C    0.093976
    11  C    0.179700
    12  C    0.018370
    13  C    0.184225
    14  O   -0.244091
    15  O   -0.332752
    16  N    0.063536
    17  C    0.063491
    18  C   -0.112134
    19  C    0.123196
    20  C    0.016103
    21  C   -0.034686
    22  C   -0.071482
    23  C   -0.069394
    24  N   -0.235639
    25  C    0.055425
    26  C   -0.149151
    27  C   -0.125279
    28  C    0.080835
    29  C    0.179084
    30  C    0.142019
    31  C    0.080947
    32  N    0.125153
    33  C   -0.014071
    34  C   -0.164802
    35  C    0.021626
    36  C    0.012794
    37  C    0.049441
    38  C    0.132147
    39  O   -0.164457
    40  C   -0.121145
    41  C    0.150400
    42  O   -0.243930
    43  O   -0.224271
    44  C    0.169319
    45  C    0.215756
    46  C   -0.129006
    47  C   -0.142989
    48  C    0.047274
    49  C    0.051615
    50  C   -0.009108
    51  C    0.045764
    52  C   -0.142892
    53  C    0.027962
    54  C   -0.014805
    55  C    0.093202
    56  C   -0.099105
    57  C   -0.045406
    58  C    0.029041
    59  C    0.010557
    60  C    0.087831
    61  C    0.101628
    62  C   -0.112026
    63  C    0.145160
    64  C    0.053071
    65  H   -0.009385
    66  H   -0.060145
    67  H   -0.014100
    68  H   -0.062857
    69  H   -0.016094
    70  H    0.024207
    71  H    0.022548
    72  H   -0.002591
    73  H   -0.050390
    74  H    0.016042
    75  H    0.026661
    76  H    0.037071
    77  H    0.058082
    78  H    0.026052
    79  H    0.054640
    80  H   -0.008267
    81  H    0.042175
    82  H    0.051744
    83  H   -0.059756
    84  H    0.045783
    85  H   -0.001209
    86  H   -0.056951
    87  H   -0.008225
    88  H   -0.011896
    89  H    0.009002
    90  H   -0.008717
    91  H    0.038305
    92  H    0.032944
    93  H    0.034954
    94  H    0.064046
    95  H    0.043425
    96  H    0.038808
    97  H    0.027800
    98  H    0.073651
    99  H    0.039779
   100  H    0.000600
   101  H   -0.014067
   102  H    0.037936
   103  H    0.025018
   104  H    0.022977
   105  H   -0.017852
   106  H    0.020054
   107  H    0.000180
   108  H    0.005940
   109  H   -0.022923
   110  H   -0.009576
   111  H    0.009393
   112  H    0.034440
   113  H    0.013622
   114  H   -0.004925
   115  H    0.010629
   116  H    0.024980
   117  H   -0.006477
   118  H    0.024611
   119  H    0.028230
   120  H   -0.011976
   121  H    0.009509
   122  H    0.014027
   123  H    0.002343
   124  H   -0.016388
   125  H   -0.017905
   126  H   -0.068023
   127  H   -0.010104
   128  H   -0.017614
   129  H   -0.057776
   130  H   -0.005700
   131  H    0.025915
   132  H   -0.062535
   133  H   -0.014913
   134  H    0.007856
   135  H    0.005273
   136  H   -0.051344
   137  H    0.041443
   138  H    0.036410
 Sum of Mulliken charges =   0.00000

 Dipole moment (field-independent basis, Debye):
    X=              2.3265    Y=              3.4536    Z=              1.0856  Tot=              4.3033
 Quadrupole moment (field-independent basis, Debye-Ang):
   XX=           -363.3545   YY=           -376.4233   ZZ=           -397.8797
   XY=            -26.4496   XZ=             -4.6395   YZ=             -0.5465

 Normal termination of Gaussian 09 at Sun Aug  4 12:17:04 2019.
