 Gaussian 09, Revision D.01,
 Gaussian 09:  ES64L-G09RevD.01 24-Apr-2013

 --------------------------
 # td=(NStates=1) B3LYP/SVP
 --------------------------

 --
 TD
 --
 Symbolic Z-matrix:
 Charge =  0 Multiplicity = 1

                         Standard orientation:
 ---------------------------------------------------------------------
 Center     Atomic      Atomic             Coordinates (Angstroms)
 Number     Number       Type             X           Y           Z
 ---------------------------------------------------------------------
      1          6           0       -5.095378   -1.958215    0.392554
      2          6           0       -4.831413    2.746371    1.364204
      3          6           0       -9.390452    3.212752   -0.183114
      4          6           0       -9.916020   -1.606142   -0.721326
      5          7           0       -5.159611    0.406841    0.819207
      6          6           0       -4.408289   -0.733527    0.693086
      7          6           0       -2.927386   -0.575928    1.110417
      8          6           0       -3.055002    0.881944    1.714236
      9          6           0       -4.427575    1.389064    1.228444
     10          6           0       -2.768537    0.988572    3.276696
     11          6           0       -1.996835   -0.609268   -0.009386
     12          6           0       -0.607797   -0.549707    0.403302
     13          6           0        0.440904   -0.648960   -0.771098
     14          8           0        0.123384   -0.797604   -1.995665
     15          8           0        1.649877   -0.681503   -0.254640
     16          7           0       -7.047049    2.642722    0.461602
     17          6           0       -6.001935    3.399241    1.031302
     18          6           0       -6.354344    4.771137    1.015558
     19          6           0       -7.675966    4.883134    0.524765
     20          6           0       -8.162581    3.511593    0.189984
     21          6           0       -5.461258    5.749047    1.550672
     22          6           0       -8.348405    6.161504    0.449419
     23          6           0       -8.941069    6.654472   -0.719923
     24          7           0       -9.320312    0.687217   -0.279390
     25          6           0       -9.902577    1.894596   -0.503874
     26          6           0      -11.266950    1.752389   -0.943725
     27          6           0      -11.416542    0.370938   -1.074257
     28          6           0      -10.210774   -0.239588   -0.698971
     29          6           0      -12.223317    2.947565   -1.203068
     30          6           0      -12.747532   -0.283239   -1.623594
     31          6           0      -12.574478   -0.603808   -3.104354
     32          7           0       -7.581560   -1.231764   -0.126656
     33          6           0       -8.639820   -2.060232   -0.393405
     34          6           0       -8.187132   -3.508739   -0.496334
     35          6           0       -6.903055   -3.425452   -0.178365
     36          6           0       -6.453956   -2.085581    0.038873
     37          6           0       -8.984927   -4.694347   -0.754251
     38          6           0       -5.646213   -4.343033    0.038870
     39          8           0       -5.582840   -5.494574   -0.066138
     40          6           0       -4.440867   -3.215164    0.310926
     41          6           0       -3.895629   -3.681111    1.692337
     42          8           0       -4.316448   -3.369209    2.810924
     43          8           0       -3.035125   -4.703594    1.600648
     44          6           0       -2.483625   -5.399221    2.753445
     45          6           0        2.622637   -0.719409   -1.335280
     46          6           0        4.032917   -0.667767   -0.682330
     47          6           0        5.023913    0.142140   -1.090527
     48          6           0        4.879854    1.200297   -2.216612
     49          6           0        6.431496    0.275476   -0.279269
     50          6           0        7.528375   -0.275366   -1.042542
     51          6           0        8.780414   -0.482635   -0.083524
     52          6           0       10.012954   -0.791393   -0.905659
     53          6           0       10.104496   -2.270848   -1.378129
     54          6           0       11.304230   -0.493308    0.033997
     55          6           0       12.703152   -0.653998   -0.683556
     56          6           0       13.952210   -0.213630    0.271859
     57          6           0       15.330684   -0.328291   -0.362568
     58          6           0       15.751127   -1.650369   -0.759435
     59          6           0       16.252372    0.457089    0.514254
     60          6           0       17.800526    0.498630   -0.029173
     61          6           0       18.645461    1.408441    0.866142
     62          6           0       20.062321    1.707206    0.198414
     63          6           0       19.980614    2.552695   -1.133640
     64          6           0       20.942732    2.346695    1.303058
     65          1           0       -4.187525    3.648148    1.741432
     66          1           0      -10.135728    3.996387   -0.276271
     67          1           0      -10.679012   -2.344828   -1.058542
     68          1           0       -2.558412   -1.225327    1.837845
     69          1           0       -2.214912    1.540078    1.332007
     70          1           0       -1.723412    0.640712    3.533849
     71          1           0       -2.979926    2.100521    3.466456
     72          1           0       -3.613049    0.371830    3.511923
     73          1           0       -2.024044   -1.710644   -0.359304
     74          1           0       -2.302229    0.086347   -0.778813
     75          1           0       -0.302088    0.407065    0.982972
     76          1           0       -0.365292   -1.218724    1.099463
     77          1           0       -4.678450    6.349802    0.736981
     78          1           0       -6.006591    6.822787    2.048798
     79          1           0       -4.847907    5.462131    2.495997
     80          1           0       -8.142998    6.874660    1.283166
     81          1           0       -9.107433    6.155653   -1.540594
     82          1           0       -9.652752    7.600651   -0.644358
     83          1           0      -12.165118    3.704946   -0.341109
     84          1           0      -11.875268    3.445666   -2.092998
     85          1           0      -13.329110    2.779240   -1.425118
     86          1           0      -12.937803   -1.237552   -0.981578
     87          1           0      -13.543118    0.188323   -1.296624
     88          1           0      -12.662952    0.071064   -3.729774
     89          1           0      -11.712151   -1.279773   -3.310629
     90          1           0      -13.692772   -0.990246   -3.272490
     91          1           0      -10.067395   -4.669252   -0.188065
     92          1           0       -9.513212   -4.921254   -1.756724
     93          1           0       -8.619585   -5.861420   -0.652614
     94          1           0       -3.916410   -3.485462   -0.431117
     95          1           0       -1.895216   -6.247584    2.333998
     96          1           0       -1.820981   -4.605126    3.158936
     97          1           0       -3.103302   -5.859423    3.391253
     98          1           0        2.473430   -1.744721   -2.013963
     99          1           0        2.547944    0.106023   -1.943450
    100          1           0        4.251674   -1.277060    0.201333
    101          1           0        5.171415    2.215824   -2.068619
    102          1           0        5.553109    0.957010   -3.121182
    103          1           0        3.799942    1.399707   -2.626292
    104          1           0        6.468588    1.437207    0.013631
    105          1           0        6.152583   -0.318542    0.651801
    106          1           0        7.252033   -1.323490   -1.441052
    107          1           0        7.734046    0.332313   -1.887380
    108          1           0        8.877813    0.702314    0.343684
    109          1           0        8.608348   -1.250715    0.684849
    110          1           0       10.013592   -0.336741   -1.818888
    111          1           0        9.430942   -2.579340   -2.217587
    112          1           0       11.188591   -2.660772   -1.868061
    113          1           0        9.773305   -2.989973   -0.507619
    114          1           0       11.563767    0.467100    0.402819
    115          1           0       11.263134   -0.947442    1.094661
    116          1           0       12.997551   -1.705432   -1.050779
    117          1           0       12.675261    0.055654   -1.429067
    118          1           0       13.789543    0.731862    0.542610
    119          1           0       13.773891   -0.822189    1.238963
    120          1           0       15.302488    0.337468   -1.353374
    121          1           0       14.826679   -2.049982   -1.364615
    122          1           0       16.719337   -1.650826   -1.160172
    123          1           0       15.895416   -2.323543    0.176642
    124          1           0       15.902672    1.535438    0.945734
    125          1           0       16.046959   -0.171207    1.484649
    126          1           0       18.411504   -0.363702   -0.046665
    127          1           0       17.755468    0.714164   -1.125560
    128          1           0       18.265500    2.373877    0.904505
    129          1           0       18.643138    0.968923    1.817364
    130          1           0       20.463763    0.714600    0.022461
    131          1           0       19.312927    3.430386   -1.014523
    132          1           0       20.909280    2.428729   -1.383650
    133          1           0       19.216671    1.976352   -1.859404
    134          1           0       20.956435    1.701349    2.328160
    135          1           0       22.081993    2.595883    1.071756
    136          1           0       20.684122    3.458561    1.547517
    137          1           0       -7.123893    1.599391    0.644469
    138          1           0       -7.620407   -0.285379   -0.151588
 ---------------------------------------------------------------------

 SCF Done:  E(RB3LYP) =  -2732.95778505     A.U. after   18 cycles

 Excitation energies and oscillator strengths:

 Excited State   1:      Singlet-A      2.0816 eV  595.62 nm  f=0.0949  <S**2>=0.000
     235 -> 238        0.38286
     236 -> 237        0.58739
 This state for optimization and/or second-order correction.
 Total Energy, E(TD-HF/TD-KS) =  -2732.88128747
 Copying the excited state density for this state as the 1-particle RhoCI density.

 The electronic state is 1-A.
 Alpha  occ. eigenvalues --  -19.19866 -19.17000 -19.14782 -19.12385 -19.11259
 Alpha  occ. eigenvalues --  -14.36883 -14.36060 -14.32310 -14.28502 -10.32147
 Alpha  occ. eigenvalues --  -10.31557 -10.29476 -10.25957 -10.24525 -10.23780
 Alpha  occ. eigenvalues --  -10.23739 -10.23436 -10.23433 -10.23337 -10.23244
 Alpha  occ. eigenvalues --  -10.23152 -10.22108 -10.21775 -10.21579 -10.21300
 Alpha  occ. eigenvalues --  -10.21043 -10.20763 -10.20686 -10.20507 -10.20446
 Alpha  occ. eigenvalues --  -10.20376 -10.20364 -10.20303 -10.20106 -10.20062
 Alpha  occ. eigenvalues --  -10.19975 -10.19974 -10.19971 -10.19869 -10.19810
 Alpha  occ. eigenvalues --  -10.19789 -10.19691 -10.19655 -10.19583 -10.19545
 Alpha  occ. eigenvalues --  -10.19407 -10.19398 -10.19397 -10.19153 -10.19057
 Alpha  occ. eigenvalues --  -10.19047 -10.18835 -10.18814 -10.18763 -10.18489
 Alpha  occ. eigenvalues --  -10.18353 -10.18347 -10.18226 -10.18077 -10.17748
 Alpha  occ. eigenvalues --  -10.17610 -10.17455 -10.17267 -10.16826  -1.10857
 Alpha  occ. eigenvalues --   -1.08441  -1.07462  -0.98338  -0.98264  -0.97721
 Alpha  occ. eigenvalues --   -0.95843  -0.94931  -0.93085  -0.85658  -0.83203
 Alpha  occ. eigenvalues --   -0.82305  -0.81974  -0.81637  -0.81281  -0.80832
 Alpha  occ. eigenvalues --   -0.80171  -0.79677  -0.78442  -0.78055  -0.77339
 Alpha  occ. eigenvalues --   -0.76604  -0.75754  -0.75563  -0.74359  -0.73990
 Alpha  occ. eigenvalues --   -0.73800  -0.72982  -0.72481  -0.71839  -0.70588
 Alpha  occ. eigenvalues --   -0.69652  -0.69408  -0.68357  -0.67876  -0.67552
 Alpha  occ. eigenvalues --   -0.67216  -0.66959  -0.65600  -0.65048  -0.64839
 Alpha  occ. eigenvalues --   -0.64343  -0.62658  -0.62532  -0.62012  -0.60896
 Alpha  occ. eigenvalues --   -0.60634  -0.59274  -0.58886  -0.57823  -0.57542
 Alpha  occ. eigenvalues --   -0.57292  -0.57048  -0.56761  -0.56294  -0.56058
 Alpha  occ. eigenvalues --   -0.55644  -0.54471  -0.53985  -0.53715  -0.53095
 Alpha  occ. eigenvalues --   -0.52604  -0.52447  -0.51605  -0.51508  -0.50658
 Alpha  occ. eigenvalues --   -0.50168  -0.49308  -0.48879  -0.48706  -0.48499
 Alpha  occ. eigenvalues --   -0.48345  -0.48114  -0.47825  -0.47712  -0.47089
 Alpha  occ. eigenvalues --   -0.46761  -0.46566  -0.46294  -0.45965  -0.45916
 Alpha  occ. eigenvalues --   -0.45779  -0.45633  -0.45459  -0.45126  -0.44606
 Alpha  occ. eigenvalues --   -0.44543  -0.44458  -0.44087  -0.43865  -0.43515
 Alpha  occ. eigenvalues --   -0.43411  -0.42938  -0.42840  -0.42508  -0.42369
 Alpha  occ. eigenvalues --   -0.41974  -0.41815  -0.41738  -0.41596  -0.41446
 Alpha  occ. eigenvalues --   -0.40992  -0.40850  -0.40835  -0.40701  -0.40277
 Alpha  occ. eigenvalues --   -0.40176  -0.40093  -0.39986  -0.39677  -0.39356
 Alpha  occ. eigenvalues --   -0.39157  -0.38919  -0.38806  -0.38656  -0.38586
 Alpha  occ. eigenvalues --   -0.38344  -0.38073  -0.38044  -0.37980  -0.37693
 Alpha  occ. eigenvalues --   -0.37477  -0.37340  -0.37263  -0.36807  -0.36464
 Alpha  occ. eigenvalues --   -0.36445  -0.36130  -0.36031  -0.35916  -0.35524
 Alpha  occ. eigenvalues --   -0.35467  -0.35368  -0.35106  -0.35038  -0.34617
 Alpha  occ. eigenvalues --   -0.34516  -0.34375  -0.34103  -0.33919  -0.33689
 Alpha  occ. eigenvalues --   -0.33323  -0.33040  -0.32653  -0.32425  -0.32424
 Alpha  occ. eigenvalues --   -0.32118  -0.31592  -0.31339  -0.31293  -0.31229
 Alpha  occ. eigenvalues --   -0.30799  -0.30548  -0.29863  -0.29739  -0.29381
 Alpha  occ. eigenvalues --   -0.29152  -0.28547  -0.28531  -0.27783  -0.27501
 Alpha  occ. eigenvalues --   -0.27179  -0.26930  -0.26566  -0.26016  -0.25712
 Alpha  occ. eigenvalues --   -0.25329  -0.25138  -0.23939  -0.21546  -0.19823
 Alpha  occ. eigenvalues --   -0.18592
 Alpha virt. eigenvalues --   -0.09347  -0.08502  -0.04444  -0.02395  -0.00747
 Alpha virt. eigenvalues --   -0.00288   0.00201   0.00871   0.02085   0.03382
 Alpha virt. eigenvalues --    0.03757   0.04073   0.04298   0.04388   0.04674

 Mulliken charges:
               1
     1  C    0.047959
     2  C   -0.047551
     3  C   -0.131930
     4  C   -0.104876
     5  N   -0.132652
     6  C   -0.038569
     7  C    0.020785
     8  C   -0.110621
     9  C    0.032039
    10  C    0.038382
    11  C    0.105834
    12  C    0.053661
    13  C    0.196912
    14  O   -0.295139
    15  O   -0.271009
    16  N   -0.170958
    17  C    0.003778
    18  C    0.035856
    19  C    0.025358
    20  C    0.209613
    21  C   -0.126337
    22  C   -0.081688
    23  C   -0.001280
    24  N   -0.244260
    25  C    0.049195
    26  C   -0.132708
    27  C   -0.141631
    28  C    0.086038
    29  C    0.075702
    30  C    0.120316
    31  C    0.111536
    32  N    0.006277
    33  C    0.077322
    34  C   -0.080165
    35  C   -0.014353
    36  C    0.125377
    37  C   -0.067548
    38  C    0.073098
    39  O   -0.079936
    40  C    0.020568
    41  C    0.190392
    42  O   -0.257772
    43  O   -0.319885
    44  C    0.230793
    45  C    0.282767
    46  C   -0.091644
    47  C   -0.129992
    48  C    0.007880
    49  C    0.026103
    50  C    0.039389
    51  C   -0.007912
    52  C    0.044313
    53  C   -0.078032
    54  C    0.027297
    55  C    0.021834
    56  C    0.013565
    57  C   -0.072574
    58  C    0.076749
    59  C   -0.048238
    60  C    0.027651
    61  C    0.076722
    62  C   -0.104978
    63  C    0.089937
    64  C   -0.058846
    65  H   -0.011948
    66  H   -0.035946
    67  H   -0.009093
    68  H   -0.032103
    69  H   -0.004593
    70  H    0.036679
    71  H    0.026953
    72  H    0.034174
    73  H    0.015240
    74  H    0.010750
    75  H    0.017391
    76  H   -0.028188
    77  H    0.061943
    78  H    0.031286
    79  H    0.060872
    80  H    0.026117
    81  H   -0.016521
    82  H    0.039804
    83  H    0.038561
    84  H    0.013617
    85  H    0.017500
    86  H   -0.010257
    87  H   -0.055786
    88  H   -0.062353
    89  H    0.031865
    90  H   -0.004140
    91  H    0.035224
    92  H    0.031499
    93  H    0.066547
    94  H   -0.035150
    95  H    0.029249
    96  H    0.033478
    97  H    0.015573
    98  H    0.065580
    99  H   -0.013887
   100  H   -0.009396
   101  H    0.006695
   102  H    0.029287
   103  H    0.023194
   104  H    0.033288
   105  H    0.001777
   106  H    0.012164
   107  H   -0.009066
   108  H    0.019242
   109  H    0.015259
   110  H   -0.035721
   111  H    0.014858
   112  H    0.037723
   113  H    0.014187
   114  H   -0.028203
   115  H   -0.007499
   116  H    0.024656
   117  H   -0.022386
   118  H   -0.047435
   119  H    0.001748
   120  H   -0.012548
   121  H    0.029020
   122  H   -0.003451
   123  H   -0.005501
   124  H    0.021084
   125  H   -0.009073
   126  H   -0.016450
   127  H    0.000224
   128  H   -0.032603
   129  H   -0.013394
   130  H   -0.012069
   131  H    0.021835
   132  H   -0.010677
   133  H    0.004894
   134  H    0.030433
   135  H    0.010153
   136  H    0.012142
   137  H    0.182102
   138  H    0.081658
 Sum of Mulliken charges =   0.00000

 Dipole moment (field-independent basis, Debye):
    X=              2.9209    Y=              2.8141    Z=              0.0876  Tot=              4.0569
 Quadrupole moment (field-independent basis, Debye-Ang):
   XX=           -364.1623   YY=           -372.4803   ZZ=           -400.1053
   XY=            -14.3426   XZ=              9.3799   YZ=             -0.1198

 Normal termination of Gaussian 09 at Sat Aug  3 05:25:36 2019.
