 Gaussian 09, Revision D.01,
 Gaussian 09:  ES64L-G09RevD.01 24-Apr-2013

 --------------------------
 # td=(NStates=1) B3LYP/SVP
 --------------------------

 --
 TD
 --
 Symbolic Z-matrix:
 Charge =  0 Multiplicity = 1

                         Standard orientation:
 ---------------------------------------------------------------------
 Center     Atomic      Atomic             Coordinates (Angstroms)
 Number     Number       Type             X           Y           Z
 ---------------------------------------------------------------------
      1          6           0       -5.093255   -1.930736    0.428809
      2          6           0       -4.670221    2.819373    1.353459
      3          6           0       -9.373917    3.343067   -0.175745
      4          6           0       -9.710850   -1.541189   -1.119643
      5          7           0       -5.162239    0.489304    0.795482
      6          6           0       -4.482818   -0.724390    0.862006
      7          6           0       -3.082527   -0.534352    1.329862
      8          6           0       -3.121353    0.887515    2.020270
      9          6           0       -4.382143    1.469695    1.432272
     10          6           0       -3.149348    0.949163    3.553428
     11          6           0       -2.181992   -0.735170    0.098008
     12          6           0       -0.607833   -0.873350    0.535270
     13          6           0        0.364627   -0.905054   -0.543845
     14          8           0        0.075182   -1.249048   -1.745136
     15          8           0        1.578148   -0.733879   -0.131726
     16          7           0       -7.041411    2.752228    0.502416
     17          6           0       -5.966804    3.386479    1.015150
     18          6           0       -6.291596    4.839536    1.086605
     19          6           0       -7.565935    4.956102    0.640387
     20          6           0       -8.043518    3.643957    0.252464
     21          6           0       -5.312330    5.882599    1.596852
     22          6           0       -8.201641    6.283745    0.357847
     23          6           0       -9.194597    6.555566   -0.512321
     24          7           0       -9.190665    0.841309   -0.481055
     25          6           0       -9.902614    2.002024   -0.499232
     26          6           0      -11.285214    1.793510   -1.054491
     27          6           0      -11.354507    0.496055   -1.226128
     28          6           0      -10.071342   -0.103609   -0.920098
     29          6           0      -12.315217    2.882831   -1.223281
     30          6           0      -12.539107   -0.314281   -1.868748
     31          6           0      -12.375877   -0.657924   -3.366634
     32          7           0       -7.445882   -1.280920   -0.291378
     33          6           0       -8.596432   -2.083974   -0.737255
     34          6           0       -8.047969   -3.376274   -0.882606
     35          6           0       -6.707970   -3.490815   -0.389739
     36          6           0       -6.470795   -2.079660    0.040396
     37          6           0       -8.849229   -4.638191   -1.247144
     38          6           0       -5.541893   -4.319948   -0.023148
     39          8           0       -5.354302   -5.507030   -0.181515
     40          6           0       -4.481553   -3.333022    0.546829
     41          6           0       -4.013360   -3.847400    1.896612
     42          8           0       -4.244111   -3.351469    2.964017
     43          8           0       -3.138685   -4.902198    1.685005
     44          6           0       -2.793531   -5.445534    2.910456
     45          6           0        2.625235   -0.816433   -1.191234
     46          6           0        3.904205   -0.576970   -0.481784
     47          6           0        4.856886    0.184249   -1.092647
     48          6           0        4.842309    0.851274   -2.502459
     49          6           0        6.224463    0.373475   -0.368021
     50          6           0        7.382877   -0.469706   -0.936613
     51          6           0        8.671635   -0.088335   -0.204603
     52          6           0       10.026144   -0.664330   -0.620075
     53          6           0       10.091168   -2.151427   -0.789766
     54          6           0       11.260826   -0.039758    0.121081
     55          6           0       12.682888   -0.544706   -0.442200
     56          6           0       13.909995    0.035973    0.374478
     57          6           0       15.240707   -0.331356   -0.229621
     58          6           0       15.503599   -1.852229   -0.323911
     59          6           0       16.383352    0.477961    0.362499
     60          6           0       17.730436    0.622467   -0.321476
     61          6           0       18.632040    1.571611    0.450260
     62          6           0       20.139440    1.561239   -0.100504
     63          6           0       20.278849    2.196861   -1.416451
     64          6           0       21.090239    2.351075    0.969216
     65          1           0       -4.042698    3.563602    1.558431
     66          1           0      -10.074898    4.343345   -0.127660
     67          1           0      -10.639472   -2.302969   -1.441274
     68          1           0       -3.035468   -1.288178    2.171968
     69          1           0       -2.209059    1.583402    1.817946
     70          1           0       -2.266595    0.405903    4.086432
     71          1           0       -3.392325    1.994781    3.880429
     72          1           0       -3.966909    0.332243    4.060529
     73          1           0       -2.313359   -1.673289   -0.331594
     74          1           0       -2.321714    0.226885   -0.395036
     75          1           0       -0.414603   -0.015681    1.151911
     76          1           0       -0.492743   -1.605640    1.266630
     77          1           0       -4.269154    5.718139    1.142153
     78          1           0       -5.613853    6.835180    1.299952
     79          1           0       -5.058397    5.612546    2.622190
     80          1           0       -7.823820    7.018339    1.076101
     81          1           0       -9.699020    5.763675   -1.282958
     82          1           0       -9.616761    7.525127   -0.649235
     83          1           0      -12.341633    3.350260   -0.186611
     84          1           0      -11.875276    3.689565   -1.825595
     85          1           0      -13.327183    2.677892   -1.632061
     86          1           0      -12.482119   -1.291969   -1.300607
     87          1           0      -13.528682    0.119869   -1.462943
     88          1           0      -12.230310    0.233146   -3.975848
     89          1           0      -11.389319   -1.320532   -3.580477
     90          1           0      -13.273988   -1.262170   -3.726373
     91          1           0       -9.581632   -4.762324   -0.525021
     92          1           0       -9.519043   -4.603275   -2.202697
     93          1           0       -8.334726   -5.610404   -1.321766
     94          1           0       -3.693112   -3.554411   -0.293718
     95          1           0       -2.137563   -6.267604    2.757088
     96          1           0       -2.318352   -4.508428    3.484740
     97          1           0       -3.461031   -5.970844    3.547553
     98          1           0        2.550138   -1.741179   -1.389507
     99          1           0        2.214223   -0.342161   -2.038698
    100          1           0        3.984205   -0.758221    0.491067
    101          1           0        5.017742    1.871045   -2.552461
    102          1           0        5.571643    0.256761   -3.169955
    103          1           0        3.797259    1.040165   -2.942562
    104          1           0        6.374733    1.477564   -0.433827
    105          1           0        6.221932    0.109066    0.770101
    106          1           0        7.470771   -1.603920   -1.122792
    107          1           0        7.505800   -0.036307   -1.952635
    108          1           0        8.715804    1.097619   -0.273237
    109          1           0        8.656333   -0.572164    0.833609
    110          1           0       10.131959   -0.124521   -1.660396
    111          1           0        9.144237   -2.251672   -1.346306
    112          1           0       10.986347   -2.572980   -1.247433
    113          1           0       10.016741   -2.834405    0.071209
    114          1           0       11.047119    1.077901   -0.046806
    115          1           0       11.154950   -0.328141    1.192722
    116          1           0       12.697705   -1.548434   -0.356698
    117          1           0       12.632391   -0.435916   -1.645985
    118          1           0       13.746595    1.074412    0.377191
    119          1           0       13.758064   -0.361435    1.539832
    120          1           0       15.304366   -0.067753   -1.476552
    121          1           0       14.966038   -2.726409   -0.929774
    122          1           0       16.429376   -2.156263   -0.795362
    123          1           0       15.473876   -2.342030    0.672435
    124          1           0       15.949589    1.446003    0.320620
    125          1           0       16.382146    0.135817    1.288159
    126          1           0       18.373851   -0.442611   -0.445987
    127          1           0       17.614317    0.830373   -1.306853
    128          1           0       18.151376    2.442060    0.394083
    129          1           0       18.575660    1.444485    1.437210
    130          1           0       20.404666    0.522200   -0.234096
    131          1           0       19.837615    3.410050   -1.519758
    132          1           0       21.326393    2.274765   -1.752937
    133          1           0       19.680226    1.506197   -2.099015
    134          1           0       21.134196    1.855544    2.045970
    135          1           0       21.933673    2.280069    0.635240
    136          1           0       20.667685    3.471937    1.327367
    137          1           0       -7.178236    1.688188    0.449753
    138          1           0       -7.502982   -0.370027    0.288502
 ---------------------------------------------------------------------

 SCF Done:  E(RB3LYP) =  -2733.01607554     A.U. after   17 cycles

 Excitation energies and oscillator strengths:

 Excited State   1:      Singlet-A      1.9930 eV  622.09 nm  f=0.1353  <S**2>=0.000
     235 -> 238       -0.30770
     236 -> 237        0.62214
 This state for optimization and/or second-order correction.
 Total Energy, E(TD-HF/TD-KS) =  -2732.94283273
 Copying the excited state density for this state as the 1-particle RhoCI density.

 The electronic state is 1-A.
 Alpha  occ. eigenvalues --  -19.18091 -19.17814 -19.13802 -19.12220 -19.10430
 Alpha  occ. eigenvalues --  -14.37825 -14.37094 -14.32269 -14.30453 -10.32248
 Alpha  occ. eigenvalues --  -10.30615 -10.28376 -10.24312 -10.23852 -10.23543
 Alpha  occ. eigenvalues --  -10.23489 -10.23292 -10.23268 -10.23167 -10.22926
 Alpha  occ. eigenvalues --  -10.22756 -10.22064 -10.21921 -10.21883 -10.21718
 Alpha  occ. eigenvalues --  -10.21661 -10.21431 -10.21303 -10.21200 -10.20628
 Alpha  occ. eigenvalues --  -10.20616 -10.20567 -10.20523 -10.20502 -10.20450
 Alpha  occ. eigenvalues --  -10.20427 -10.20318 -10.20284 -10.20132 -10.20000
 Alpha  occ. eigenvalues --  -10.19896 -10.19864 -10.19730 -10.19594 -10.19594
 Alpha  occ. eigenvalues --  -10.19517 -10.19497 -10.19484 -10.19469 -10.19462
 Alpha  occ. eigenvalues --  -10.19278 -10.19106 -10.18887 -10.18887 -10.18730
 Alpha  occ. eigenvalues --  -10.18567 -10.18327 -10.18317 -10.18277 -10.18010
 Alpha  occ. eigenvalues --  -10.17813 -10.17345 -10.16724 -10.16049  -1.10297
 Alpha  occ. eigenvalues --   -1.09698  -1.02890  -1.02223  -0.98704  -0.98038
 Alpha  occ. eigenvalues --   -0.96326  -0.93380  -0.92786  -0.83985  -0.82559
 Alpha  occ. eigenvalues --   -0.82153  -0.82011  -0.81255  -0.81201  -0.80440
 Alpha  occ. eigenvalues --   -0.79742  -0.79568  -0.78731  -0.78406  -0.77861
 Alpha  occ. eigenvalues --   -0.76872  -0.75929  -0.75252  -0.75067  -0.74142
 Alpha  occ. eigenvalues --   -0.73383  -0.73090  -0.72258  -0.71758  -0.71207
 Alpha  occ. eigenvalues --   -0.70428  -0.69066  -0.68588  -0.68170  -0.67965
 Alpha  occ. eigenvalues --   -0.67434  -0.67232  -0.67157  -0.65766  -0.65390
 Alpha  occ. eigenvalues --   -0.64008  -0.63266  -0.62255  -0.61904  -0.61251
 Alpha  occ. eigenvalues --   -0.60612  -0.59884  -0.58036  -0.57808  -0.57575
 Alpha  occ. eigenvalues --   -0.57323  -0.56850  -0.56401  -0.56166  -0.55375
 Alpha  occ. eigenvalues --   -0.54889  -0.54672  -0.54136  -0.53608  -0.53133
 Alpha  occ. eigenvalues --   -0.53064  -0.51875  -0.51252  -0.50827  -0.50754
 Alpha  occ. eigenvalues --   -0.50352  -0.49417  -0.49016  -0.48847  -0.48641
 Alpha  occ. eigenvalues --   -0.48555  -0.48389  -0.48181  -0.47188  -0.47017
 Alpha  occ. eigenvalues --   -0.46348  -0.46226  -0.46169  -0.45798  -0.45591
 Alpha  occ. eigenvalues --   -0.45562  -0.45411  -0.44908  -0.44678  -0.44442
 Alpha  occ. eigenvalues --   -0.44185  -0.44083  -0.43997  -0.43668  -0.43580
 Alpha  occ. eigenvalues --   -0.43498  -0.43354  -0.43079  -0.42740  -0.42681
 Alpha  occ. eigenvalues --   -0.42438  -0.42322  -0.42214  -0.41768  -0.41371
 Alpha  occ. eigenvalues --   -0.41253  -0.41037  -0.40899  -0.40591  -0.40499
 Alpha  occ. eigenvalues --   -0.40248  -0.39992  -0.39887  -0.39760  -0.39616
 Alpha  occ. eigenvalues --   -0.39146  -0.38990  -0.38878  -0.38514  -0.38486
 Alpha  occ. eigenvalues --   -0.38207  -0.38072  -0.38013  -0.37758  -0.37662
 Alpha  occ. eigenvalues --   -0.37513  -0.37182  -0.37074  -0.36931  -0.36819
 Alpha  occ. eigenvalues --   -0.36689  -0.36424  -0.36224  -0.35641  -0.35534
 Alpha  occ. eigenvalues --   -0.35486  -0.35369  -0.34795  -0.34488  -0.34235
 Alpha  occ. eigenvalues --   -0.34131  -0.33902  -0.33752  -0.33697  -0.33501
 Alpha  occ. eigenvalues --   -0.33088  -0.32945  -0.32779  -0.32495  -0.32426
 Alpha  occ. eigenvalues --   -0.32327  -0.32278  -0.31966  -0.31871  -0.31707
 Alpha  occ. eigenvalues --   -0.31284  -0.30598  -0.30462  -0.30193  -0.29679
 Alpha  occ. eigenvalues --   -0.29404  -0.29011  -0.28275  -0.28094  -0.27949
 Alpha  occ. eigenvalues --   -0.27139  -0.26817  -0.26417  -0.26175  -0.25738
 Alpha  occ. eigenvalues --   -0.25260  -0.25131  -0.24541  -0.23217  -0.19836
 Alpha  occ. eigenvalues --   -0.18671
 Alpha virt. eigenvalues --   -0.10128  -0.08061  -0.04454  -0.01894  -0.01017
 Alpha virt. eigenvalues --   -0.00540   0.00031   0.00335   0.02195   0.03629
 Alpha virt. eigenvalues --    0.03708   0.04203   0.04344   0.04803   0.04901

 Mulliken charges:
               1
     1  C    0.016453
     2  C    0.011688
     3  C   -0.111968
     4  C   -0.132761
     5  N   -0.248184
     6  C   -0.075842
     7  C   -0.001251
     8  C   -0.075229
     9  C    0.086844
    10  C    0.017829
    11  C    0.148672
    12  C    0.056875
    13  C    0.192433
    14  O   -0.329767
    15  O   -0.302998
    16  N   -0.035204
    17  C    0.017463
    18  C   -0.153863
    19  C   -0.013051
    20  C    0.036525
    21  C    0.143682
    22  C   -0.004805
    23  C   -0.075929
    24  N   -0.223066
    25  C    0.036274
    26  C   -0.133312
    27  C   -0.120582
    28  C    0.006461
    29  C    0.108237
    30  C    0.045698
    31  C   -0.013385
    32  N   -0.064643
    33  C    0.170230
    34  C   -0.123883
    35  C   -0.011749
    36  C    0.005985
    37  C    0.075149
    38  C    0.043525
    39  O   -0.159678
    40  C   -0.071264
    41  C    0.232569
    42  O   -0.204290
    43  O   -0.286452
    44  C    0.180271
    45  C    0.431584
    46  C   -0.015864
    47  C   -0.132804
    48  C    0.045799
    49  C    0.027316
    50  C    0.025300
    51  C   -0.051537
    52  C   -0.098696
    53  C    0.046512
    54  C    0.023819
    55  C    0.014747
    56  C    0.058140
    57  C   -0.109808
    58  C   -0.008859
    59  C    0.137553
    60  C    0.027092
    61  C    0.170657
    62  C   -0.078796
    63  C   -0.026131
    64  C    0.065936
    65  H   -0.105088
    66  H    0.044857
    67  H    0.045941
    68  H    0.007202
    69  H    0.018145
    70  H    0.029368
    71  H    0.022611
    72  H    0.017047
    73  H    0.011032
    74  H    0.019081
    75  H   -0.010918
    76  H    0.007799
    77  H    0.024515
    78  H    0.009838
    79  H    0.027109
    80  H    0.009591
    81  H    0.062385
    82  H    0.018237
    83  H    0.028393
    84  H    0.008089
    85  H    0.024391
    86  H   -0.007330
    87  H    0.015121
    88  H    0.018778
    89  H    0.028033
    90  H    0.026938
    91  H    0.007913
    92  H    0.020175
    93  H    0.040152
    94  H    0.093224
    95  H    0.003200
    96  H    0.033136
    97  H    0.015362
    98  H   -0.064774
    99  H    0.014868
   100  H   -0.046294
   101  H    0.001748
   102  H    0.058925
   103  H    0.015172
   104  H    0.013627
   105  H    0.010272
   106  H    0.030051
   107  H   -0.016026
   108  H    0.014683
   109  H    0.000310
   110  H   -0.015533
   111  H   -0.003045
   112  H    0.016421
   113  H   -0.000971
   114  H    0.001986
   115  H   -0.007971
   116  H   -0.028641
   117  H    0.011115
   118  H   -0.014091
   119  H    0.019421
   120  H   -0.001224
   121  H    0.009864
   122  H   -0.004795
   123  H   -0.007552
   124  H   -0.020239
   125  H   -0.049170
   126  H   -0.010966
   127  H   -0.034705
   128  H   -0.062462
   129  H   -0.056676
   130  H   -0.004579
   131  H    0.022133
   132  H    0.015618
   133  H    0.019464
   134  H    0.007849
   135  H   -0.064974
   136  H    0.032072
   137  H    0.175736
   138  H    0.197361
 Sum of Mulliken charges =   0.00000

 Dipole moment (field-independent basis, Debye):
    X=              2.1206    Y=              4.4272    Z=              1.9353  Tot=              5.2766
 Quadrupole moment (field-independent basis, Debye-Ang):
   XX=           -345.2828   YY=           -378.1168   ZZ=           -397.1488
   XY=            -22.6560   XZ=              1.5166   YZ=             -2.6225

 Normal termination of Gaussian 09 at Thu Aug  1 12:28:13 2019.
