 Gaussian 09, Revision D.01,
 Gaussian 09:  ES64L-G09RevD.01 24-Apr-2013

 --------------------------
 # td=(NStates=1) B3LYP/SVP
 --------------------------

 --
 TD
 --
 Symbolic Z-matrix:
 Charge =  0 Multiplicity = 1

                         Standard orientation:
 ---------------------------------------------------------------------
 Center     Atomic      Atomic             Coordinates (Angstroms)
 Number     Number       Type             X           Y           Z
 ---------------------------------------------------------------------
      1          6           0       -5.011002   -1.938793    0.464430
      2          6           0       -4.920471    2.788192    1.419617
      3          6           0       -9.330014    3.354800   -0.219866
      4          6           0       -9.762831   -1.399222   -0.796380
      5          7           0       -5.175530    0.365318    0.879062
      6          6           0       -4.409779   -0.720537    0.882010
      7          6           0       -3.012621   -0.505000    1.412814
      8          6           0       -3.006370    0.937347    1.841477
      9          6           0       -4.414768    1.444974    1.293073
     10          6           0       -2.889340    1.152580    3.389112
     11          6           0       -2.070225   -0.817688    0.270501
     12          6           0       -0.571320   -0.738940    0.526201
     13          6           0        0.379385   -0.978423   -0.679257
     14          8           0       -0.029878   -1.326048   -1.759014
     15          8           0        1.636707   -0.886853   -0.387914
     16          7           0       -7.046686    2.738180    0.409886
     17          6           0       -6.080650    3.349896    1.038012
     18          6           0       -6.292449    4.825416    1.061638
     19          6           0       -7.534157    5.000841    0.547485
     20          6           0       -8.051466    3.678518    0.268674
     21          6           0       -5.271764    5.819035    1.552655
     22          6           0       -8.180697    6.268406    0.279398
     23          6           0       -9.082265    6.648107   -0.674797
     24          7           0       -9.150615    0.984507   -0.417571
     25          6           0       -9.879361    2.170356   -0.555782
     26          6           0      -11.259239    1.852695   -0.941277
     27          6           0      -11.415407    0.486294   -1.094117
     28          6           0      -10.081704   -0.062191   -0.756349
     29          6           0      -12.267828    2.916310   -1.161401
     30          6           0      -12.592818   -0.247846   -1.595479
     31          6           0      -12.595455   -0.473341   -3.083532
     32          7           0       -7.467296   -1.221786   -0.119871
     33          6           0       -8.526223   -2.028656   -0.585658
     34          6           0       -8.164505   -3.394757   -0.638725
     35          6           0       -6.877588   -3.370320   -0.160342
     36          6           0       -6.320571   -2.106230   -0.017263
     37          6           0       -9.045052   -4.534772   -1.064547
     38          6           0       -5.825921   -4.234299   -0.069435
     39          8           0       -5.742382   -5.548458    0.008896
     40          6           0       -4.516024   -3.467435    0.428662
     41          6           0       -3.871697   -3.917293    1.771323
     42          8           0       -4.167962   -3.603232    2.888708
     43          8           0       -3.015174   -4.946713    1.504186
     44          6           0       -2.435662   -5.529069    2.680280
     45          6           0        2.748875   -1.202561   -1.305691
     46          6           0        3.930611   -0.752011   -0.701475
     47          6           0        4.974758    0.001723   -1.242406
     48          6           0        4.840581    0.688215   -2.591867
     49          6           0        6.207231    0.182546   -0.546533
     50          6           0        7.437606   -0.316155   -1.193249
     51          6           0        8.726966   -0.221390   -0.259556
     52          6           0       10.120044   -0.752561   -0.831600
     53          6           0       10.160437   -2.156291   -0.954620
     54          6           0       11.346945   -0.090310   -0.050385
     55          6           0       12.645335   -0.456713   -0.639510
     56          6           0       13.870860   -0.057578    0.237255
     57          6           0       15.258150   -0.239845   -0.318550
     58          6           0       15.628320   -1.651009   -0.546432
     59          6           0       16.274649    0.524730    0.462925
     60          6           0       17.643606    0.860512   -0.167531
     61          6           0       18.607289    1.571793    0.726865
     62          6           0       19.990918    1.701406    0.227693
     63          6           0       20.126619    2.471105   -1.075607
     64          6           0       20.878747    2.156267    1.310359
     65          1           0       -4.259538    3.400864    1.959472
     66          1           0       -9.979813    4.155724   -0.322465
     67          1           0      -10.522346   -2.160383   -1.043539
     68          1           0       -2.543963   -1.331388    2.326263
     69          1           0       -2.362587    1.599728    1.383181
     70          1           0       -1.971530    0.771054    3.883408
     71          1           0       -2.932637    2.188077    3.798119
     72          1           0       -3.476152    0.487836    3.962319
     73          1           0       -2.471546   -1.901964    0.016160
     74          1           0       -2.272562   -0.136456   -0.440142
     75          1           0       -0.221594    0.094203    0.973422
     76          1           0       -0.251511   -1.347467    1.431084
     77          1           0       -4.516683    6.055315    0.885439
     78          1           0       -5.667860    6.775479    1.877589
     79          1           0       -4.776165    5.477173    2.465016
     80          1           0       -7.885303    6.859813    1.059737
     81          1           0       -9.294649    5.931646   -1.332582
     82          1           0       -9.537007    7.581960   -0.644205
     83          1           0      -12.419695    3.655108   -0.490497
     84          1           0      -12.082213    3.702613   -2.134516
     85          1           0      -13.349511    2.394980   -1.370893
     86          1           0      -12.524261   -1.300005   -1.061150
     87          1           0      -13.428593    0.349068   -1.336268
     88          1           0      -12.823323    0.565360   -3.573557
     89          1           0      -11.641740   -1.035067   -3.585953
     90          1           0      -13.509737   -1.083108   -3.241330
     91          1           0       -9.833022   -4.823798   -0.319011
     92          1           0       -9.487486   -4.291233   -2.140619
     93          1           0       -8.667335   -5.597338   -1.309058
     94          1           0       -3.663537   -3.730782   -0.121704
     95          1           0       -1.594055   -6.205000    2.427213
     96          1           0       -2.053253   -4.717837    3.372872
     97          1           0       -3.243437   -6.116519    3.162875
     98          1           0        2.773139   -2.222261   -1.240755
     99          1           0        2.479068   -0.895972   -2.245458
    100          1           0        4.101981   -1.270038    0.320774
    101          1           0        5.327083    1.630885   -2.804115
    102          1           0        5.520349    0.088071   -3.260434
    103          1           0        3.657186    0.702980   -2.841733
    104          1           0        6.319517    1.363140   -0.476097
    105          1           0        5.973521   -0.353345    0.392468
    106          1           0        7.080814   -1.502011   -1.600481
    107          1           0        7.741490    0.218000   -2.184461
    108          1           0        8.935101    0.830277   -0.174339
    109          1           0        8.745681   -0.660412    0.679281
    110          1           0       10.358589   -0.261166   -1.897781
    111          1           0        9.336845   -2.598067   -1.563081
    112          1           0       11.127922   -2.642972   -1.181413
    113          1           0        9.807907   -2.594162   -0.028178
    114          1           0       11.050232    1.001568   -0.015466
    115          1           0       11.070778   -0.711970    0.986666
    116          1           0       12.709058   -1.490778   -1.053283
    117          1           0       12.605043    0.037157   -1.680767
    118          1           0       13.603107    1.005485    0.548669
    119          1           0       13.858223   -0.682428    1.149916
    120          1           0       15.249125    0.369330   -1.289390
    121          1           0       14.898128   -2.112309   -1.197479
    122          1           0       16.526318   -1.890357   -1.086838
    123          1           0       15.595842   -2.241362    0.466069
    124          1           0       15.803609    1.606079    0.855471
    125          1           0       16.130974    0.345438    1.540001
    126          1           0       17.967642   -0.153650   -0.703209
    127          1           0       17.453177    1.489268   -1.104342
    128          1           0       18.193189    2.575190    1.083183
    129          1           0       18.675740    0.909925    1.639256
    130          1           0       20.398037    0.671281   -0.062527
    131          1           0       19.454294    3.427615   -1.104858
    132          1           0       21.225888    2.720229   -1.133060
    133          1           0       19.649800    1.751970   -2.084870
    134          1           0       21.064221    1.615013    2.313523
    135          1           0       21.773082    2.300554    0.970879
    136          1           0       20.645852    3.354846    1.568613
    137          1           0       -7.155446    1.772803    0.169710
    138          1           0       -7.421185   -0.289560    0.074371
 ---------------------------------------------------------------------

 SCF Done:  E(RB3LYP) =  -2733.04614353     A.U. after   19 cycles

 Excitation energies and oscillator strengths:

 Excited State   1:      Singlet-A      2.0711 eV  598.64 nm  f=0.1357  <S**2>=0.000
     235 -> 237       -0.14311
     235 -> 238       -0.34539
     236 -> 237        0.58960
 This state for optimization and/or second-order correction.
 Total Energy, E(TD-HF/TD-KS) =  -2732.97003170
 Copying the excited state density for this state as the 1-particle RhoCI density.

 The electronic state is 1-A.
 Alpha  occ. eigenvalues --  -19.16828 -19.16698 -19.11867 -19.10327 -19.09856
 Alpha  occ. eigenvalues --  -14.37470 -14.35815 -14.32811 -14.30078 -10.30727
 Alpha  occ. eigenvalues --  -10.30518 -10.26215 -10.23998 -10.23960 -10.23843
 Alpha  occ. eigenvalues --  -10.23839 -10.23783 -10.23358 -10.23349 -10.23268
 Alpha  occ. eigenvalues --  -10.22256 -10.21709 -10.21552 -10.21435 -10.21299
 Alpha  occ. eigenvalues --  -10.21219 -10.21057 -10.20941 -10.20901 -10.20739
 Alpha  occ. eigenvalues --  -10.20693 -10.20666 -10.20661 -10.20642 -10.20451
 Alpha  occ. eigenvalues --  -10.20350 -10.20038 -10.20028 -10.20012 -10.19897
 Alpha  occ. eigenvalues --  -10.19834 -10.19675 -10.19564 -10.19543 -10.19393
 Alpha  occ. eigenvalues --  -10.19378 -10.19211 -10.19078 -10.19044 -10.19003
 Alpha  occ. eigenvalues --  -10.18987 -10.18982 -10.18865 -10.18850 -10.18837
 Alpha  occ. eigenvalues --  -10.18817 -10.18732 -10.18715 -10.18520 -10.18297
 Alpha  occ. eigenvalues --  -10.18197 -10.18089 -10.17981 -10.17250  -1.09539
 Alpha  occ. eigenvalues --   -1.08620  -1.00577  -0.99974  -0.99393  -0.97040
 Alpha  occ. eigenvalues --   -0.95112  -0.94640  -0.91085  -0.84313  -0.84288
 Alpha  occ. eigenvalues --   -0.83590  -0.82879  -0.82116  -0.81751  -0.81586
 Alpha  occ. eigenvalues --   -0.81107  -0.80528  -0.79833  -0.79446  -0.78783
 Alpha  occ. eigenvalues --   -0.77168  -0.76386  -0.75990  -0.75381  -0.74783
 Alpha  occ. eigenvalues --   -0.74143  -0.73461  -0.73104  -0.72851  -0.72239
 Alpha  occ. eigenvalues --   -0.70691  -0.69076  -0.69024  -0.68503  -0.68046
 Alpha  occ. eigenvalues --   -0.67299  -0.66947  -0.66709  -0.66634  -0.66025
 Alpha  occ. eigenvalues --   -0.64972  -0.64669  -0.63101  -0.62114  -0.61647
 Alpha  occ. eigenvalues --   -0.61194  -0.59645  -0.59396  -0.58636  -0.58011
 Alpha  occ. eigenvalues --   -0.57315  -0.57012  -0.56594  -0.56099  -0.55638
 Alpha  occ. eigenvalues --   -0.55370  -0.54492  -0.54067  -0.53982  -0.53804
 Alpha  occ. eigenvalues --   -0.52627  -0.51725  -0.51269  -0.50849  -0.50559
 Alpha  occ. eigenvalues --   -0.49408  -0.49132  -0.48966  -0.48787  -0.48534
 Alpha  occ. eigenvalues --   -0.48407  -0.48103  -0.47789  -0.47408  -0.46881
 Alpha  occ. eigenvalues --   -0.46828  -0.46739  -0.46386  -0.46334  -0.46138
 Alpha  occ. eigenvalues --   -0.45909  -0.45801  -0.45569  -0.45311  -0.45256
 Alpha  occ. eigenvalues --   -0.44907  -0.44881  -0.44447  -0.44369  -0.44138
 Alpha  occ. eigenvalues --   -0.43501  -0.43431  -0.43378  -0.43087  -0.42836
 Alpha  occ. eigenvalues --   -0.42325  -0.42269  -0.41914  -0.41690  -0.41488
 Alpha  occ. eigenvalues --   -0.41299  -0.41117  -0.40855  -0.40569  -0.40434
 Alpha  occ. eigenvalues --   -0.40250  -0.40091  -0.39835  -0.39772  -0.39549
 Alpha  occ. eigenvalues --   -0.38949  -0.38907  -0.38651  -0.38414  -0.38229
 Alpha  occ. eigenvalues --   -0.38041  -0.37874  -0.37848  -0.37712  -0.37688
 Alpha  occ. eigenvalues --   -0.37467  -0.37308  -0.37006  -0.36922  -0.36867
 Alpha  occ. eigenvalues --   -0.36740  -0.36450  -0.36112  -0.36007  -0.35791
 Alpha  occ. eigenvalues --   -0.35570  -0.35480  -0.35302  -0.34901  -0.34810
 Alpha  occ. eigenvalues --   -0.34502  -0.34395  -0.34307  -0.34065  -0.33944
 Alpha  occ. eigenvalues --   -0.33817  -0.33221  -0.33171  -0.33021  -0.32563
 Alpha  occ. eigenvalues --   -0.32303  -0.31915  -0.31884  -0.31726  -0.31210
 Alpha  occ. eigenvalues --   -0.31033  -0.30742  -0.30270  -0.30127  -0.29880
 Alpha  occ. eigenvalues --   -0.29718  -0.28045  -0.27795  -0.27606  -0.27308
 Alpha  occ. eigenvalues --   -0.26940  -0.26656  -0.26536  -0.26307  -0.25593
 Alpha  occ. eigenvalues --   -0.25182  -0.24467  -0.22943  -0.22325  -0.19694
 Alpha  occ. eigenvalues --   -0.19097
 Alpha virt. eigenvalues --   -0.10285  -0.07952  -0.05042  -0.02641  -0.01695
 Alpha virt. eigenvalues --   -0.00522   0.00283   0.01181   0.02259   0.03302
 Alpha virt. eigenvalues --    0.03407   0.03543   0.04325   0.04601   0.04802

 Mulliken charges:
               1
     1  C    0.071290
     2  C   -0.074157
     3  C   -0.064846
     4  C   -0.114290
     5  N   -0.169711
     6  C   -0.054131
     7  C   -0.122227
     8  C    0.090960
     9  C   -0.051573
    10  C    0.056363
    11  C    0.096433
    12  C    0.081800
    13  C    0.142344
    14  O   -0.243363
    15  O   -0.311995
    16  N    0.028752
    17  C    0.134040
    18  C   -0.131145
    19  C    0.035613
    20  C    0.089320
    21  C    0.153584
    22  C   -0.064672
    23  C    0.097558
    24  N   -0.321086
    25  C    0.093700
    26  C   -0.064997
    27  C   -0.084118
    28  C    0.136269
    29  C    0.029497
    30  C    0.068531
    31  C   -0.029583
    32  N   -0.075658
    33  C    0.082795
    34  C   -0.048341
    35  C    0.033891
    36  C    0.057395
    37  C    0.011204
    38  C    0.094751
    39  O   -0.287766
    40  C   -0.000713
    41  C    0.165032
    42  O   -0.206670
    43  O   -0.309547
    44  C    0.167675
    45  C    0.421413
    46  C   -0.153954
    47  C   -0.157870
    48  C    0.033025
    49  C    0.141951
    50  C   -0.085453
    51  C    0.113726
    52  C   -0.166979
    53  C    0.099571
    54  C   -0.019452
    55  C    0.029182
    56  C    0.023659
    57  C   -0.016669
    58  C    0.073728
    59  C   -0.031551
    60  C    0.041169
    61  C    0.059465
    62  C   -0.086071
    63  C   -0.063185
    64  C    0.074708
    65  H   -0.065316
    66  H   -0.079819
    67  H   -0.027914
    68  H    0.051256
    69  H   -0.026844
    70  H   -0.006269
    71  H    0.015997
    72  H    0.005475
    73  H    0.043472
    74  H   -0.028884
    75  H   -0.036072
    76  H    0.004344
    77  H    0.012216
    78  H    0.001629
    79  H    0.018999
    80  H   -0.033251
    81  H   -0.012191
    82  H    0.012838
    83  H   -0.004087
    84  H    0.021963
    85  H    0.020852
    86  H    0.019078
    87  H   -0.006585
    88  H    0.024682
    89  H    0.047276
    90  H    0.016631
    91  H    0.045744
    92  H    0.040704
    93  H    0.047502
    94  H    0.018731
    95  H    0.033027
    96  H    0.033950
    97  H    0.038395
    98  H   -0.016260
    99  H   -0.009026
   100  H    0.007698
   101  H    0.010028
   102  H    0.026530
   103  H    0.054001
   104  H    0.018948
   105  H   -0.002489
   106  H    0.019222
   107  H    0.022406
   108  H   -0.017982
   109  H   -0.018591
   110  H   -0.021543
   111  H   -0.000898
   112  H    0.014585
   113  H   -0.032593
   114  H    0.017815
   115  H    0.001257
   116  H   -0.007371
   117  H   -0.015283
   118  H    0.004556
   119  H   -0.008519
   120  H   -0.017226
   121  H   -0.011414
   122  H    0.002448
   123  H    0.011671
   124  H   -0.035271
   125  H   -0.033754
   126  H    0.001558
   127  H   -0.002681
   128  H    0.005337
   129  H   -0.004784
   130  H   -0.001115
   131  H    0.026137
   132  H    0.026536
   133  H    0.038999
   134  H    0.029452
   135  H   -0.059817
   136  H   -0.008260
   137  H    0.132187
   138  H    0.087360
 Sum of Mulliken charges =   0.00000

 Dipole moment (field-independent basis, Debye):
    X=              3.8294    Y=              6.4830    Z=              0.6285  Tot=              7.5556
 Quadrupole moment (field-independent basis, Debye-Ang):
   XX=           -331.3820   YY=           -384.5585   ZZ=           -397.0721
   XY=            -39.5238   XZ=              6.4946   YZ=              3.4182

 Normal termination of Gaussian 09 at Sat Aug  3 16:51:13 2019.
