 Gaussian 09, Revision D.01,
 Gaussian 09:  ES64L-G09RevD.01 24-Apr-2013

 --------------------------
 # td=(NStates=1) B3LYP/SVP
 --------------------------

 --
 TD
 --
 Symbolic Z-matrix:
 Charge =  0 Multiplicity = 1

                         Standard orientation:
 ---------------------------------------------------------------------
 Center     Atomic      Atomic             Coordinates (Angstroms)
 Number     Number       Type             X           Y           Z
 ---------------------------------------------------------------------
      1          6           0       -5.032077   -1.870212    0.411791
      2          6           0       -4.786878    2.755089    1.441772
      3          6           0       -9.347504    3.368916   -0.217215
      4          6           0       -9.861870   -1.452528   -0.972420
      5          7           0       -5.108119    0.474133    0.666971
      6          6           0       -4.412739   -0.739259    0.764165
      7          6           0       -2.985378   -0.488623    1.186460
      8          6           0       -3.067088    0.912257    1.919325
      9          6           0       -4.420713    1.401284    1.331676
     10          6           0       -3.103076    0.943480    3.405673
     11          6           0       -2.046042   -0.646000   -0.030605
     12          6           0       -0.603843   -0.845078    0.570899
     13          6           0        0.390160   -0.957467   -0.603319
     14          8           0        0.044824   -1.305356   -1.727965
     15          8           0        1.683035   -0.779303   -0.227595
     16          7           0       -7.042926    2.734068    0.500662
     17          6           0       -5.961546    3.365198    1.037995
     18          6           0       -6.272981    4.719929    1.061787
     19          6           0       -7.603076    4.918035    0.577580
     20          6           0       -8.017943    3.587119    0.235153
     21          6           0       -5.275133    5.746621    1.460650
     22          6           0       -8.428871    6.201223    0.411706
     23          6           0       -9.005276    6.609018   -0.671903
     24          7           0       -9.154856    0.818736   -0.492673
     25          6           0       -9.846954    2.054254   -0.421527
     26          6           0      -11.331858    1.794720   -0.835759
     27          6           0      -11.370013    0.535121   -1.250948
     28          6           0      -10.091271   -0.111941   -0.856286
     29          6           0      -12.277969    2.926255   -1.043956
     30          6           0      -12.575513   -0.255094   -1.723967
     31          6           0      -12.490686   -0.540237   -3.225580
     32          7           0       -7.475409   -1.312023   -0.344180
     33          6           0       -8.592648   -2.076599   -0.752582
     34          6           0       -8.094523   -3.435939   -0.850291
     35          6           0       -6.789438   -3.354442   -0.452416
     36          6           0       -6.372735   -2.069443   -0.080581
     37          6           0       -8.881637   -4.572566   -1.226509
     38          6           0       -5.668210   -4.275496    0.012833
     39          8           0       -5.625646   -5.467716   -0.214884
     40          6           0       -4.499153   -3.250420    0.373378
     41          6           0       -4.065033   -3.795048    1.783033
     42          8           0       -4.453351   -3.326906    2.878820
     43          8           0       -3.169891   -4.757261    1.620405
     44          6           0       -2.892286   -5.416574    2.871100
     45          6           0        2.710440   -0.833282   -1.135604
     46          6           0        4.009634   -0.693270   -0.348891
     47          6           0        5.035132    0.077207   -0.869878
     48          6           0        5.008245    0.939632   -2.180342
     49          6           0        6.220438    0.164756    0.025798
     50          6           0        7.527917   -0.456852   -0.697868
     51          6           0        8.861996   -0.168796    0.050118
     52          6           0       10.126348   -0.723040   -0.681962
     53          6           0        9.988023   -2.199119   -0.992098
     54          6           0       11.319233   -0.447203    0.132790
     55          6           0       12.689112   -0.725277   -0.444249
     56          6           0       13.836824   -0.221519    0.329797
     57          6           0       15.325773   -0.266876   -0.167831
     58          6           0       15.675011   -1.776134   -0.377860
     59          6           0       16.280048    0.589048    0.485374
     60          6           0       17.621159    0.665095   -0.211714
     61          6           0       18.668376    1.668859    0.467708
     62          6           0       20.080493    1.657632   -0.172648
     63          6           0       20.050296    2.332652   -1.590585
     64          6           0       21.033405    2.460336    0.786695
     65          1           0       -3.979618    3.551450    1.756630
     66          1           0       -9.945936    4.208007   -0.314452
     67          1           0      -10.521160   -2.056557   -1.508099
     68          1           0       -2.692532   -1.280972    2.027053
     69          1           0       -2.319586    1.491870    1.276885
     70          1           0       -1.984879    0.784950    3.841720
     71          1           0       -3.483165    1.896725    3.873207
     72          1           0       -4.075365    0.349373    3.730632
     73          1           0       -2.363642   -1.684386   -0.550392
     74          1           0       -2.268231    0.193064   -0.636582
     75          1           0       -0.306511    0.164736    1.053225
     76          1           0       -0.617575   -1.569346    1.300286
     77          1           0       -4.550948    5.629650    0.649849
     78          1           0       -5.872670    6.766011    1.688623
     79          1           0       -4.919936    5.260524    2.397474
     80          1           0       -8.094882    6.981218    1.143327
     81          1           0       -9.198313    5.793293   -1.322325
     82          1           0       -9.389684    7.646759   -0.933413
     83          1           0      -12.244097    3.708328   -0.236543
     84          1           0      -11.909831    3.430039   -1.977849
     85          1           0      -13.340763    2.633398   -1.049397
     86          1           0      -12.793105   -1.168716   -1.144306
     87          1           0      -13.475347    0.351297   -1.373203
     88          1           0      -12.666761    0.249417   -3.947993
     89          1           0      -11.451873   -0.919418   -3.356469
     90          1           0      -13.301822   -1.264163   -3.679181
     91          1           0       -9.850167   -4.875984   -0.612076
     92          1           0       -9.325260   -4.579955   -2.299543
     93          1           0       -8.458275   -5.571499   -1.136499
     94          1           0       -3.519726   -3.338043   -0.328108
     95          1           0       -1.983683   -6.083201    2.524684
     96          1           0       -2.401925   -4.538322    3.457973
     97          1           0       -3.748704   -5.810151    3.442297
     98          1           0        2.632972   -1.907137   -1.780467
     99          1           0        2.599812   -0.473392   -2.213190
    100          1           0        4.315017   -1.404699    0.456120
    101          1           0        5.617962    1.831573   -1.910881
    102          1           0        5.486076    0.393820   -3.061536
    103          1           0        3.882227    1.337306   -2.385604
    104          1           0        6.389671    1.228750    0.303231
    105          1           0        6.114630   -0.308403    1.057902
    106          1           0        7.364621   -1.449092   -0.821915
    107          1           0        7.628926    0.144378   -1.537993
    108          1           0        9.121689    0.864822    0.308161
    109          1           0        8.819357   -0.820434    1.041587
    110          1           0       10.145755   -0.344624   -1.589208
    111          1           0        9.191470   -2.464315   -1.523578
    112          1           0       10.867240   -2.587773   -1.598835
    113          1           0        9.894672   -2.835289   -0.019579
    114          1           0       11.270284    0.702085    0.279107
    115          1           0       11.170662   -0.928682    1.234294
    116          1           0       12.708667   -1.787177   -0.830512
    117          1           0       12.767187   -0.158791   -1.413454
    118          1           0       13.722090    0.875690    0.263561
    119          1           0       13.813222   -0.635431    1.287783
    120          1           0       15.323841    0.190034   -1.262159
    121          1           0       15.135787   -2.286557   -1.136107
    122          1           0       16.701051   -1.926397   -0.653832
    123          1           0       15.554802   -2.122976    0.691980
    124          1           0       15.748905    1.556486    0.499529
    125          1           0       16.598507    0.148870    1.497438
    126          1           0       18.148433   -0.368917   -0.336629
    127          1           0       17.452840    1.090780   -1.271518
    128          1           0       18.122686    2.733978    0.640531
    129          1           0       18.687048    1.248244    1.510152
    130          1           0       20.257628    0.673147   -0.326693
    131          1           0       19.634165    3.425840   -1.581249
    132          1           0       21.059119    2.486852   -1.952072
    133          1           0       19.264117    1.898831   -2.246480
    134          1           0       20.937718    1.898857    1.791658
    135          1           0       22.227930    2.415214    0.305610
    136          1           0       20.667984    3.582666    0.954426
    137          1           0       -7.133933    1.656608    0.336217
    138          1           0       -7.536082   -0.212606    0.003902
 ---------------------------------------------------------------------

 SCF Done:  E(RB3LYP) =  -2733.11494181     A.U. after   17 cycles

 Excitation energies and oscillator strengths:

 Excited State   1:      Singlet-A      2.0485 eV  605.25 nm  f=0.2290  <S**2>=0.000
     235 -> 237       -0.15330
     235 -> 238       -0.23212
     236 -> 237        0.64235
 This state for optimization and/or second-order correction.
 Total Energy, E(TD-HF/TD-KS) =  -2733.03966157
 Copying the excited state density for this state as the 1-particle RhoCI density.

 The electronic state is 1-A.
 Alpha  occ. eigenvalues --  -19.18857 -19.18694 -19.12878 -19.12348 -19.12259
 Alpha  occ. eigenvalues --  -14.37069 -14.36269 -14.32497 -14.30872 -10.32197
 Alpha  occ. eigenvalues --  -10.31709 -10.27906 -10.26004 -10.25750 -10.23357
 Alpha  occ. eigenvalues --  -10.23088 -10.23071 -10.22952 -10.22589 -10.22450
 Alpha  occ. eigenvalues --  -10.22235 -10.22207 -10.21510 -10.21270 -10.21208
 Alpha  occ. eigenvalues --  -10.21116 -10.21112 -10.21077 -10.20954 -10.20783
 Alpha  occ. eigenvalues --  -10.20769 -10.20755 -10.20728 -10.20645 -10.20228
 Alpha  occ. eigenvalues --  -10.20223 -10.20072 -10.20063 -10.19832 -10.19746
 Alpha  occ. eigenvalues --  -10.19577 -10.19565 -10.19504 -10.19477 -10.19461
 Alpha  occ. eigenvalues --  -10.19451 -10.19416 -10.19310 -10.19112 -10.19092
 Alpha  occ. eigenvalues --  -10.19029 -10.19002 -10.18842 -10.18831 -10.18533
 Alpha  occ. eigenvalues --  -10.18244 -10.18233 -10.18109 -10.18029 -10.17771
 Alpha  occ. eigenvalues --  -10.17435 -10.17372 -10.17280 -10.17192  -1.10266
 Alpha  occ. eigenvalues --   -1.10199  -1.02416  -1.00978  -0.99532  -0.99020
 Alpha  occ. eigenvalues --   -0.96516  -0.94118  -0.91948  -0.84389  -0.83089
 Alpha  occ. eigenvalues --   -0.82082  -0.81802  -0.81561  -0.81240  -0.80773
 Alpha  occ. eigenvalues --   -0.79607  -0.79356  -0.79313  -0.78934  -0.77737
 Alpha  occ. eigenvalues --   -0.77262  -0.76659  -0.75672  -0.74971  -0.74423
 Alpha  occ. eigenvalues --   -0.73335  -0.73224  -0.72471  -0.71546  -0.70707
 Alpha  occ. eigenvalues --   -0.69756  -0.68846  -0.68179  -0.67863  -0.67536
 Alpha  occ. eigenvalues --   -0.67270  -0.67021  -0.66015  -0.65872  -0.65088
 Alpha  occ. eigenvalues --   -0.63248  -0.62672  -0.61649  -0.61333  -0.60974
 Alpha  occ. eigenvalues --   -0.60227  -0.59151  -0.58213  -0.57874  -0.57752
 Alpha  occ. eigenvalues --   -0.56869  -0.56841  -0.56030  -0.55859  -0.55475
 Alpha  occ. eigenvalues --   -0.54600  -0.54546  -0.53682  -0.53552  -0.52849
 Alpha  occ. eigenvalues --   -0.52259  -0.51728  -0.51575  -0.50891  -0.49915
 Alpha  occ. eigenvalues --   -0.49263  -0.49112  -0.48891  -0.48813  -0.48723
 Alpha  occ. eigenvalues --   -0.48454  -0.47702  -0.47502  -0.47308  -0.47097
 Alpha  occ. eigenvalues --   -0.46841  -0.46653  -0.46149  -0.45956  -0.45774
 Alpha  occ. eigenvalues --   -0.45664  -0.45385  -0.44779  -0.44553  -0.44450
 Alpha  occ. eigenvalues --   -0.44328  -0.44106  -0.43974  -0.43659  -0.43464
 Alpha  occ. eigenvalues --   -0.43394  -0.43194  -0.42988  -0.42782  -0.42705
 Alpha  occ. eigenvalues --   -0.42534  -0.42267  -0.42139  -0.41824  -0.41589
 Alpha  occ. eigenvalues --   -0.41552  -0.40917  -0.40776  -0.40697  -0.40432
 Alpha  occ. eigenvalues --   -0.40130  -0.39930  -0.39721  -0.39421  -0.39293
 Alpha  occ. eigenvalues --   -0.38985  -0.38733  -0.38442  -0.38301  -0.38052
 Alpha  occ. eigenvalues --   -0.37743  -0.37722  -0.37641  -0.37426  -0.37314
 Alpha  occ. eigenvalues --   -0.37241  -0.36909  -0.36853  -0.36842  -0.36388
 Alpha  occ. eigenvalues --   -0.36355  -0.36260  -0.36147  -0.36097  -0.35935
 Alpha  occ. eigenvalues --   -0.35658  -0.35424  -0.35342  -0.34952  -0.34831
 Alpha  occ. eigenvalues --   -0.34544  -0.34449  -0.34337  -0.34221  -0.33610
 Alpha  occ. eigenvalues --   -0.33263  -0.33102  -0.32685  -0.32668  -0.32599
 Alpha  occ. eigenvalues --   -0.32517  -0.31960  -0.31889  -0.31292  -0.31195
 Alpha  occ. eigenvalues --   -0.31134  -0.30810  -0.30580  -0.30389  -0.29817
 Alpha  occ. eigenvalues --   -0.29562  -0.28938  -0.28591  -0.28037  -0.27944
 Alpha  occ. eigenvalues --   -0.27504  -0.27144  -0.26806  -0.26088  -0.25226
 Alpha  occ. eigenvalues --   -0.24348  -0.24138  -0.23808  -0.23509  -0.20043
 Alpha  occ. eigenvalues --   -0.18723
 Alpha virt. eigenvalues --   -0.10524  -0.06838  -0.04215  -0.01799  -0.01105
 Alpha virt. eigenvalues --   -0.00861  -0.00249   0.00771   0.01750   0.03622
 Alpha virt. eigenvalues --    0.04091   0.04123   0.04263   0.04581   0.04703

 Mulliken charges:
               1
     1  C    0.147091
     2  C   -0.108335
     3  C   -0.073350
     4  C   -0.054002
     5  N   -0.188939
     6  C   -0.107111
     7  C   -0.110813
     8  C    0.010271
     9  C   -0.066044
    10  C    0.050925
    11  C    0.059356
    12  C    0.053584
    13  C    0.200274
    14  O   -0.243389
    15  O   -0.257027
    16  N   -0.044385
    17  C    0.096011
    18  C   -0.168438
    19  C   -0.029566
    20  C    0.060276
    21  C    0.077233
    22  C   -0.015181
    23  C   -0.014482
    24  N   -0.290629
    25  C    0.105935
    26  C   -0.153387
    27  C   -0.097442
    28  C    0.118661
    29  C    0.089757
    30  C    0.069005
    31  C   -0.014163
    32  N   -0.146252
    33  C    0.056352
    34  C   -0.058834
    35  C   -0.008963
    36  C    0.050388
    37  C    0.002291
    38  C    0.114307
    39  O   -0.168060
    40  C   -0.146138
    41  C    0.191802
    42  O   -0.271503
    43  O   -0.269660
    44  C    0.144081
    45  C    0.152622
    46  C   -0.031075
    47  C   -0.155001
    48  C    0.017696
    49  C    0.028644
    50  C    0.092364
    51  C   -0.011356
    52  C    0.010202
    53  C    0.034805
    54  C   -0.010864
    55  C    0.049629
    56  C    0.090805
    57  C   -0.140911
    58  C    0.063611
    59  C    0.112917
    60  C   -0.073922
    61  C   -0.036173
    62  C    0.001767
    63  C    0.009679
    64  C   -0.049064
    65  H    0.009046
    66  H   -0.053560
    67  H   -0.033133
    68  H    0.020918
    69  H   -0.002214
    70  H    0.046473
    71  H    0.012587
    72  H    0.046629
    73  H    0.047237
    74  H    0.005425
    75  H    0.032377
    76  H    0.017417
    77  H    0.046784
    78  H    0.046855
    79  H    0.038211
    80  H   -0.001222
    81  H    0.017907
    82  H    0.050019
    83  H    0.019549
    84  H    0.038778
    85  H    0.017777
    86  H    0.011164
    87  H   -0.006005
    88  H    0.008599
    89  H    0.024880
    90  H    0.014110
    91  H    0.025401
    92  H    0.031950
    93  H    0.018450
    94  H    0.091501
    95  H    0.051143
    96  H    0.035458
    97  H    0.063365
    98  H    0.001930
    99  H    0.030402
   100  H    0.019159
   101  H    0.020102
   102  H    0.057621
   103  H    0.054825
   104  H    0.002324
   105  H    0.002001
   106  H   -0.009934
   107  H   -0.021806
   108  H   -0.005145
   109  H   -0.004349
   110  H   -0.065255
   111  H   -0.032840
   112  H    0.009530
   113  H    0.000232
   114  H   -0.010833
   115  H    0.007289
   116  H   -0.001905
   117  H   -0.024901
   118  H   -0.014910
   119  H   -0.023026
   120  H   -0.022793
   121  H    0.009598
   122  H   -0.016936
   123  H    0.001527
   124  H   -0.003785
   125  H   -0.008818
   126  H    0.021588
   127  H    0.001300
   128  H    0.009232
   129  H   -0.009954
   130  H   -0.029833
   131  H   -0.004185
   132  H    0.008922
   133  H    0.015041
   134  H    0.026436
   135  H    0.033910
   136  H    0.040767
   137  H    0.183977
   138  H    0.211739
 Sum of Mulliken charges =   0.00000

 Dipole moment (field-independent basis, Debye):
    X=              2.0678    Y=              5.0899    Z=              0.5492  Tot=              5.5213
 Quadrupole moment (field-independent basis, Debye-Ang):
   XX=           -362.4846   YY=           -381.9322   ZZ=           -396.2346
   XY=            -32.2977   XZ=              2.0511   YZ=             -5.2784

 Normal termination of Gaussian 09 at Fri Jul 26 22:05:22 2019.
