 Gaussian 09, Revision D.01,
 Gaussian 09:  ES64L-G09RevD.01 24-Apr-2013

 --------------------------
 # td=(NStates=1) B3LYP/SVP
 --------------------------

 --
 TD
 --
 Symbolic Z-matrix:
 Charge =  0 Multiplicity = 1

                         Standard orientation:
 ---------------------------------------------------------------------
 Center     Atomic      Atomic             Coordinates (Angstroms)
 Number     Number       Type             X           Y           Z
 ---------------------------------------------------------------------
      1          6           0       -5.115870   -1.937200    0.458429
      2          6           0       -4.842876    2.708833    1.539821
      3          6           0       -9.337683    3.275593   -0.193407
      4          6           0       -9.733159   -1.389646   -0.961751
      5          7           0       -5.255434    0.401524    0.844021
      6          6           0       -4.562135   -0.769935    0.938897
      7          6           0       -3.151637   -0.515413    1.363929
      8          6           0       -3.068581    0.861717    1.831876
      9          6           0       -4.429449    1.399164    1.402664
     10          6           0       -2.917889    1.022275    3.304470
     11          6           0       -2.068092   -0.719232    0.338661
     12          6           0       -0.592610   -0.630193    0.676468
     13          6           0        0.289827   -0.945479   -0.484433
     14          8           0        0.157217   -1.732300   -1.463765
     15          8           0        1.588727   -0.515716   -0.123668
     16          7           0       -7.091351    2.713081    0.547474
     17          6           0       -6.036632    3.382279    1.081026
     18          6           0       -6.383658    4.768993    1.117090
     19          6           0       -7.647608    4.901299    0.554239
     20          6           0       -8.065815    3.578509    0.227201
     21          6           0       -5.387648    5.878905    1.460785
     22          6           0       -8.302943    6.105340    0.317443
     23          6           0       -9.096701    6.512314   -0.772408
     24          7           0       -9.281563    0.865584   -0.487694
     25          6           0       -9.862431    2.008430   -0.558235
     26          6           0      -11.259724    1.756959   -0.989150
     27          6           0      -11.496598    0.467853   -1.323016
     28          6           0      -10.187988   -0.084823   -0.896435
     29          6           0      -12.361932    2.809779   -1.202184
     30          6           0      -12.592061   -0.394001   -1.817106
     31          6           0      -12.595097   -0.638677   -3.282414
     32          7           0       -7.545891   -1.198858   -0.240972
     33          6           0       -8.567045   -2.024043   -0.654611
     34          6           0       -8.114171   -3.388660   -0.617634
     35          6           0       -6.908581   -3.377496   -0.299562
     36          6           0       -6.488603   -2.026443   -0.030203
     37          6           0       -8.847111   -4.688775   -1.094861
     38          6           0       -5.672356   -4.282951   -0.008241
     39          8           0       -5.565637   -5.505452    0.069508
     40          6           0       -4.547216   -3.337414    0.416470
     41          6           0       -3.846734   -3.770493    1.643855
     42          8           0       -4.122800   -3.442050    2.804638
     43          8           0       -2.964349   -4.710889    1.365001
     44          6           0       -2.334425   -5.346610    2.419610
     45          6           0        2.683141   -0.755604   -1.163327
     46          6           0        3.970719   -0.478033   -0.470084
     47          6           0        4.938023    0.196177   -1.052780
     48          6           0        4.907305    0.759644   -2.446186
     49          6           0        6.293951    0.409617   -0.325071
     50          6           0        7.569275   -0.511017   -0.763702
     51          6           0        8.811456   -0.083071    0.068274
     52          6           0       10.104873   -0.758839   -0.596108
     53          6           0        9.992361   -2.222876   -0.643189
     54          6           0       11.341053   -0.192291    0.197777
     55          6           0       12.647495   -0.592108   -0.532223
     56          6           0       13.819453   -0.033911    0.207759
     57          6           0       15.245242   -0.292418   -0.332812
     58          6           0       15.617483   -1.839813   -0.177864
     59          6           0       16.274763    0.741727    0.275390
     60          6           0       17.692391    0.645861   -0.274280
     61          6           0       18.639403    1.656738    0.345436
     62          6           0       20.118778    1.621708   -0.029466
     63          6           0       20.190963    1.844322   -1.547533
     64          6           0       21.026774    2.614445    0.843266
     65          1           0       -4.180723    3.331870    2.274682
     66          1           0      -10.148932    4.211080   -0.166215
     67          1           0      -10.607966   -2.194864   -1.101692
     68          1           0       -2.924125   -1.109124    2.419986
     69          1           0       -2.167860    1.613058    1.433377
     70          1           0       -2.001750    0.508712    3.619458
     71          1           0       -2.825372    2.150098    3.715350
     72          1           0       -3.814716    0.556039    3.815283
     73          1           0       -2.203784   -1.778705   -0.258974
     74          1           0       -2.252704    0.004937   -0.608587
     75          1           0       -0.569333    0.465814    1.097680
     76          1           0       -0.262904   -1.352554    1.491194
     77          1           0       -4.425619    5.901813    0.878998
     78          1           0       -5.779749    6.924337    1.358803
     79          1           0       -5.067795    5.469661    2.240323
     80          1           0       -7.979491    6.981035    0.963293
     81          1           0       -9.387936    5.892652   -1.643513
     82          1           0       -9.390524    7.505525   -0.717698
     83          1           0      -12.556628    3.434547   -0.360230
     84          1           0      -12.280602    3.594144   -2.133505
     85          1           0      -13.264414    2.408100   -1.112598
     86          1           0      -12.658813   -1.315568   -1.040287
     87          1           0      -13.442263    0.205379   -1.581429
     88          1           0      -12.482368    0.309357   -3.791001
     89          1           0      -11.589375   -1.144976   -3.685367
     90          1           0      -13.640283   -1.090097   -3.823466
     91          1           0      -10.059833   -4.495502   -0.765447
     92          1           0       -8.769612   -4.842668   -2.188520
     93          1           0       -8.352785   -5.594529   -0.665445
     94          1           0       -3.962857   -3.259443   -0.483328
     95          1           0       -1.848679   -6.226704    2.113155
     96          1           0       -1.517865   -4.653772    3.082424
     97          1           0       -3.181461   -5.643923    3.151207
     98          1           0        2.543535   -1.825156   -1.434699
     99          1           0        2.280268   -0.119449   -2.018788
    100          1           0        3.978798   -0.858768    0.566616
    101          1           0        5.402460    1.754411   -2.629332
    102          1           0        5.479831    0.065389   -3.307018
    103          1           0        3.868395    0.585639   -2.658471
    104          1           0        6.612146    1.576571   -0.593906
    105          1           0        6.056434    0.201669    0.740824
    106          1           0        7.388082   -1.525753   -0.482213
    107          1           0        7.837786   -0.303256   -1.788857
    108          1           0        9.039981    1.061394    0.179506
    109          1           0        8.664956   -0.353566    1.047075
    110          1           0       10.187434   -0.317944   -1.514429
    111          1           0        9.337720   -2.682200   -1.386821
    112          1           0       11.034163   -2.636341   -1.121162
    113          1           0        9.736390   -2.726667    0.364620
    114          1           0       11.315826    0.932659    0.441564
    115          1           0       11.302074   -0.459028    1.319273
    116          1           0       12.599805   -1.687609   -0.605922
    117          1           0       12.636280   -0.177683   -1.512293
    118          1           0       13.829128    1.078678    0.209297
    119          1           0       13.893704   -0.305869    1.288927
    120          1           0       15.287005   -0.225751   -1.684802
    121          1           0       14.734912   -2.451546   -0.775481
    122          1           0       16.546528   -2.024043   -0.607803
    123          1           0       15.590327   -2.193772    1.021221
    124          1           0       15.805201    1.784754    0.195510
    125          1           0       16.243808    0.534009    1.185089
    126          1           0       18.017261   -0.449004   -0.118769
    127          1           0       17.760734    0.822166   -1.505144
    128          1           0       18.421390    2.817176    0.232226
    129          1           0       18.467482    1.657823    1.407480
    130          1           0       20.299961    0.576682    0.017309
    131          1           0       19.659293    2.842365   -1.987566
    132          1           0       21.417899    1.841817   -1.650367
    133          1           0       19.723711    0.941237   -2.239567
    134          1           0       21.203703    2.228416    2.013055
    135          1           0       22.156656    2.501018    0.277852
    136          1           0       20.691354    3.614994    0.591649
    137          1           0       -6.983094    1.708443    0.434243
    138          1           0       -7.505804   -0.193804   -0.234724
 ---------------------------------------------------------------------

 SCF Done:  E(RB3LYP) =  -2732.98746314     A.U. after   17 cycles

 Excitation energies and oscillator strengths:

 Excited State   1:      Singlet-A      2.0928 eV  592.44 nm  f=0.1601  <S**2>=0.000
     235 -> 237       -0.26290
     235 -> 238        0.27572
     236 -> 237        0.56949
     236 -> 238        0.16031
 This state for optimization and/or second-order correction.
 Total Energy, E(TD-HF/TD-KS) =  -2732.91055475
 Copying the excited state density for this state as the 1-particle RhoCI density.

 The electronic state is 1-A.
 Alpha  occ. eigenvalues --  -19.18846 -19.16378 -19.13696 -19.13384 -19.12437
 Alpha  occ. eigenvalues --  -14.37243 -14.37161 -14.32662 -14.29423 -10.32535
 Alpha  occ. eigenvalues --  -10.32098 -10.29567 -10.25555 -10.25150 -10.24046
 Alpha  occ. eigenvalues --  -10.23550 -10.23229 -10.23063 -10.23009 -10.22993
 Alpha  occ. eigenvalues --  -10.22418 -10.21739 -10.21513 -10.21452 -10.21419
 Alpha  occ. eigenvalues --  -10.21137 -10.21116 -10.21099 -10.21015 -10.20874
 Alpha  occ. eigenvalues --  -10.20811 -10.20792 -10.20699 -10.20520 -10.20485
 Alpha  occ. eigenvalues --  -10.20386 -10.20354 -10.20298 -10.20221 -10.20181
 Alpha  occ. eigenvalues --  -10.20066 -10.20054 -10.20022 -10.20013 -10.19993
 Alpha  occ. eigenvalues --  -10.19987 -10.19871 -10.19757 -10.19402 -10.19082
 Alpha  occ. eigenvalues --  -10.19054 -10.18959 -10.18924 -10.18899 -10.18713
 Alpha  occ. eigenvalues --  -10.18647 -10.18541 -10.18379 -10.18137 -10.18050
 Alpha  occ. eigenvalues --  -10.18039 -10.17969 -10.17835 -10.17487  -1.11524
 Alpha  occ. eigenvalues --   -1.05607  -1.03073  -1.00105  -0.99815  -0.99496
 Alpha  occ. eigenvalues --   -0.97529  -0.94914  -0.94189  -0.85336  -0.82917
 Alpha  occ. eigenvalues --   -0.82639  -0.82320  -0.82042  -0.81710  -0.81061
 Alpha  occ. eigenvalues --   -0.80950  -0.80139  -0.79311  -0.78934  -0.78531
 Alpha  occ. eigenvalues --   -0.76850  -0.76316  -0.75675  -0.74817  -0.74338
 Alpha  occ. eigenvalues --   -0.74024  -0.72878  -0.72139  -0.71405  -0.71035
 Alpha  occ. eigenvalues --   -0.70011  -0.69810  -0.69122  -0.67905  -0.67403
 Alpha  occ. eigenvalues --   -0.66658  -0.66356  -0.66154  -0.65322  -0.64700
 Alpha  occ. eigenvalues --   -0.64370  -0.63693  -0.62204  -0.61928  -0.61898
 Alpha  occ. eigenvalues --   -0.60716  -0.59645  -0.58637  -0.57683  -0.57272
 Alpha  occ. eigenvalues --   -0.57111  -0.56757  -0.56092  -0.55904  -0.55594
 Alpha  occ. eigenvalues --   -0.54631  -0.54616  -0.54286  -0.53513  -0.53111
 Alpha  occ. eigenvalues --   -0.52770  -0.52632  -0.51887  -0.51725  -0.50486
 Alpha  occ. eigenvalues --   -0.49632  -0.49348  -0.49041  -0.48559  -0.48453
 Alpha  occ. eigenvalues --   -0.48109  -0.47910  -0.47505  -0.47344  -0.46940
 Alpha  occ. eigenvalues --   -0.46699  -0.46514  -0.46085  -0.45835  -0.45573
 Alpha  occ. eigenvalues --   -0.45484  -0.45323  -0.45148  -0.45096  -0.44782
 Alpha  occ. eigenvalues --   -0.44429  -0.44388  -0.44006  -0.43926  -0.43504
 Alpha  occ. eigenvalues --   -0.43388  -0.43123  -0.43003  -0.42846  -0.42605
 Alpha  occ. eigenvalues --   -0.42392  -0.42205  -0.41736  -0.41360  -0.41120
 Alpha  occ. eigenvalues --   -0.40757  -0.40653  -0.40580  -0.40444  -0.40346
 Alpha  occ. eigenvalues --   -0.39925  -0.39833  -0.39692  -0.39504  -0.39160
 Alpha  occ. eigenvalues --   -0.38935  -0.38770  -0.38658  -0.38623  -0.38444
 Alpha  occ. eigenvalues --   -0.38372  -0.37928  -0.37802  -0.37499  -0.37196
 Alpha  occ. eigenvalues --   -0.37123  -0.36775  -0.36476  -0.36275  -0.36210
 Alpha  occ. eigenvalues --   -0.36153  -0.36021  -0.35761  -0.35453  -0.35439
 Alpha  occ. eigenvalues --   -0.35303  -0.35159  -0.35004  -0.34814  -0.34707
 Alpha  occ. eigenvalues --   -0.34602  -0.34422  -0.34402  -0.34054  -0.33752
 Alpha  occ. eigenvalues --   -0.33490  -0.33206  -0.33097  -0.32482  -0.32272
 Alpha  occ. eigenvalues --   -0.31951  -0.31684  -0.31634  -0.31403  -0.31323
 Alpha  occ. eigenvalues --   -0.30978  -0.30965  -0.30443  -0.30238  -0.29618
 Alpha  occ. eigenvalues --   -0.29185  -0.28963  -0.28712  -0.28497  -0.28261
 Alpha  occ. eigenvalues --   -0.28080  -0.27615  -0.27582  -0.26663  -0.26301
 Alpha  occ. eigenvalues --   -0.25867  -0.25036  -0.23459  -0.23413  -0.19577
 Alpha  occ. eigenvalues --   -0.18836
 Alpha virt. eigenvalues --   -0.09983  -0.07407  -0.04639  -0.02876  -0.02626
 Alpha virt. eigenvalues --   -0.01113  -0.00232   0.00251   0.01624   0.03294
 Alpha virt. eigenvalues --    0.03340   0.03858   0.03940   0.04281   0.04312

 Mulliken charges:
               1
     1  C   -0.064059
     2  C   -0.083999
     3  C   -0.170989
     4  C   -0.091341
     5  N   -0.240851
     6  C   -0.042062
     7  C    0.054607
     8  C   -0.114770
     9  C    0.018121
    10  C    0.012087
    11  C   -0.075492
    12  C    0.030398
    13  C    0.229296
    14  O   -0.269811
    15  O   -0.394147
    16  N   -0.004400
    17  C    0.037363
    18  C   -0.129530
    19  C    0.090156
    20  C    0.113093
    21  C    0.168851
    22  C   -0.140371
    23  C   -0.014115
    24  N   -0.176986
    25  C    0.031436
    26  C   -0.161609
    27  C   -0.074512
    28  C   -0.004031
    29  C    0.133032
    30  C    0.122233
    31  C   -0.028056
    32  N   -0.007743
    33  C    0.050345
    34  C   -0.198963
    35  C    0.053419
    36  C    0.041253
    37  C    0.026602
    38  C    0.101859
    39  O   -0.169097
    40  C    0.089950
    41  C    0.211189
    42  O   -0.249656
    43  O   -0.239863
    44  C    0.133282
    45  C    0.217725
    46  C   -0.057982
    47  C   -0.114472
    48  C    0.054853
    49  C    0.007334
    50  C    0.076269
    51  C    0.000518
    52  C    0.006396
    53  C    0.000572
    54  C   -0.055628
    55  C    0.123549
    56  C    0.047916
    57  C   -0.180913
    58  C   -0.025275
    59  C    0.141361
    60  C   -0.010693
    61  C    0.012715
    62  C   -0.025841
    63  C   -0.113436
    64  C   -0.031339
    65  H   -0.002215
    66  H    0.050238
    67  H   -0.000251
    68  H    0.042229
    69  H    0.040382
    70  H    0.013011
    71  H    0.031328
    72  H    0.035808
    73  H    0.033388
    74  H    0.028459
    75  H    0.045196
    76  H    0.060081
    77  H    0.018823
    78  H    0.029662
    79  H   -0.039119
    80  H    0.015081
    81  H    0.041341
    82  H    0.009623
    83  H   -0.019972
    84  H    0.038207
    85  H   -0.051614
    86  H    0.034253
    87  H   -0.024311
    88  H    0.005527
    89  H    0.028062
    90  H    0.039779
    91  H    0.046464
    92  H    0.044083
    93  H    0.050443
    94  H    0.053004
    95  H    0.025288
    96  H    0.040585
    97  H    0.044549
    98  H    0.041706
    99  H    0.053643
   100  H    0.004367
   101  H    0.035776
   102  H    0.036737
   103  H   -0.013710
   104  H    0.016430
   105  H   -0.000398
   106  H    0.006242
   107  H   -0.003803
   108  H   -0.001966
   109  H   -0.035222
   110  H   -0.036006
   111  H    0.012496
   112  H    0.010662
   113  H    0.026921
   114  H   -0.010304
   115  H   -0.013205
   116  H    0.004856
   117  H   -0.017292
   118  H   -0.013579
   119  H   -0.008239
   120  H   -0.009588
   121  H    0.034130
   122  H    0.010586
   123  H    0.019128
   124  H    0.004150
   125  H   -0.076926
   126  H    0.012931
   127  H    0.018168
   128  H   -0.017461
   129  H   -0.031853
   130  H   -0.023612
   131  H    0.030967
   132  H    0.024979
   133  H    0.047387
   134  H    0.059354
   135  H    0.023235
   136  H    0.029925
   137  H    0.134474
   138  H    0.130754
 Sum of Mulliken charges =   0.00000

 Dipole moment (field-independent basis, Debye):
    X=              2.4289    Y=              3.9760    Z=              0.1987  Tot=              4.6634
 Quadrupole moment (field-independent basis, Debye-Ang):
   XX=           -375.2877   YY=           -386.1175   ZZ=           -396.2380
   XY=            -26.1465   XZ=             19.5598   YZ=              1.6325

 Normal termination of Gaussian 09 at Thu Jul 25 01:16:59 2019.
