 Gaussian 09, Revision D.01,
 Gaussian 09:  ES64L-G09RevD.01 24-Apr-2013

 --------------------------
 # td=(NStates=1) B3LYP/SVP
 --------------------------

 --
 TD
 --
 Symbolic Z-matrix:
 Charge =  0 Multiplicity = 1

                         Standard orientation:
 ---------------------------------------------------------------------
 Center     Atomic      Atomic             Coordinates (Angstroms)
 Number     Number       Type             X           Y           Z
 ---------------------------------------------------------------------
      1          6           0       -5.099583   -1.909150    0.409143
      2          6           0       -4.807043    2.781784    1.239233
      3          6           0       -9.469092    3.337853   -0.132184
      4          6           0       -9.900403   -1.534982   -0.765757
      5          7           0       -5.175825    0.439054    0.742931
      6          6           0       -4.535627   -0.806914    0.785019
      7          6           0       -3.072867   -0.573535    1.182369
      8          6           0       -3.028499    0.904849    1.746207
      9          6           0       -4.354731    1.439812    1.281146
     10          6           0       -2.847482    0.971561    3.168293
     11          6           0       -2.089227   -0.972195    0.158230
     12          6           0       -0.557182   -0.752330    0.500313
     13          6           0        0.365384   -0.964025   -0.683158
     14          8           0        0.202945   -1.687816   -1.579311
     15          8           0        1.598648   -0.314766   -0.384064
     16          7           0       -7.087963    2.648774    0.462823
     17          6           0       -6.005049    3.328547    0.906272
     18          6           0       -6.393881    4.754619    0.965390
     19          6           0       -7.558848    4.839974    0.430069
     20          6           0       -8.081617    3.642594    0.060407
     21          6           0       -5.370797    5.745690    1.356952
     22          6           0       -8.335559    6.164074    0.420434
     23          6           0       -9.210949    6.532832   -0.464821
     24          7           0       -9.229942    0.831111   -0.315510
     25          6           0      -10.011763    2.003188   -0.455588
     26          6           0      -11.336148    1.750240   -0.853014
     27          6           0      -11.504591    0.368646   -0.971648
     28          6           0      -10.194852   -0.151638   -0.656697
     29          6           0      -12.330526    2.844553   -1.147701
     30          6           0      -12.762331   -0.365019   -1.471977
     31          6           0      -12.695105   -0.462271   -2.993020
     32          7           0       -7.564451   -1.307426   -0.044308
     33          6           0       -8.635393   -2.120289   -0.475061
     34          6           0       -8.159291   -3.526130   -0.663753
     35          6           0       -6.845431   -3.409366   -0.125527
     36          6           0       -6.488883   -2.154787    0.194732
     37          6           0       -9.059683   -4.640927   -0.908822
     38          6           0       -5.719637   -4.257872    0.111618
     39          8           0       -5.503016   -5.459708   -0.066883
     40          6           0       -4.489022   -3.309167    0.452401
     41          6           0       -3.892037   -3.759223    1.729300
     42          8           0       -4.243052   -3.317847    2.773809
     43          8           0       -2.872943   -4.711290    1.509302
     44          6           0       -2.375438   -5.319963    2.721385
     45          6           0        2.620159   -0.647416   -1.265455
     46          6           0        3.976086   -0.424318   -0.749019
     47          6           0        4.925133    0.324415   -1.209788
     48          6           0        4.859026    1.064656   -2.504424
     49          6           0        6.298882    0.473355   -0.474490
     50          6           0        7.587732   -0.167715   -1.142780
     51          6           0        8.812601   -0.080772   -0.305502
     52          6           0       10.254263   -0.652996   -0.956147
     53          6           0       10.109057   -2.111448   -1.260608
     54          6           0       11.366850   -0.227662   -0.144762
     55          6           0       12.690210   -0.722537   -0.675634
     56          6           0       13.919492   -0.194142    0.201489
     57          6           0       15.226415   -0.262787   -0.480582
     58          6           0       15.660437   -1.776298   -0.635407
     59          6           0       16.250999    0.456779    0.441370
     60          6           0       17.749879    0.574008    0.033887
     61          6           0       18.716064    1.451152    0.977758
     62          6           0       20.055894    1.591188    0.371956
     63          6           0       20.248587    2.184566   -0.937092
     64          6           0       21.057324    2.292785    1.351190
     65          1           0       -4.048364    3.431143    1.800796
     66          1           0      -10.097215    4.212963   -0.499529
     67          1           0      -10.699284   -2.299309   -1.210752
     68          1           0       -2.828934   -1.209748    1.949692
     69          1           0       -2.320542    1.533318    1.224660
     70          1           0       -1.935367    0.526890    3.649873
     71          1           0       -3.162912    2.098117    3.474827
     72          1           0       -3.703171    0.439618    3.401311
     73          1           0       -2.336051   -2.007959   -0.365168
     74          1           0       -2.151581   -0.273506   -0.726972
     75          1           0       -0.422068    0.579257    0.759820
     76          1           0       -0.128402   -1.331902    1.508901
     77          1           0       -4.389697    5.533610    0.789919
     78          1           0       -5.705850    6.704237    1.021402
     79          1           0       -5.296453    5.743431    2.549250
     80          1           0       -8.287301    6.824691    1.186361
     81          1           0       -9.599461    6.079238   -1.449910
     82          1           0       -9.425235    7.657012   -0.468710
     83          1           0      -12.673571    3.565752   -0.251199
     84          1           0      -12.113163    3.350371   -1.913040
     85          1           0      -13.302475    2.327980   -1.397759
     86          1           0      -12.815659   -1.311776   -1.076739
     87          1           0      -13.595765   -0.005671   -1.023553
     88          1           0      -12.681178    0.500634   -3.519454
     89          1           0      -11.670512   -0.920008   -3.264935
     90          1           0      -13.368340   -1.270746   -3.438320
     91          1           0       -9.817983   -4.477406   -0.380412
     92          1           0       -9.275823   -4.800921   -1.995839
     93          1           0       -8.509584   -5.601681   -0.732162
     94          1           0       -3.847508   -3.539594   -0.408441
     95          1           0       -1.847532   -6.157266    2.285078
     96          1           0       -1.977717   -4.659060    3.521694
     97          1           0       -3.050734   -5.652176    3.534951
     98          1           0        2.527613   -1.875511   -1.676432
     99          1           0        2.503391   -0.144014   -2.199687
    100          1           0        4.096939   -0.820514    0.393706
    101          1           0        5.344881    1.954834   -2.487565
    102          1           0        5.621019    0.569143   -3.121542
    103          1           0        3.870451    1.081401   -2.854509
    104          1           0        6.423031    1.532681   -0.478167
    105          1           0        6.217510    0.317100    0.548875
    106          1           0        7.252909   -1.105499   -1.472807
    107          1           0        7.913933    0.249822   -2.137560
    108          1           0        9.132423    0.874825    0.008987
    109          1           0        8.741260   -0.679439    0.761647
    110          1           0       10.341414   -0.109079   -1.939392
    111          1           0        9.246873   -2.254903   -2.119844
    112          1           0       10.752967   -2.473998   -2.019432
    113          1           0        9.893738   -2.913701   -0.404591
    114          1           0       11.338298    0.880535    0.038110
    115          1           0       11.214297   -0.671471    0.813866
    116          1           0       12.623267   -1.719440   -0.556363
    117          1           0       12.683724   -0.508584   -1.741863
    118          1           0       13.768792    0.946913    0.431062
    119          1           0       13.746868   -0.536011    1.135905
    120          1           0       15.118020    0.353702   -1.442350
    121          1           0       14.894159   -2.580956   -0.979318
    122          1           0       16.558724   -1.686990   -1.295700
    123          1           0       15.877685   -2.388628    0.384242
    124          1           0       15.860081    1.623215    0.618624
    125          1           0       16.478044   -0.089201    1.331970
    126          1           0       18.206796   -0.417130   -0.022016
    127          1           0       17.873750    1.210197   -0.986676
    128          1           0       18.220244    2.388424    1.016280
    129          1           0       18.817174    0.980266    2.007799
    130          1           0       20.537767    0.782135    0.483560
    131          1           0       19.802357    3.193994   -1.075397
    132          1           0       21.305224    2.049670   -1.179511
    133          1           0       19.858188    1.813471   -1.816484
    134          1           0       21.136608    1.769211    2.358086
    135          1           0       22.118793    2.503402    0.980314
    136          1           0       20.565828    3.326358    1.745542
    137          1           0       -7.012801    1.536389    0.283046
    138          1           0       -7.631646   -0.296395    0.068707
 ---------------------------------------------------------------------

 SCF Done:  E(RB3LYP) =  -2732.97891514     A.U. after   17 cycles

 Excitation energies and oscillator strengths:

 Excited State   1:      Singlet-A      2.1376 eV  580.03 nm  f=0.1103  <S**2>=0.000
     235 -> 237        0.43358
     235 -> 238       -0.23089
     236 -> 237       -0.41977
     236 -> 238       -0.28163
 This state for optimization and/or second-order correction.
 Total Energy, E(TD-HF/TD-KS) =  -2732.90036124
 Copying the excited state density for this state as the 1-particle RhoCI density.

 The electronic state is 1-A.
 Alpha  occ. eigenvalues --  -19.17631 -19.17018 -19.14280 -19.13176 -19.11680
 Alpha  occ. eigenvalues --  -14.36911 -14.36722 -14.32334 -14.30432 -10.32016
 Alpha  occ. eigenvalues --  -10.31413 -10.27334 -10.24351 -10.24047 -10.23884
 Alpha  occ. eigenvalues --  -10.23876 -10.23839 -10.23655 -10.23505 -10.23332
 Alpha  occ. eigenvalues --  -10.22257 -10.22115 -10.22036 -10.21660 -10.21617
 Alpha  occ. eigenvalues --  -10.21215 -10.20903 -10.20829 -10.20475 -10.20228
 Alpha  occ. eigenvalues --  -10.20129 -10.20089 -10.19924 -10.19737 -10.19628
 Alpha  occ. eigenvalues --  -10.19516 -10.19504 -10.19501 -10.19428 -10.19394
 Alpha  occ. eigenvalues --  -10.19097 -10.19095 -10.19058 -10.19046 -10.19041
 Alpha  occ. eigenvalues --  -10.19020 -10.18934 -10.18929 -10.18928 -10.18839
 Alpha  occ. eigenvalues --  -10.18796 -10.18594 -10.18555 -10.18549 -10.18463
 Alpha  occ. eigenvalues --  -10.18053 -10.18032 -10.17941 -10.17433 -10.17314
 Alpha  occ. eigenvalues --  -10.16825 -10.16792 -10.16715 -10.16615  -1.10127
 Alpha  occ. eigenvalues --   -1.08372  -1.02670  -1.01281  -1.01185  -0.97384
 Alpha  occ. eigenvalues --   -0.97199  -0.92809  -0.91672  -0.85564  -0.83118
 Alpha  occ. eigenvalues --   -0.82579  -0.82156  -0.81861  -0.81629  -0.81204
 Alpha  occ. eigenvalues --   -0.80107  -0.80073  -0.79582  -0.79228  -0.77849
 Alpha  occ. eigenvalues --   -0.77192  -0.76639  -0.75699  -0.75211  -0.74283
 Alpha  occ. eigenvalues --   -0.74043  -0.73335  -0.72733  -0.71603  -0.71362
 Alpha  occ. eigenvalues --   -0.70539  -0.69327  -0.69057  -0.68176  -0.68043
 Alpha  occ. eigenvalues --   -0.67744  -0.66908  -0.65894  -0.65681  -0.64989
 Alpha  occ. eigenvalues --   -0.64405  -0.63001  -0.62812  -0.62435  -0.61620
 Alpha  occ. eigenvalues --   -0.60558  -0.59383  -0.58876  -0.57870  -0.57576
 Alpha  occ. eigenvalues --   -0.57519  -0.56550  -0.55896  -0.55348  -0.55252
 Alpha  occ. eigenvalues --   -0.55214  -0.55143  -0.54272  -0.54247  -0.52594
 Alpha  occ. eigenvalues --   -0.52296  -0.52106  -0.51466  -0.50905  -0.50576
 Alpha  occ. eigenvalues --   -0.49521  -0.49263  -0.48781  -0.48609  -0.48376
 Alpha  occ. eigenvalues --   -0.48191  -0.47960  -0.47631  -0.47309  -0.47065
 Alpha  occ. eigenvalues --   -0.46864  -0.46688  -0.46247  -0.46168  -0.45702
 Alpha  occ. eigenvalues --   -0.45356  -0.45241  -0.45042  -0.44850  -0.44752
 Alpha  occ. eigenvalues --   -0.44562  -0.44431  -0.44318  -0.44013  -0.43854
 Alpha  occ. eigenvalues --   -0.43590  -0.43495  -0.43038  -0.42910  -0.42727
 Alpha  occ. eigenvalues --   -0.42389  -0.42186  -0.42004  -0.41649  -0.41552
 Alpha  occ. eigenvalues --   -0.41446  -0.41352  -0.41177  -0.40700  -0.40606
 Alpha  occ. eigenvalues --   -0.40317  -0.40223  -0.40187  -0.39909  -0.39436
 Alpha  occ. eigenvalues --   -0.39174  -0.38898  -0.38573  -0.38443  -0.38201
 Alpha  occ. eigenvalues --   -0.38144  -0.38048  -0.37867  -0.37778  -0.37698
 Alpha  occ. eigenvalues --   -0.37341  -0.37180  -0.37060  -0.36821  -0.36523
 Alpha  occ. eigenvalues --   -0.36303  -0.36154  -0.36114  -0.35962  -0.35705
 Alpha  occ. eigenvalues --   -0.35551  -0.35512  -0.35227  -0.35160  -0.34807
 Alpha  occ. eigenvalues --   -0.34718  -0.34472  -0.34338  -0.34027  -0.33537
 Alpha  occ. eigenvalues --   -0.33361  -0.33278  -0.33125  -0.32796  -0.32632
 Alpha  occ. eigenvalues --   -0.32222  -0.31873  -0.31311  -0.31154  -0.30854
 Alpha  occ. eigenvalues --   -0.30766  -0.30556  -0.30459  -0.30040  -0.29843
 Alpha  occ. eigenvalues --   -0.29273  -0.29217  -0.28489  -0.28255  -0.27885
 Alpha  occ. eigenvalues --   -0.27709  -0.27645  -0.27104  -0.26644  -0.25969
 Alpha  occ. eigenvalues --   -0.25456  -0.24497  -0.24174  -0.22500  -0.20039
 Alpha  occ. eigenvalues --   -0.19642
 Alpha virt. eigenvalues --   -0.10595  -0.08112  -0.04339  -0.01597  -0.01214
 Alpha virt. eigenvalues --   -0.00685   0.00082   0.01853   0.02049   0.02757
 Alpha virt. eigenvalues --    0.04141   0.04310   0.04543   0.04647   0.05161

 Mulliken charges:
               1
     1  C    0.012584
     2  C   -0.083263
     3  C   -0.060838
     4  C   -0.109846
     5  N   -0.263099
     6  C   -0.044238
     7  C    0.098066
     8  C    0.041767
     9  C   -0.083200
    10  C    0.084375
    11  C    0.010102
    12  C   -0.129442
    13  C    0.221344
    14  O   -0.156966
    15  O   -0.332602
    16  N   -0.168214
    17  C    0.124005
    18  C   -0.136169
    19  C    0.059540
    20  C    0.109040
    21  C    0.087501
    22  C    0.020511
    23  C   -0.088845
    24  N   -0.307033
    25  C    0.049116
    26  C   -0.130761
    27  C   -0.146880
    28  C    0.102488
    29  C    0.144829
    30  C    0.210221
    31  C   -0.006713
    32  N   -0.079540
    33  C    0.035861
    34  C   -0.129393
    35  C    0.018016
    36  C    0.109725
    37  C    0.191898
    38  C    0.014680
    39  O   -0.193172
    40  C   -0.046101
    41  C    0.227789
    42  O   -0.193720
    43  O   -0.332954
    44  C    0.198082
    45  C    0.217268
    46  C   -0.098559
    47  C   -0.195683
    48  C    0.204271
    49  C    0.128702
    50  C    0.077402
    51  C    0.010066
    52  C   -0.105487
    53  C    0.009668
    54  C    0.046632
    55  C    0.108178
    56  C    0.050021
    57  C    0.004745
    58  C   -0.048949
    59  C    0.014829
    60  C   -0.055107
    61  C    0.051581
    62  C    0.041793
    63  C    0.085271
    64  C   -0.068675
    65  H   -0.009801
    66  H    0.009503
    67  H    0.024698
    68  H   -0.042757
    69  H   -0.013505
    70  H    0.040267
    71  H    0.018012
    72  H   -0.003244
    73  H    0.053169
    74  H    0.000590
    75  H    0.062658
    76  H    0.079340
    77  H    0.050889
    78  H    0.002100
    79  H    0.048595
    80  H   -0.020973
    81  H    0.044310
    82  H    0.028597
    83  H    0.035976
    84  H   -0.035448
    85  H   -0.001444
    86  H   -0.050098
    87  H   -0.028092
    88  H    0.019422
    89  H    0.009065
    90  H    0.018595
    91  H   -0.018688
    92  H    0.022940
    93  H    0.036739
    94  H    0.057346
    95  H    0.046136
    96  H    0.010173
    97  H    0.009101
    98  H    0.035693
    99  H   -0.022674
   100  H    0.002130
   101  H   -0.036096
   102  H   -0.001176
   103  H    0.003968
   104  H   -0.024722
   105  H   -0.031150
   106  H   -0.006474
   107  H   -0.010286
   108  H   -0.024299
   109  H   -0.001840
   110  H   -0.015569
   111  H   -0.006267
   112  H   -0.008685
   113  H    0.039383
   114  H   -0.007584
   115  H   -0.035082
   116  H   -0.030941
   117  H   -0.020412
   118  H   -0.021641
   119  H   -0.049129
   120  H    0.008907
   121  H    0.025461
   122  H    0.033512
   123  H    0.018574
   124  H    0.014349
   125  H   -0.010440
   126  H    0.001981
   127  H    0.002570
   128  H   -0.022641
   129  H   -0.001653
   130  H   -0.072884
   131  H   -0.003458
   132  H   -0.005073
   133  H   -0.025369
   134  H    0.005734
   135  H    0.026670
   136  H   -0.000917
   137  H    0.212279
   138  H    0.134569
 Sum of Mulliken charges =   0.00000

 Dipole moment (field-independent basis, Debye):
    X=              0.2119    Y=              4.3765    Z=             -0.2099  Tot=              4.3867
 Quadrupole moment (field-independent basis, Debye-Ang):
   XX=           -337.5287   YY=           -383.0290   ZZ=           -390.4063
   XY=            -29.2369   XZ=              8.6076   YZ=             -4.4111

 Normal termination of Gaussian 09 at Mon Jul 29 12:47:03 2019.
