 Gaussian 09, Revision D.01,
 Gaussian 09:  ES64L-G09RevD.01 24-Apr-2013

 --------------------------
 # td=(NStates=1) B3LYP/SVP
 --------------------------

 --
 TD
 --
 Symbolic Z-matrix:
 Charge =  0 Multiplicity = 1

                         Standard orientation:
 ---------------------------------------------------------------------
 Center     Atomic      Atomic             Coordinates (Angstroms)
 Number     Number       Type             X           Y           Z
 ---------------------------------------------------------------------
      1          6           0       -5.103743   -1.947338    0.421574
      2          6           0       -4.782975    2.770402    1.291177
      3          6           0       -9.386357    3.268783   -0.209238
      4          6           0       -9.769707   -1.512478   -0.835323
      5          7           0       -5.189138    0.465289    0.845991
      6          6           0       -4.521563   -0.753331    0.863937
      7          6           0       -3.065463   -0.492557    1.265668
      8          6           0       -3.119172    0.951171    1.824028
      9          6           0       -4.433447    1.386291    1.274470
     10          6           0       -2.920982    0.962459    3.316011
     11          6           0       -2.024160   -0.715206    0.137016
     12          6           0       -0.626674   -0.698212    0.563362
     13          6           0        0.321887   -0.847827   -0.524042
     14          8           0        0.028240   -1.429411   -1.597143
     15          8           0        1.591440   -0.575889   -0.143940
     16          7           0       -7.029444    2.730743    0.418766
     17          6           0       -5.963567    3.452495    0.963578
     18          6           0       -6.291327    4.802880    1.033241
     19          6           0       -7.562435    4.925765    0.439371
     20          6           0       -8.065401    3.566081    0.150258
     21          6           0       -5.323866    5.813819    1.292521
     22          6           0       -8.244440    6.269372    0.192296
     23          6           0       -9.196051    6.457089   -0.648172
     24          7           0       -9.265764    0.849272   -0.470109
     25          6           0       -9.892932    1.964046   -0.499532
     26          6           0      -11.350987    1.789807   -0.813391
     27          6           0      -11.567683    0.449547   -1.093507
     28          6           0      -10.193948   -0.192992   -0.770115
     29          6           0      -12.365561    2.917371   -1.007827
     30          6           0      -12.904110   -0.272078   -1.561278
     31          6           0      -12.784940   -0.602245   -3.025895
     32          7           0       -7.459135   -1.319062   -0.142145
     33          6           0       -8.563213   -2.126347   -0.490207
     34          6           0       -8.191215   -3.475144   -0.521779
     35          6           0       -6.815982   -3.454081   -0.290550
     36          6           0       -6.412988   -2.068166   -0.125223
     37          6           0       -9.086521   -4.690768   -0.866007
     38          6           0       -5.600386   -4.254289   -0.007948
     39          8           0       -5.522608   -5.448964    0.055476
     40          6           0       -4.411898   -3.281604    0.326227
     41          6           0       -3.748193   -3.815735    1.697574
     42          8           0       -4.093371   -3.452888    2.820514
     43          8           0       -2.914041   -4.744789    1.393177
     44          6           0       -2.379270   -5.449296    2.657564
     45          6           0        2.675888   -1.050728   -1.163581
     46          6           0        3.972757   -0.724371   -0.576033
     47          6           0        4.952855    0.020859   -1.008403
     48          6           0        4.875745    0.774167   -2.373287
     49          6           0        6.217335    0.295071   -0.211953
     50          6           0        7.550168   -0.276692   -0.903961
     51          6           0        8.764709   -0.111364   -0.150602
     52          6           0       10.087287   -0.610465   -0.959626
     53          6           0       10.228756   -2.144806   -1.111286
     54          6           0       11.316710   -0.155588   -0.138934
     55          6           0       12.659726   -0.365116   -0.762612
     56          6           0       13.862057    0.111150    0.060177
     57          6           0       15.311770   -0.127665   -0.494385
     58          6           0       15.698693   -1.463300   -0.758393
     59          6           0       16.342293    0.505533    0.451696
     60          6           0       17.743360    0.576092   -0.026280
     61          6           0       18.737374    1.358882    0.674370
     62          6           0       20.095705    1.490228    0.401128
     63          6           0       20.312243    1.878756   -1.221774
     64          6           0       20.837216    2.456166    1.262664
     65          1           0       -4.056564    3.442527    1.742751
     66          1           0      -10.031594    4.042886   -0.330800
     67          1           0      -10.673470   -2.181552   -1.174100
     68          1           0       -2.724470   -1.238843    2.004943
     69          1           0       -2.115782    1.391224    1.516787
     70          1           0       -1.876971    0.480642    3.642600
     71          1           0       -2.793260    2.020686    3.698910
     72          1           0       -3.785909    0.321430    3.692245
     73          1           0       -2.145809   -1.702840   -0.321394
     74          1           0       -2.269346    0.077773   -0.584394
     75          1           0       -0.582929    0.400325    1.055408
     76          1           0       -0.360508   -1.377687    1.464340
     77          1           0       -4.910221    6.337421    0.151017
     78          1           0       -6.024992    6.827137    1.927617
     79          1           0       -4.257464    5.567351    2.029392
     80          1           0       -8.041649    7.077667    0.869103
     81          1           0       -9.692336    5.760509   -1.308307
     82          1           0       -9.670463    7.391316   -0.591155
     83          1           0      -12.455964    3.844700   -0.315299
     84          1           0      -11.943901    3.508233   -1.909292
     85          1           0      -13.447732    2.592740   -1.001638
     86          1           0      -13.182070   -1.189205   -0.956537
     87          1           0      -13.895400    0.380433   -1.230429
     88          1           0      -13.076648    0.376941   -3.716851
     89          1           0      -11.917517   -1.083115   -3.490502
     90          1           0      -13.696043   -1.187938   -3.260335
     91          1           0      -10.118532   -4.826074   -0.397183
     92          1           0       -9.291717   -4.770093   -1.993673
     93          1           0       -8.545918   -5.569204   -0.718710
     94          1           0       -3.668597   -3.401179   -0.483585
     95          1           0       -1.461210   -6.002727    2.269468
     96          1           0       -2.013121   -4.699947    3.395248
     97          1           0       -3.342431   -6.160873    2.823202
     98          1           0        2.593618   -2.161229   -1.174709
     99          1           0        2.408497   -0.675836   -2.098688
    100          1           0        4.296912   -1.322563    0.362292
    101          1           0        5.297838    1.771061   -2.299966
    102          1           0        5.587158    0.428186   -3.042098
    103          1           0        3.899180    0.687989   -3.031743
    104          1           0        6.398975    1.476572   -0.576993
    105          1           0        6.118780    0.170460    0.870692
    106          1           0        7.030235   -1.228562   -1.164739
    107          1           0        7.700763    0.236381   -1.965641
    108          1           0        8.878762    1.007127    0.182008
    109          1           0        8.775327   -0.651954    0.686018
    110          1           0       10.213053    0.115057   -1.953557
    111          1           0        9.167331   -2.667411   -1.650182
    112          1           0       10.765181   -2.545124   -1.825640
    113          1           0       10.258812   -2.449555   -0.092237
    114          1           0       11.299809    0.841249   -0.141154
    115          1           0       11.186608   -0.831011    0.891290
    116          1           0       12.573036   -1.221326   -0.952569
    117          1           0       12.539233    0.481495   -1.613403
    118          1           0       13.556879    1.328673    0.327778
    119          1           0       13.793788   -0.322939    1.123012
    120          1           0       15.322332    0.341656   -1.435906
    121          1           0       14.927715   -2.079340   -1.280605
    122          1           0       16.532727   -1.594353   -1.471038
    123          1           0       15.808252   -2.024535    0.197964
    124          1           0       15.977426    1.491724    0.691225
    125          1           0       16.508955    0.003027    1.576328
    126          1           0       18.270096   -0.412978   -0.002686
    127          1           0       17.727500    0.831136   -1.091984
    128          1           0       18.429135    2.433371    0.812093
    129          1           0       18.597040    1.111947    1.768879
    130          1           0       20.447427    0.404532    0.541609
    131          1           0       19.922902    2.758106   -1.267971
    132          1           0       21.272629    1.944983   -1.472786
    133          1           0       19.827698    0.954866   -1.603837
    134          1           0       20.817871    2.354445    2.523225
    135          1           0       22.000209    2.470764    1.188912
    136          1           0       20.400110    3.499504    1.153701
    137          1           0       -6.950108    1.843873    0.592991
    138          1           0       -7.582330   -0.325255   -0.023477
 ---------------------------------------------------------------------

 SCF Done:  E(RB3LYP) =  -2732.92171047     A.U. after   17 cycles

 Excitation energies and oscillator strengths:

 Excited State   1:      Singlet-A      2.1227 eV  584.09 nm  f=0.1544  <S**2>=0.000
     235 -> 238       -0.31016
     236 -> 237        0.63261
 This state for optimization and/or second-order correction.
 Total Energy, E(TD-HF/TD-KS) =  -2732.84370296
 Copying the excited state density for this state as the 1-particle RhoCI density.

 The electronic state is 1-A.
 Alpha  occ. eigenvalues --  -19.18662 -19.17308 -19.11628 -19.11412 -19.11185
 Alpha  occ. eigenvalues --  -14.36883 -14.35563 -14.32034 -14.29775 -10.31205
 Alpha  occ. eigenvalues --  -10.31046 -10.27050 -10.26900 -10.25233 -10.25120
 Alpha  occ. eigenvalues --  -10.24285 -10.23218 -10.22728 -10.22706 -10.22697
 Alpha  occ. eigenvalues --  -10.22531 -10.21951 -10.21686 -10.21356 -10.21279
 Alpha  occ. eigenvalues --  -10.21229 -10.21160 -10.21099 -10.20953 -10.20871
 Alpha  occ. eigenvalues --  -10.20813 -10.20580 -10.20555 -10.20393 -10.20289
 Alpha  occ. eigenvalues --  -10.20256 -10.20059 -10.20038 -10.19997 -10.19934
 Alpha  occ. eigenvalues --  -10.19802 -10.19761 -10.19725 -10.19458 -10.19416
 Alpha  occ. eigenvalues --  -10.19290 -10.19281 -10.19209 -10.19121 -10.19091
 Alpha  occ. eigenvalues --  -10.19089 -10.18940 -10.18873 -10.18761 -10.18628
 Alpha  occ. eigenvalues --  -10.18494 -10.18468 -10.18452 -10.18139 -10.17677
 Alpha  occ. eigenvalues --  -10.17525 -10.17212 -10.16952 -10.16361  -1.09893
 Alpha  occ. eigenvalues --   -1.06708  -1.02658  -0.99559  -0.99084  -0.98802
 Alpha  occ. eigenvalues --   -0.97665  -0.95968  -0.93146  -0.83843  -0.83797
 Alpha  occ. eigenvalues --   -0.83200  -0.82661  -0.82532  -0.81872  -0.81163
 Alpha  occ. eigenvalues --   -0.80920  -0.80271  -0.78670  -0.78439  -0.78118
 Alpha  occ. eigenvalues --   -0.77673  -0.77283  -0.75572  -0.75051  -0.74504
 Alpha  occ. eigenvalues --   -0.74105  -0.73004  -0.72760  -0.72470  -0.70114
 Alpha  occ. eigenvalues --   -0.69758  -0.68978  -0.68752  -0.68708  -0.68246
 Alpha  occ. eigenvalues --   -0.67551  -0.67002  -0.66790  -0.65840  -0.65491
 Alpha  occ. eigenvalues --   -0.63472  -0.62931  -0.62686  -0.62105  -0.61716
 Alpha  occ. eigenvalues --   -0.60553  -0.59363  -0.58374  -0.57705  -0.57659
 Alpha  occ. eigenvalues --   -0.56938  -0.55978  -0.55703  -0.55428  -0.55032
 Alpha  occ. eigenvalues --   -0.54798  -0.54659  -0.54650  -0.53963  -0.53299
 Alpha  occ. eigenvalues --   -0.52252  -0.51846  -0.51496  -0.51334  -0.50756
 Alpha  occ. eigenvalues --   -0.49762  -0.49471  -0.49130  -0.48987  -0.48860
 Alpha  occ. eigenvalues --   -0.48827  -0.48298  -0.47741  -0.47612  -0.47343
 Alpha  occ. eigenvalues --   -0.46966  -0.46758  -0.46561  -0.46362  -0.46294
 Alpha  occ. eigenvalues --   -0.45834  -0.45447  -0.45339  -0.44735  -0.44548
 Alpha  occ. eigenvalues --   -0.44389  -0.44163  -0.44097  -0.43969  -0.43778
 Alpha  occ. eigenvalues --   -0.43384  -0.43118  -0.42935  -0.42847  -0.42621
 Alpha  occ. eigenvalues --   -0.42426  -0.42286  -0.42190  -0.41645  -0.41367
 Alpha  occ. eigenvalues --   -0.41110  -0.40877  -0.40824  -0.40158  -0.40029
 Alpha  occ. eigenvalues --   -0.39924  -0.39605  -0.39541  -0.39390  -0.39331
 Alpha  occ. eigenvalues --   -0.39226  -0.39203  -0.38910  -0.38643  -0.38625
 Alpha  occ. eigenvalues --   -0.38413  -0.38344  -0.38037  -0.37976  -0.37769
 Alpha  occ. eigenvalues --   -0.37411  -0.37293  -0.37067  -0.36592  -0.36492
 Alpha  occ. eigenvalues --   -0.36473  -0.36363  -0.36231  -0.35820  -0.35775
 Alpha  occ. eigenvalues --   -0.35623  -0.35520  -0.35457  -0.34998  -0.34656
 Alpha  occ. eigenvalues --   -0.34117  -0.33911  -0.33727  -0.33645  -0.33591
 Alpha  occ. eigenvalues --   -0.33375  -0.33033  -0.32897  -0.32830  -0.31850
 Alpha  occ. eigenvalues --   -0.31803  -0.31521  -0.31391  -0.31076  -0.31027
 Alpha  occ. eigenvalues --   -0.30986  -0.30415  -0.30139  -0.30009  -0.29866
 Alpha  occ. eigenvalues --   -0.29658  -0.29240  -0.28147  -0.27594  -0.27533
 Alpha  occ. eigenvalues --   -0.27346  -0.26947  -0.26390  -0.26003  -0.25780
 Alpha  occ. eigenvalues --   -0.25492  -0.24454  -0.24076  -0.22813  -0.19366
 Alpha  occ. eigenvalues --   -0.18924
 Alpha virt. eigenvalues --   -0.09881  -0.07179  -0.03735  -0.01550  -0.01233
 Alpha virt. eigenvalues --   -0.00576   0.00644   0.01607   0.01856   0.02261
 Alpha virt. eigenvalues --    0.03023   0.03640   0.03681   0.03803   0.04558

 Mulliken charges:
               1
     1  C    0.015934
     2  C   -0.017353
     3  C   -0.047272
     4  C   -0.071530
     5  N   -0.121567
     6  C   -0.023210
     7  C   -0.041046
     8  C   -0.049746
     9  C   -0.003219
    10  C    0.007565
    11  C    0.066289
    12  C   -0.020840
    13  C    0.226362
    14  O   -0.289845
    15  O   -0.347197
    16  N    0.025388
    17  C    0.033264
    18  C   -0.002605
    19  C   -0.005929
    20  C    0.148635
    21  C   -0.163773
    22  C   -0.005128
    23  C    0.001422
    24  N   -0.190134
    25  C    0.033661
    26  C   -0.133015
    27  C   -0.036793
    28  C    0.001197
    29  C    0.027172
    30  C   -0.004109
    31  C   -0.016565
    32  N    0.029190
    33  C    0.074219
    34  C   -0.125663
    35  C   -0.027403
    36  C    0.021457
    37  C    0.097274
    38  C    0.043641
    39  O   -0.165035
    40  C   -0.027875
    41  C    0.180746
    42  O   -0.258284
    43  O   -0.272133
    44  C    0.117869
    45  C    0.337784
    46  C   -0.117229
    47  C   -0.115410
    48  C    0.080616
    49  C    0.009548
    50  C   -0.037186
    51  C    0.144755
    52  C   -0.152790
    53  C    0.085449
    54  C   -0.010209
    55  C    0.225526
    56  C   -0.055987
    57  C    0.033111
    58  C    0.041481
    59  C    0.011486
    60  C    0.079460
    61  C    0.013212
    62  C   -0.085973
    63  C    0.124566
    64  C   -0.046873
    65  H   -0.055196
    66  H   -0.095889
    67  H    0.005224
    68  H   -0.012003
    69  H   -0.000063
    70  H    0.022937
    71  H    0.020162
    72  H    0.045023
    73  H    0.013296
    74  H    0.005115
    75  H    0.026989
    76  H    0.051906
    77  H    0.077426
    78  H    0.045693
    79  H    0.078159
    80  H   -0.005469
    81  H    0.021404
    82  H    0.001594
    83  H    0.021271
    84  H    0.031809
    85  H    0.028758
    86  H    0.020523
    87  H    0.025891
    88  H    0.021653
    89  H    0.041753
    90  H    0.002993
    91  H    0.035041
    92  H    0.027203
    93  H    0.008778
    94  H    0.060431
    95  H    0.051301
    96  H    0.070365
    97  H    0.098408
    98  H    0.028170
    99  H    0.007106
   100  H    0.000286
   101  H   -0.000742
   102  H   -0.008513
   103  H    0.034268
   104  H    0.018043
   105  H    0.019461
   106  H    0.014180
   107  H    0.010852
   108  H    0.009652
   109  H   -0.050950
   110  H    0.001196
   111  H   -0.000132
   112  H   -0.004040
   113  H    0.008568
   114  H   -0.050120
   115  H    0.002149
   116  H   -0.140165
   117  H    0.001153
   118  H    0.005255
   119  H   -0.002804
   120  H   -0.032249
   121  H   -0.009561
   122  H    0.016686
   123  H   -0.001686
   124  H   -0.018323
   125  H    0.005090
   126  H   -0.013803
   127  H   -0.016261
   128  H   -0.048329
   129  H   -0.024082
   130  H   -0.012081
   131  H   -0.036409
   132  H   -0.026859
   133  H    0.027505
   134  H    0.009750
   135  H    0.026695
   136  H    0.018786
   137  H    0.060390
   138  H    0.130025
 Sum of Mulliken charges =   0.00000

 Dipole moment (field-independent basis, Debye):
    X=              3.4652    Y=              3.2025    Z=              0.1133  Tot=              4.7198
 Quadrupole moment (field-independent basis, Debye-Ang):
   XX=           -347.1916   YY=           -378.8678   ZZ=           -397.6870
   XY=            -27.9429   XZ=              2.5363   YZ=             -2.3049

 Normal termination of Gaussian 09 at Thu Aug  1 17:25:23 2019.
