 Gaussian 09, Revision D.01,
 Gaussian 09:  ES64L-G09RevD.01 24-Apr-2013

 --------------------------
 # td=(NStates=1) B3LYP/SVP
 --------------------------

 --
 TD
 --
 Symbolic Z-matrix:
 Charge =  0 Multiplicity = 1

                         Standard orientation:
 ---------------------------------------------------------------------
 Center     Atomic      Atomic             Coordinates (Angstroms)
 Number     Number       Type             X           Y           Z
 ---------------------------------------------------------------------
      1          6           0       -5.163132   -2.008235    0.563495
      2          6           0       -4.698262    2.746630    1.468016
      3          6           0       -9.303576    3.346351   -0.282900
      4          6           0       -9.942281   -1.404538   -0.927158
      5          7           0       -5.271295    0.385711    0.770278
      6          6           0       -4.472217   -0.831454    0.914626
      7          6           0       -3.130186   -0.670623    1.388442
      8          6           0       -3.107822    0.837267    1.875775
      9          6           0       -4.399214    1.309789    1.436183
     10          6           0       -3.082122    0.922149    3.357044
     11          6           0       -2.101357   -0.789105    0.084077
     12          6           0       -0.632466   -0.752352    0.501573
     13          6           0        0.340716   -1.099464   -0.577952
     14          8           0       -0.001123   -1.372455   -1.758691
     15          8           0        1.586755   -0.731957   -0.276847
     16          7           0       -6.914737    2.799838    0.374850
     17          6           0       -5.875178    3.350918    1.012887
     18          6           0       -6.117785    4.831345    1.023308
     19          6           0       -7.341689    4.939035    0.452903
     20          6           0       -7.929978    3.714303    0.033013
     21          6           0       -5.145412    5.782630    1.607743
     22          6           0       -8.010465    6.337535    0.361803
     23          6           0       -8.979021    6.732536   -0.450463
     24          7           0       -9.199218    0.860894   -0.545509
     25          6           0       -9.924447    2.098741   -0.498451
     26          6           0      -11.318023    2.035060   -0.985576
     27          6           0      -11.403327    0.628533   -1.082603
     28          6           0      -10.118319    0.023352   -0.831469
     29          6           0      -12.339428    3.021458   -1.177637
     30          6           0      -12.625978   -0.133805   -1.524614
     31          6           0      -12.681741   -0.331748   -3.096820
     32          7           0       -7.566327   -1.283946   -0.169401
     33          6           0       -8.642872   -1.996023   -0.575092
     34          6           0       -8.221069   -3.437266   -0.614081
     35          6           0       -6.988538   -3.436986   -0.169138
     36          6           0       -6.493860   -2.076086    0.083056
     37          6           0       -9.237776   -4.453421   -0.952319
     38          6           0       -5.878646   -4.287361    0.169302
     39          8           0       -5.970053   -5.513778    0.181264
     40          6           0       -4.691723   -3.350512    0.529886
     41          6           0       -3.856434   -3.900239    1.697811
     42          8           0       -3.953258   -3.459581    2.824839
     43          8           0       -3.046909   -4.798365    1.331350
     44          6           0       -2.309368   -5.405055    2.435126
     45          6           0        2.603395   -1.094702   -1.276927
     46          6           0        3.876064   -0.814045   -0.599417
     47          6           0        4.985031   -0.194824   -1.247142
     48          6           0        4.856115    0.302821   -2.654804
     49          6           0        6.265433   -0.002516   -0.503115
     50          6           0        7.550613   -0.471719   -1.164547
     51          6           0        8.705664   -0.132966   -0.296435
     52          6           0       10.168101   -0.768750   -0.791060
     53          6           0       10.132779   -2.228777   -0.744045
     54          6           0       11.303481   -0.201446    0.044285
     55          6           0       12.662071   -0.620726   -0.622580
     56          6           0       13.891784    0.121556    0.129900
     57          6           0       15.277572   -0.051950   -0.418443
     58          6           0       15.638760   -1.597797   -0.372817
     59          6           0       16.335417    0.783917    0.372494
     60          6           0       17.759325    0.732588   -0.102929
     61          6           0       18.733586    1.638298    0.692611
     62          6           0       20.115941    1.612539    0.173260
     63          6           0       20.220898    2.339850   -1.235186
     64          6           0       20.891532    2.316968    1.279929
     65          1           0       -4.013108    3.340383    1.960106
     66          1           0       -9.945708    4.316136   -0.333232
     67          1           0      -10.757725   -1.948987   -1.334297
     68          1           0       -2.948940   -1.592681    1.958957
     69          1           0       -2.358750    1.356716    1.403339
     70          1           0       -1.925652    0.654484    3.869417
     71          1           0       -3.421214    2.026890    3.607235
     72          1           0       -3.806044    0.411377    4.017087
     73          1           0       -2.262600   -1.696379   -0.462392
     74          1           0       -2.324576    0.026665   -0.512765
     75          1           0       -0.256991    0.212851    0.996457
     76          1           0       -0.490149   -1.589685    1.276320
     77          1           0       -4.264954    5.794474    0.857401
     78          1           0       -5.431024    6.695046    1.724760
     79          1           0       -4.710674    5.377704    2.539941
     80          1           0       -7.483279    7.034585    1.172864
     81          1           0       -9.280500    6.043457   -1.443688
     82          1           0       -9.407056    7.878715   -0.216713
     83          1           0      -12.495709    3.891562   -0.355627
     84          1           0      -12.219716    3.642611   -2.072840
     85          1           0      -13.262822    2.415384   -1.323833
     86          1           0      -12.509061   -1.201480   -0.921127
     87          1           0      -13.585487    0.409208   -1.349327
     88          1           0      -12.798576    0.618086   -3.428534
     89          1           0      -11.747845   -0.692258   -3.553231
     90          1           0      -13.516761   -0.998835   -3.189615
     91          1           0      -10.499620   -4.218869   -0.732046
     92          1           0       -9.186120   -4.733098   -2.035518
     93          1           0       -8.784375   -5.486459   -0.257569
     94          1           0       -4.159617   -3.718183   -0.367696
     95          1           0       -1.535094   -6.045005    1.920383
     96          1           0       -1.679189   -4.650991    3.090864
     97          1           0       -3.022698   -5.894185    3.249354
     98          1           0        2.450323   -2.132632   -1.583060
     99          1           0        2.449836   -0.575894   -2.290479
    100          1           0        3.833500   -1.308020    0.287526
    101          1           0        5.109029    1.516290   -2.593181
    102          1           0        5.525442   -0.420255   -3.244401
    103          1           0        3.956979    0.295029   -3.196963
    104          1           0        6.495517    1.032153   -0.387319
    105          1           0        6.380906   -0.433313    0.508687
    106          1           0        7.371061   -1.512043   -1.550218
    107          1           0        7.633354   -0.099437   -2.056451
    108          1           0        8.751901    0.935707   -0.163153
    109          1           0        8.465777   -0.505067    0.851337
    110          1           0       10.266148   -0.419978   -1.784241
    111          1           0        9.242299   -2.747763   -1.320545
    112          1           0       10.938228   -2.693741   -1.308651
    113          1           0       10.170556   -2.585406    0.222790
    114          1           0       11.144308    0.950695    0.098255
    115          1           0       11.475815   -0.531649    1.129101
    116          1           0       13.018559   -1.708631   -0.472099
    117          1           0       12.682894   -0.544202   -1.836653
    118          1           0       13.760054    1.278854    0.216612
    119          1           0       13.949626   -0.252687    1.241424
    120          1           0       15.370241    0.176465   -1.536750
    121          1           0       14.842237   -2.419338   -0.880840
    122          1           0       16.593631   -1.645547   -0.881557
    123          1           0       15.665908   -2.069293    0.568594
    124          1           0       15.968718    1.783175    0.342459
    125          1           0       16.046382    0.551946    1.508163
    126          1           0       18.154275   -0.321691   -0.008238
    127          1           0       18.042625    1.056515   -1.126308
    128          1           0       18.428617    2.678633    0.811651
    129          1           0       18.878230    1.325132    1.646925
    130          1           0       20.621037    0.654155   -0.039325
    131          1           0       19.973487    3.500057   -1.221206
    132          1           0       21.171477    2.253806   -1.538612
    133          1           0       19.543080    1.998186   -1.985048
    134          1           0       20.989482    1.760655    2.197781
    135          1           0       22.032673    2.347287    0.940471
    136          1           0       20.265931    3.205246    1.582175
    137          1           0       -6.915344    1.921533    0.271834
    138          1           0       -7.818801   -0.072607   -0.078760
 ---------------------------------------------------------------------

 SCF Done:  E(RB3LYP) =  -2733.00458991     A.U. after   17 cycles

 Excitation energies and oscillator strengths:

 Excited State   1:      Singlet-A      1.9266 eV  643.53 nm  f=0.1856  <S**2>=0.000
     235 -> 237       -0.12363
     235 -> 238        0.24708
     236 -> 237        0.64315
     236 -> 238        0.10290
 This state for optimization and/or second-order correction.
 Total Energy, E(TD-HF/TD-KS) =  -2732.93378797
 Copying the excited state density for this state as the 1-particle RhoCI density.

 The electronic state is 1-A.
 Alpha  occ. eigenvalues --  -19.20139 -19.18160 -19.11797 -19.11753 -19.11716
 Alpha  occ. eigenvalues --  -14.36228 -14.35757 -14.33181 -14.30893 -10.31558
 Alpha  occ. eigenvalues --  -10.31460 -10.27349 -10.27276 -10.24608 -10.23653
 Alpha  occ. eigenvalues --  -10.23289 -10.23245 -10.23238 -10.23123 -10.23071
 Alpha  occ. eigenvalues --  -10.22423 -10.22024 -10.21530 -10.21522 -10.21367
 Alpha  occ. eigenvalues --  -10.21082 -10.21064 -10.21055 -10.20974 -10.20881
 Alpha  occ. eigenvalues --  -10.20802 -10.20699 -10.20631 -10.20458 -10.20394
 Alpha  occ. eigenvalues --  -10.20333 -10.20290 -10.20205 -10.19988 -10.19923
 Alpha  occ. eigenvalues --  -10.19834 -10.19740 -10.19672 -10.19598 -10.19492
 Alpha  occ. eigenvalues --  -10.19459 -10.19366 -10.19129 -10.19121 -10.18930
 Alpha  occ. eigenvalues --  -10.18809 -10.18688 -10.18585 -10.18552 -10.18519
 Alpha  occ. eigenvalues --  -10.18494 -10.18263 -10.18176 -10.17892 -10.17515
 Alpha  occ. eigenvalues --  -10.17356 -10.17276 -10.17115 -10.16592  -1.13299
 Alpha  occ. eigenvalues --   -1.09027  -1.01691  -1.00937  -0.98744  -0.98195
 Alpha  occ. eigenvalues --   -0.97349  -0.94695  -0.92169  -0.85749  -0.82978
 Alpha  occ. eigenvalues --   -0.82282  -0.81992  -0.81188  -0.80678  -0.80362
 Alpha  occ. eigenvalues --   -0.80253  -0.79818  -0.79334  -0.78864  -0.78185
 Alpha  occ. eigenvalues --   -0.77399  -0.75909  -0.75653  -0.74596  -0.74367
 Alpha  occ. eigenvalues --   -0.73797  -0.73247  -0.72647  -0.71906  -0.71227
 Alpha  occ. eigenvalues --   -0.69890  -0.69611  -0.68662  -0.68638  -0.68015
 Alpha  occ. eigenvalues --   -0.67090  -0.66643  -0.66230  -0.65454  -0.64574
 Alpha  occ. eigenvalues --   -0.63847  -0.62827  -0.61870  -0.61703  -0.61237
 Alpha  occ. eigenvalues --   -0.60982  -0.59656  -0.58464  -0.57811  -0.57683
 Alpha  occ. eigenvalues --   -0.57094  -0.56549  -0.56525  -0.56116  -0.55883
 Alpha  occ. eigenvalues --   -0.55734  -0.54380  -0.54194  -0.53899  -0.53098
 Alpha  occ. eigenvalues --   -0.52198  -0.51972  -0.51561  -0.50963  -0.50693
 Alpha  occ. eigenvalues --   -0.50179  -0.49570  -0.48977  -0.48721  -0.48430
 Alpha  occ. eigenvalues --   -0.48112  -0.47918  -0.47695  -0.46811  -0.46628
 Alpha  occ. eigenvalues --   -0.46400  -0.46256  -0.46071  -0.45913  -0.45759
 Alpha  occ. eigenvalues --   -0.45359  -0.45328  -0.45146  -0.44582  -0.44491
 Alpha  occ. eigenvalues --   -0.44393  -0.44049  -0.43986  -0.43684  -0.43523
 Alpha  occ. eigenvalues --   -0.43232  -0.43122  -0.42754  -0.42642  -0.42481
 Alpha  occ. eigenvalues --   -0.42236  -0.41833  -0.41640  -0.41575  -0.41343
 Alpha  occ. eigenvalues --   -0.41178  -0.40922  -0.40855  -0.40492  -0.40268
 Alpha  occ. eigenvalues --   -0.40120  -0.39932  -0.39891  -0.39498  -0.39324
 Alpha  occ. eigenvalues --   -0.39150  -0.38985  -0.38814  -0.38679  -0.38545
 Alpha  occ. eigenvalues --   -0.38290  -0.38025  -0.37890  -0.37606  -0.37396
 Alpha  occ. eigenvalues --   -0.37307  -0.37199  -0.36952  -0.36762  -0.36648
 Alpha  occ. eigenvalues --   -0.36561  -0.36337  -0.36121  -0.35979  -0.35769
 Alpha  occ. eigenvalues --   -0.35719  -0.35346  -0.35006  -0.34883  -0.34840
 Alpha  occ. eigenvalues --   -0.34614  -0.34539  -0.34422  -0.33916  -0.33643
 Alpha  occ. eigenvalues --   -0.33540  -0.33522  -0.33393  -0.33014  -0.32700
 Alpha  occ. eigenvalues --   -0.32085  -0.31800  -0.31789  -0.31649  -0.31579
 Alpha  occ. eigenvalues --   -0.31410  -0.30666  -0.30551  -0.30176  -0.29995
 Alpha  occ. eigenvalues --   -0.29976  -0.29332  -0.28880  -0.28075  -0.28034
 Alpha  occ. eigenvalues --   -0.27623  -0.27188  -0.26803  -0.26121  -0.25684
 Alpha  occ. eigenvalues --   -0.24363  -0.24069  -0.23726  -0.22534  -0.19475
 Alpha  occ. eigenvalues --   -0.17955
 Alpha virt. eigenvalues --   -0.10027  -0.07243  -0.04016  -0.01705  -0.01305
 Alpha virt. eigenvalues --   -0.00899  -0.00224   0.00571   0.01390   0.03522
 Alpha virt. eigenvalues --    0.03644   0.04124   0.04387   0.04445   0.04622

 Mulliken charges:
               1
     1  C    0.083532
     2  C   -0.047214
     3  C   -0.094901
     4  C   -0.059163
     5  N   -0.258233
     6  C   -0.036732
     7  C   -0.046222
     8  C    0.132837
     9  C   -0.015731
    10  C   -0.007674
    11  C    0.082584
    12  C    0.020080
    13  C    0.178875
    14  O   -0.287648
    15  O   -0.307682
    16  N    0.066681
    17  C    0.056452
    18  C   -0.154616
    19  C   -0.026149
    20  C    0.063598
    21  C    0.197336
    22  C   -0.033324
    23  C   -0.113267
    24  N   -0.233679
    25  C    0.093212
    26  C   -0.091225
    27  C   -0.099153
    28  C    0.056135
    29  C    0.058418
    30  C   -0.052006
    31  C    0.080995
    32  N   -0.123935
    33  C    0.037284
    34  C   -0.111016
    35  C    0.053892
    36  C    0.073108
    37  C   -0.064588
    38  C    0.011345
    39  O   -0.186281
    40  C   -0.041146
    41  C    0.146342
    42  O   -0.248862
    43  O   -0.217234
    44  C    0.111107
    45  C    0.235312
    46  C   -0.037320
    47  C   -0.103226
    48  C    0.043981
    49  C    0.113124
    50  C    0.064192
    51  C   -0.016978
    52  C   -0.004215
    53  C    0.061409
    54  C    0.024929
    55  C   -0.048633
    56  C   -0.020635
    57  C   -0.067332
    58  C   -0.020595
    59  C    0.053941
    60  C    0.076581
    61  C    0.074750
    62  C   -0.137980
    63  C    0.056053
    64  C    0.030323
    65  H   -0.065922
    66  H    0.004153
    67  H   -0.029178
    68  H    0.013258
    69  H   -0.021626
    70  H    0.031529
    71  H    0.007711
    72  H    0.036764
    73  H    0.016516
    74  H   -0.008990
    75  H    0.052224
    76  H    0.028173
    77  H    0.033119
    78  H   -0.052735
    79  H    0.028913
    80  H    0.027084
    81  H    0.073656
    82  H    0.054388
    83  H    0.043954
    84  H    0.020855
    85  H    0.011333
    86  H    0.028604
    87  H    0.009680
    88  H   -0.020466
    89  H    0.014057
    90  H    0.017901
    91  H    0.065180
    92  H    0.048039
    93  H    0.072549
    94  H    0.050285
    95  H    0.052711
    96  H    0.050293
    97  H    0.074724
    98  H    0.020918
    99  H    0.024964
   100  H   -0.049035
   101  H    0.043550
   102  H    0.045084
   103  H   -0.001267
   104  H   -0.018156
   105  H   -0.002985
   106  H   -0.012278
   107  H   -0.064755
   108  H   -0.013284
   109  H   -0.000148
   110  H   -0.023852
   111  H    0.006716
   112  H   -0.000575
   113  H   -0.012472
   114  H    0.010625
   115  H    0.010577
   116  H    0.023746
   117  H    0.016177
   118  H   -0.001697
   119  H    0.005335
   120  H   -0.001040
   121  H    0.017721
   122  H    0.012180
   123  H   -0.009200
   124  H   -0.027428
   125  H   -0.002007
   126  H   -0.000802
   127  H   -0.011441
   128  H   -0.013181
   129  H   -0.048253
   130  H   -0.006343
   131  H    0.002442
   132  H   -0.023707
   133  H    0.003263
   134  H    0.001320
   135  H    0.010959
   136  H    0.011954
   137  H    0.018944
   138  H    0.264884
 Sum of Mulliken charges =   0.00000

 Dipole moment (field-independent basis, Debye):
    X=              4.6006    Y=              3.3116    Z=              0.3051  Tot=              5.6767
 Quadrupole moment (field-independent basis, Debye-Ang):
   XX=           -351.3903   YY=           -387.1144   ZZ=           -394.5543
   XY=            -30.9528   XZ=             11.9377   YZ=              0.9282

 Normal termination of Gaussian 09 at Thu Aug  1 22:47:12 2019.
