 Gaussian 09, Revision D.01,
 Gaussian 09:  ES64L-G09RevD.01 24-Apr-2013

 --------------------------
 # td=(NStates=1) B3LYP/SVP
 --------------------------

 --
 TD
 --
 Symbolic Z-matrix:
 Charge =  0 Multiplicity = 1

                         Standard orientation:
 ---------------------------------------------------------------------
 Center     Atomic      Atomic             Coordinates (Angstroms)
 Number     Number       Type             X           Y           Z
 ---------------------------------------------------------------------
      1          6           0       -5.212560   -1.888930    0.489490
      2          6           0       -4.598165    2.763401    1.362432
      3          6           0       -9.286384    3.433699   -0.233732
      4          6           0       -9.717315   -1.381938   -1.121409
      5          7           0       -5.182503    0.410179    0.787700
      6          6           0       -4.545295   -0.718619    0.852886
      7          6           0       -3.040168   -0.633529    1.333378
      8          6           0       -3.084943    0.774735    1.869672
      9          6           0       -4.342754    1.411757    1.362603
     10          6           0       -2.924878    0.937384    3.336217
     11          6           0       -2.115370   -0.908034    0.216574
     12          6           0       -0.663689   -0.869229    0.645816
     13          6           0        0.363220   -1.170327   -0.476980
     14          8           0        0.085017   -1.651426   -1.503137
     15          8           0        1.625072   -0.905398   -0.072980
     16          7           0       -7.080196    2.834800    0.490987
     17          6           0       -5.853228    3.366062    0.967367
     18          6           0       -6.157428    4.710792    1.059973
     19          6           0       -7.453717    5.044086    0.592412
     20          6           0       -8.058199    3.718385    0.169164
     21          6           0       -5.178634    5.880735    1.462704
     22          6           0       -8.153998    6.315598    0.463370
     23          6           0       -8.956233    6.643323   -0.522306
     24          7           0       -9.126352    0.941827   -0.628241
     25          6           0       -9.885542    2.104986   -0.567625
     26          6           0      -11.224303    1.887638   -1.033725
     27          6           0      -11.387218    0.535616   -1.336714
     28          6           0      -10.034869    0.063251   -1.149018
     29          6           0      -12.228118    3.031442   -0.940280
     30          6           0      -12.525375   -0.169667   -1.845242
     31          6           0      -12.489529   -0.427116   -3.381666
     32          7           0       -7.500692   -1.258906   -0.246069
     33          6           0       -8.573706   -1.981314   -0.690148
     34          6           0       -8.205954   -3.315410   -0.760482
     35          6           0       -6.863806   -3.449111   -0.242672
     36          6           0       -6.484081   -1.963683    0.099805
     37          6           0       -8.989182   -4.488006   -1.239754
     38          6           0       -5.676045   -4.209707    0.030870
     39          8           0       -5.571069   -5.377601   -0.062157
     40          6           0       -4.512657   -3.308382    0.537228
     41          6           0       -4.032253   -3.814171    1.828825
     42          8           0       -4.189768   -3.302681    2.991174
     43          8           0       -3.293211   -4.932196    1.721912
     44          6           0       -2.781614   -5.318014    2.997786
     45          6           0        2.688276   -1.270602   -0.947451
     46          6           0        3.977017   -0.670691   -0.376419
     47          6           0        4.951980   -0.105902   -1.111160
     48          6           0        4.947487    0.413944   -2.525905
     49          6           0        6.300684    0.143458   -0.407649
     50          6           0        7.504684   -0.578776   -1.010002
     51          6           0        8.754413   -0.258726   -0.236724
     52          6           0       10.045070   -1.001677   -0.739429
     53          6           0        9.994665   -2.559049   -0.657223
     54          6           0       11.299893   -0.418316   -0.010242
     55          6           0       12.718213   -0.620038   -0.688052
     56          6           0       13.908841   -0.098069    0.315393
     57          6           0       15.184043   -0.153762   -0.447750
     58          6           0       15.655617   -1.597307   -0.800225
     59          6           0       16.251726    0.719094    0.308943
     60          6           0       17.631280    0.792769   -0.244425
     61          6           0       18.529965    1.790870    0.489625
     62          6           0       19.973461    1.799959    0.157708
     63          6           0       20.163199    2.392579   -1.291014
     64          6           0       20.788751    2.661835    1.184299
     65          1           0       -3.998859    3.488860    1.755362
     66          1           0      -10.102887    4.324684   -0.264998
     67          1           0      -10.490984   -2.107084   -1.443822
     68          1           0       -2.909953   -1.368344    2.116564
     69          1           0       -2.458819    1.663408    1.246619
     70          1           0       -1.813285    0.754227    3.639519
     71          1           0       -2.998576    2.054517    3.715317
     72          1           0       -3.839232    0.512984    3.873069
     73          1           0       -2.385115   -1.712328   -0.388947
     74          1           0       -2.493883   -0.078374   -0.527929
     75          1           0       -0.391744    0.202985    0.857830
     76          1           0       -0.489645   -1.544001    1.552158
     77          1           0       -4.622989    6.222424    0.553293
     78          1           0       -5.799673    6.838834    1.951705
     79          1           0       -4.512042    5.329367    2.454294
     80          1           0       -7.946598    7.144952    1.146374
     81          1           0       -9.516475    5.897387   -1.287691
     82          1           0       -9.176200    7.784090   -0.695258
     83          1           0      -12.288513    3.655481    0.085724
     84          1           0      -11.923414    3.819021   -1.639797
     85          1           0      -13.293847    2.690563   -1.224175
     86          1           0      -12.754315   -1.188723   -1.287377
     87          1           0      -13.582460    0.290005   -1.673525
     88          1           0      -12.396751    0.564886   -3.878834
     89          1           0      -11.514418   -0.972841   -3.666452
     90          1           0      -13.141001   -1.306287   -3.769076
     91          1           0      -10.071664   -4.736449   -0.967501
     92          1           0       -9.184407   -4.382505   -2.274807
     93          1           0       -8.380984   -5.424932   -1.017799
     94          1           0       -3.800633   -3.494886   -0.246385
     95          1           0       -1.965998   -6.216724    2.950989
     96          1           0       -2.135010   -4.523682    3.462774
     97          1           0       -3.646845   -5.709617    3.771994
     98          1           0        2.690206   -2.393372   -0.900600
     99          1           0        2.203926   -1.075089   -2.076314
    100          1           0        3.937377   -0.859867    0.717481
    101          1           0        4.883565    1.634147   -2.244820
    102          1           0        5.982448   -0.004490   -3.176790
    103          1           0        3.907100   -0.056221   -3.192885
    104          1           0        6.588162    1.221177   -0.505134
    105          1           0        6.340155   -0.113056    0.757969
    106          1           0        7.436935   -1.756493   -0.979523
    107          1           0        7.473026   -0.179177   -1.941687
    108          1           0        8.815721    0.921395   -0.376438
    109          1           0        8.518811   -0.517551    0.868399
    110          1           0       10.258447   -0.731545   -1.669282
    111          1           0        9.482812   -2.767238   -1.490488
    112          1           0       11.007767   -2.849173   -1.082993
    113          1           0        9.738896   -2.860169    0.361110
    114          1           0       11.034356    0.661070    0.228284
    115          1           0       11.265473   -0.789530    1.032752
    116          1           0       12.885570   -1.641586   -0.904399
    117          1           0       12.757205   -0.021581   -1.583615
    118          1           0       13.682746    0.961363    0.610377
    119          1           0       13.881164   -0.668085    1.432192
    120          1           0       15.194891    0.449750   -1.403537
    121          1           0       14.519646   -2.168797   -1.179730
    122          1           0       16.552355   -1.563966   -1.726573
    123          1           0       15.995066   -2.272836    0.099368
    124          1           0       15.855664    1.582530    0.339589
    125          1           0       16.382684    0.281576    1.421379
    126          1           0       18.169351    0.015558   -0.350693
    127          1           0       17.561717    1.010136   -1.386010
    128          1           0       18.206145    2.929159    0.361540
    129          1           0       18.351022    1.577547    1.618692
    130          1           0       20.329608    0.798748    0.194708
    131          1           0       19.781651    3.451643   -1.458928
    132          1           0       21.320965    2.388942   -1.525474
    133          1           0       19.582528    1.729539   -1.914559
    134          1           0       20.650857    2.307571    2.059538
    135          1           0       21.763250    2.753285    0.878518
    136          1           0       20.417768    3.662619    1.278133
    137          1           0       -7.171245    1.705179    0.073670
    138          1           0       -7.600356   -0.301684   -0.166291
 ---------------------------------------------------------------------

 SCF Done:  E(RB3LYP) =  -2732.95710316     A.U. after   17 cycles

 Excitation energies and oscillator strengths:

 Excited State   1:      Singlet-A      2.0584 eV  602.33 nm  f=0.1592  <S**2>=0.000
     235 -> 237       -0.24290
     235 -> 238        0.26239
     236 -> 237        0.57056
     236 -> 238        0.20504
 This state for optimization and/or second-order correction.
 Total Energy, E(TD-HF/TD-KS) =  -2732.88145768
 Copying the excited state density for this state as the 1-particle RhoCI density.

 The electronic state is 1-A.
 Alpha  occ. eigenvalues --  -19.18882 -19.17078 -19.12756 -19.11809 -19.11684
 Alpha  occ. eigenvalues --  -14.37260 -14.36800 -14.32319 -14.30702 -10.32051
 Alpha  occ. eigenvalues --  -10.31207 -10.27472 -10.26119 -10.25550 -10.24604
 Alpha  occ. eigenvalues --  -10.24450 -10.23576 -10.23496 -10.23360 -10.23146
 Alpha  occ. eigenvalues --  -10.22924 -10.22896 -10.22652 -10.21944 -10.21856
 Alpha  occ. eigenvalues --  -10.21663 -10.21562 -10.21317 -10.21181 -10.21163
 Alpha  occ. eigenvalues --  -10.21100 -10.21024 -10.20944 -10.20717 -10.20640
 Alpha  occ. eigenvalues --  -10.20618 -10.20548 -10.20456 -10.20260 -10.20177
 Alpha  occ. eigenvalues --  -10.20023 -10.19933 -10.19901 -10.19840 -10.19724
 Alpha  occ. eigenvalues --  -10.19647 -10.19642 -10.19628 -10.19602 -10.19449
 Alpha  occ. eigenvalues --  -10.19446 -10.18984 -10.18741 -10.18694 -10.18567
 Alpha  occ. eigenvalues --  -10.18463 -10.18314 -10.18125 -10.18032 -10.17968
 Alpha  occ. eigenvalues --  -10.17624 -10.17275 -10.16933 -10.15151  -1.10491
 Alpha  occ. eigenvalues --   -1.09830  -1.04877  -1.02340  -1.00738  -0.97344
 Alpha  occ. eigenvalues --   -0.96753  -0.94941  -0.93259  -0.84922  -0.82548
 Alpha  occ. eigenvalues --   -0.82328  -0.82094  -0.81902  -0.81252  -0.80799
 Alpha  occ. eigenvalues --   -0.80558  -0.79756  -0.79691  -0.79226  -0.77983
 Alpha  occ. eigenvalues --   -0.77012  -0.76035  -0.75561  -0.75099  -0.74236
 Alpha  occ. eigenvalues --   -0.73638  -0.73352  -0.72030  -0.71427  -0.70574
 Alpha  occ. eigenvalues --   -0.69582  -0.68900  -0.68300  -0.67593  -0.67413
 Alpha  occ. eigenvalues --   -0.66951  -0.66240  -0.65934  -0.65632  -0.64819
 Alpha  occ. eigenvalues --   -0.64473  -0.63530  -0.62618  -0.61899  -0.61534
 Alpha  occ. eigenvalues --   -0.60352  -0.59548  -0.58777  -0.58337  -0.57323
 Alpha  occ. eigenvalues --   -0.56999  -0.56744  -0.56114  -0.55837  -0.55578
 Alpha  occ. eigenvalues --   -0.55132  -0.54558  -0.53759  -0.53622  -0.53127
 Alpha  occ. eigenvalues --   -0.52617  -0.51989  -0.51372  -0.51071  -0.50487
 Alpha  occ. eigenvalues --   -0.49889  -0.49320  -0.48874  -0.48373  -0.48143
 Alpha  occ. eigenvalues --   -0.47920  -0.47726  -0.47378  -0.47228  -0.46987
 Alpha  occ. eigenvalues --   -0.46812  -0.46319  -0.46197  -0.46046  -0.45990
 Alpha  occ. eigenvalues --   -0.45597  -0.45530  -0.45251  -0.44822  -0.44495
 Alpha  occ. eigenvalues --   -0.44182  -0.44061  -0.43900  -0.43867  -0.43685
 Alpha  occ. eigenvalues --   -0.43635  -0.43429  -0.43168  -0.42793  -0.42671
 Alpha  occ. eigenvalues --   -0.42354  -0.41757  -0.41559  -0.41520  -0.41327
 Alpha  occ. eigenvalues --   -0.41155  -0.41045  -0.40808  -0.40600  -0.40527
 Alpha  occ. eigenvalues --   -0.40230  -0.40110  -0.39887  -0.39410  -0.39071
 Alpha  occ. eigenvalues --   -0.38849  -0.38812  -0.38505  -0.38304  -0.38217
 Alpha  occ. eigenvalues --   -0.37971  -0.37764  -0.37709  -0.37533  -0.37240
 Alpha  occ. eigenvalues --   -0.37211  -0.37061  -0.36759  -0.36651  -0.36474
 Alpha  occ. eigenvalues --   -0.36154  -0.36120  -0.36045  -0.35974  -0.35689
 Alpha  occ. eigenvalues --   -0.35124  -0.34957  -0.34686  -0.34616  -0.34458
 Alpha  occ. eigenvalues --   -0.34207  -0.34035  -0.33921  -0.33798  -0.33359
 Alpha  occ. eigenvalues --   -0.33287  -0.33148  -0.32922  -0.32591  -0.32419
 Alpha  occ. eigenvalues --   -0.32054  -0.31845  -0.31841  -0.31717  -0.31240
 Alpha  occ. eigenvalues --   -0.31132  -0.31064  -0.30435  -0.30274  -0.30126
 Alpha  occ. eigenvalues --   -0.29910  -0.29411  -0.29078  -0.28161  -0.27958
 Alpha  occ. eigenvalues --   -0.27863  -0.27289  -0.27170  -0.26367  -0.26062
 Alpha  occ. eigenvalues --   -0.24859  -0.24704  -0.23530  -0.22810  -0.20437
 Alpha  occ. eigenvalues --   -0.18970
 Alpha virt. eigenvalues --   -0.10347  -0.08698  -0.04056  -0.01983  -0.01149
 Alpha virt. eigenvalues --   -0.00486   0.00691   0.01265   0.02311   0.02467
 Alpha virt. eigenvalues --    0.02663   0.03177   0.03876   0.04006   0.04443

 Mulliken charges:
               1
     1  C   -0.025000
     2  C   -0.052726
     3  C   -0.117151
     4  C   -0.083674
     5  N   -0.175421
     6  C   -0.162191
     7  C    0.075572
     8  C   -0.096671
     9  C    0.076775
    10  C    0.045312
    11  C    0.055571
    12  C    0.049250
    13  C    0.147183
    14  O   -0.186647
    15  O   -0.320100
    16  N   -0.196889
    17  C    0.128180
    18  C   -0.138860
    19  C    0.068845
    20  C    0.118864
    21  C   -0.043390
    22  C   -0.026315
    23  C   -0.112610
    24  N   -0.271850
    25  C    0.026693
    26  C   -0.106779
    27  C   -0.043720
    28  C    0.057200
    29  C    0.034674
    30  C   -0.017783
    31  C   -0.014879
    32  N    0.112972
    33  C    0.083170
    34  C   -0.111370
    35  C   -0.009658
    36  C    0.056642
    37  C    0.071100
    38  C   -0.037597
    39  O   -0.128596
    40  C    0.053917
    41  C    0.231451
    42  O   -0.298356
    43  O   -0.260665
    44  C    0.110969
    45  C    0.154467
    46  C   -0.063631
    47  C   -0.045982
    48  C   -0.095913
    49  C    0.013542
    50  C    0.042140
    51  C   -0.040479
    52  C   -0.024261
    53  C    0.132370
    54  C    0.002054
    55  C    0.070212
    56  C   -0.030018
    57  C   -0.060866
    58  C   -0.092136
    59  C    0.109069
    60  C    0.131111
    61  C   -0.052859
    62  C   -0.087264
    63  C   -0.005150
    64  C    0.186719
    65  H   -0.074849
    66  H    0.030045
    67  H   -0.019514
    68  H   -0.002681
    69  H    0.031482
    70  H    0.033652
    71  H    0.005752
    72  H    0.045021
    73  H   -0.012950
    74  H    0.003339
    75  H    0.032996
    76  H    0.050729
    77  H    0.063394
    78  H    0.051889
    79  H    0.052916
    80  H   -0.000358
    81  H    0.059072
    82  H    0.041915
    83  H    0.045249
    84  H    0.014799
    85  H    0.022287
    86  H    0.012525
    87  H    0.016134
    88  H    0.028835
    89  H    0.001076
    90  H    0.024128
    91  H    0.029837
    92  H    0.008882
    93  H    0.055426
    94  H    0.050608
    95  H    0.037529
    96  H    0.037423
    97  H    0.063560
    98  H    0.020313
    99  H    0.054192
   100  H    0.013257
   101  H    0.076588
   102  H    0.078141
   103  H    0.057356
   104  H   -0.010688
   105  H    0.008996
   106  H    0.013759
   107  H   -0.042439
   108  H    0.003991
   109  H    0.005848
   110  H   -0.066674
   111  H   -0.029664
   112  H   -0.010363
   113  H    0.029317
   114  H   -0.017041
   115  H   -0.026792
   116  H    0.005458
   117  H   -0.002910
   118  H    0.001300
   119  H    0.024661
   120  H    0.000802
   121  H    0.023110
   122  H    0.044506
   123  H    0.037445
   124  H   -0.067035
   125  H   -0.004155
   126  H   -0.082592
   127  H   -0.021471
   128  H   -0.003032
   129  H   -0.003397
   130  H   -0.019609
   131  H    0.017271
   132  H    0.020395
   133  H    0.002808
   134  H   -0.057360
   135  H   -0.021300
   136  H   -0.023307
   137  H    0.237663
   138  H    0.083942
 Sum of Mulliken charges =   0.00000

 Dipole moment (field-independent basis, Debye):
    X=              2.0172    Y=              4.1179    Z=             -0.3346  Tot=              4.5977
 Quadrupole moment (field-independent basis, Debye-Ang):
   XX=           -361.4467   YY=           -386.5161   ZZ=           -397.3818
   XY=            -20.3455   XZ=             11.2734   YZ=              0.7160

 Normal termination of Gaussian 09 at Sun Aug  4 22:01:39 2019.
