 Gaussian 09, Revision D.01,
 Gaussian 09:  ES64L-G09RevD.01 24-Apr-2013

 --------------------------
 # td=(NStates=1) B3LYP/SVP
 --------------------------

 --
 TD
 --
 Symbolic Z-matrix:
 Charge =  0 Multiplicity = 1

                         Standard orientation:
 ---------------------------------------------------------------------
 Center     Atomic      Atomic             Coordinates (Angstroms)
 Number     Number       Type             X           Y           Z
 ---------------------------------------------------------------------
      1          6           0       -5.108132   -2.001575    0.420818
      2          6           0       -4.643476    2.738714    1.267502
      3          6           0       -9.387961    3.367852   -0.140889
      4          6           0       -9.732072   -1.391754   -0.840786
      5          7           0       -5.105669    0.380046    0.787482
      6          6           0       -4.439373   -0.717526    0.741168
      7          6           0       -2.986582   -0.670004    1.215330
      8          6           0       -2.952735    0.843398    1.760438
      9          6           0       -4.333799    1.360994    1.281703
     10          6           0       -2.732142    1.026049    3.236439
     11          6           0       -2.026847   -0.894787    0.005408
     12          6           0       -0.611089   -0.758644    0.435822
     13          6           0        0.457931   -1.124880   -0.728511
     14          8           0        0.055153   -1.350088   -1.794918
     15          8           0        1.626959   -0.800084   -0.414528
     16          7           0       -7.054355    2.733516    0.526644
     17          6           0       -5.827438    3.355040    0.876591
     18          6           0       -6.136512    4.728213    0.894288
     19          6           0       -7.514323    4.956631    0.419305
     20          6           0       -8.017482    3.659783    0.234997
     21          6           0       -5.212023    5.719111    1.479362
     22          6           0       -8.193541    6.242036    0.446372
     23          6           0       -9.094035    6.634610   -0.544243
     24          7           0       -9.262496    0.887225   -0.522053
     25          6           0       -9.914476    2.119572   -0.426151
     26          6           0      -11.278032    1.961565   -0.862568
     27          6           0      -11.515686    0.498740   -0.958527
     28          6           0      -10.169569   -0.075174   -0.769263
     29          6           0      -12.292754    3.067554   -0.887002
     30          6           0      -12.735489   -0.165224   -1.480346
     31          6           0      -12.939961   -0.293529   -3.010155
     32          7           0       -7.488880   -1.199039   -0.313359
     33          6           0       -8.598617   -2.005991   -0.545840
     34          6           0       -8.228636   -3.421210   -0.421246
     35          6           0       -6.879624   -3.370654   -0.103512
     36          6           0       -6.458790   -2.068358   -0.026334
     37          6           0       -9.105976   -4.568366   -0.787426
     38          6           0       -5.777351   -4.266786    0.081923
     39          8           0       -5.716799   -5.480502   -0.121763
     40          6           0       -4.491268   -3.423457    0.346149
     41          6           0       -3.889686   -3.826619    1.670486
     42          8           0       -4.248379   -3.346919    2.722533
     43          8           0       -3.023768   -4.854191    1.430698
     44          6           0       -2.513775   -5.434578    2.600105
     45          6           0        2.618004   -1.139105   -1.370225
     46          6           0        3.975706   -0.784376   -0.697390
     47          6           0        4.881902    0.035869   -1.187731
     48          6           0        4.804428    0.765226   -2.469917
     49          6           0        6.291872    0.161946   -0.408554
     50          6           0        7.477348   -0.582207   -1.028789
     51          6           0        8.812838   -0.293020   -0.097962
     52          6           0       10.075773   -0.728426   -0.797998
     53          6           0       10.029135   -2.257743   -1.106315
     54          6           0       11.286895   -0.209394   -0.021041
     55          6           0       12.661382   -0.485806   -0.579488
     56          6           0       13.866213    0.154796    0.303392
     57          6           0       15.209172   -0.187928   -0.273471
     58          6           0       15.584913   -1.701653   -0.013446
     59          6           0       16.395850    0.666289    0.483536
     60          6           0       17.736823    0.746062   -0.041749
     61          6           0       18.684113    1.669260    0.631538
     62          6           0       20.036782    1.709062    0.180874
     63          6           0       20.269360    2.038452   -1.298337
     64          6           0       20.801681    2.664080    1.056456
     65          1           0       -3.944221    3.399283    1.866921
     66          1           0      -10.028416    4.280801   -0.309612
     67          1           0      -10.569577   -2.132818   -0.860721
     68          1           0       -2.644949   -1.239322    1.970682
     69          1           0       -2.220838    1.356660    1.240485
     70          1           0       -1.909043    0.264152    3.545758
     71          1           0       -2.677416    2.097954    3.461145
     72          1           0       -3.797845    0.656818    3.691437
     73          1           0       -2.218755   -1.804253   -0.516378
     74          1           0       -2.247113    0.057241   -0.807978
     75          1           0       -0.421350    0.219343    0.773979
     76          1           0       -0.460998   -1.484762    1.313361
     77          1           0       -4.251105    5.991788    0.829837
     78          1           0       -5.735681    6.639381    1.508611
     79          1           0       -4.861212    5.339354    2.559441
     80          1           0       -7.835512    7.007012    1.077410
     81          1           0       -9.336612    6.072033   -1.310431
     82          1           0       -9.533955    7.725858   -0.555668
     83          1           0      -12.800009    3.464041    0.072588
     84          1           0      -11.843847    3.819469   -1.535823
     85          1           0      -13.095562    2.475700   -1.679281
     86          1           0      -12.726655   -1.221151   -1.036907
     87          1           0      -13.547466    0.447801   -0.990454
     88          1           0      -12.660090    0.582340   -3.409911
     89          1           0      -12.319493   -1.056007   -3.441273
     90          1           0      -13.948858   -0.760660   -3.321937
     91          1           0      -10.021191   -4.683492   -0.026708
     92          1           0       -9.212363   -4.400416   -1.793851
     93          1           0       -8.594216   -5.506582   -0.762141
     94          1           0       -3.684046   -3.723116   -0.386818
     95          1           0       -1.895964   -6.302363    2.507942
     96          1           0       -1.876138   -4.667010    3.103974
     97          1           0       -3.349676   -6.092901    3.147578
     98          1           0        2.509121   -2.072410   -1.508697
     99          1           0        2.399694   -0.626599   -2.309305
    100          1           0        4.005370   -1.465369    0.125624
    101          1           0        4.929107    1.988949   -2.243727
    102          1           0        5.631287    0.049534   -3.105905
    103          1           0        3.863203    0.556682   -2.720814
    104          1           0        6.702147    1.157179   -0.417910
    105          1           0        6.249485   -0.435584    0.512460
    106          1           0        7.161309   -1.666374   -0.953641
    107          1           0        7.818028   -0.276240   -1.941058
    108          1           0        8.800961    0.673753    0.210752
    109          1           0        8.805405   -0.712403    0.877267
    110          1           0       10.097452   -0.286734   -1.856014
    111          1           0        9.096646   -2.590506   -1.665220
    112          1           0       11.005554   -2.699759   -1.615379
    113          1           0        9.905686   -2.765767    0.026040
    114          1           0       11.179025    0.825372    0.210196
    115          1           0       11.070747   -0.624598    1.262225
    116          1           0       12.799529   -1.551136   -0.942062
    117          1           0       12.794560   -0.236968   -1.422352
    118          1           0       13.618103    1.120442    0.387032
    119          1           0       13.758442   -0.314208    1.359691
    120          1           0       15.429020    0.006261   -1.385319
    121          1           0       14.924266   -2.412729   -0.795927
    122          1           0       16.696039   -1.937463   -0.282376
    123          1           0       15.735809   -2.031009    1.099167
    124          1           0       16.089466    1.756381    0.531890
    125          1           0       16.311725    0.271182    1.648142
    126          1           0       18.309704   -0.330786   -0.050033
    127          1           0       17.748057    0.991337   -1.122323
    128          1           0       18.425329    2.809449    0.641274
    129          1           0       18.471770    1.383717    1.719346
    130          1           0       20.573452    0.729990    0.108349
    131          1           0       19.668813    3.058834   -1.541186
    132          1           0       21.238044    2.032995   -1.496269
    133          1           0       19.475943    1.318605   -2.088447
    134          1           0       21.144709    2.159182    2.069901
    135          1           0       21.866512    2.906875    0.606875
    136          1           0       20.233832    3.537627    0.967152
    137          1           0       -7.192377    1.769178    0.478654
    138          1           0       -7.559555   -0.099800   -0.099262
 ---------------------------------------------------------------------

 SCF Done:  E(RB3LYP) =  -2732.94097645     A.U. after   17 cycles

 Excitation energies and oscillator strengths:

 Excited State   1:      Singlet-A      2.0492 eV  605.03 nm  f=0.0979  <S**2>=0.000
     235 -> 237       -0.25285
     235 -> 238       -0.31776
     236 -> 237        0.54504
     236 -> 238       -0.17711
 This state for optimization and/or second-order correction.
 Total Energy, E(TD-HF/TD-KS) =  -2732.86566913
 Copying the excited state density for this state as the 1-particle RhoCI density.

 The electronic state is 1-A.
 Alpha  occ. eigenvalues --  -19.18826 -19.18581 -19.13006 -19.12294 -19.11669
 Alpha  occ. eigenvalues --  -14.36448 -14.36345 -14.32106 -14.29263 -10.31809
 Alpha  occ. eigenvalues --  -10.30654 -10.27833 -10.25246 -10.23975 -10.23372
 Alpha  occ. eigenvalues --  -10.23347 -10.23146 -10.22992 -10.22902 -10.22639
 Alpha  occ. eigenvalues --  -10.22131 -10.21387 -10.21387 -10.21166 -10.20859
 Alpha  occ. eigenvalues --  -10.20809 -10.20790 -10.20760 -10.20651 -10.20582
 Alpha  occ. eigenvalues --  -10.20535 -10.20410 -10.20402 -10.20358 -10.20255
 Alpha  occ. eigenvalues --  -10.20210 -10.20207 -10.19877 -10.19874 -10.19824
 Alpha  occ. eigenvalues --  -10.19772 -10.19714 -10.19685 -10.19668 -10.19564
 Alpha  occ. eigenvalues --  -10.19561 -10.19469 -10.19267 -10.19234 -10.19084
 Alpha  occ. eigenvalues --  -10.18977 -10.18970 -10.18957 -10.18915 -10.18860
 Alpha  occ. eigenvalues --  -10.18783 -10.18761 -10.18702 -10.18648 -10.18422
 Alpha  occ. eigenvalues --  -10.18349 -10.17646 -10.17572 -10.16927  -1.14158
 Alpha  occ. eigenvalues --   -1.09977  -1.03334  -1.02005  -1.01740  -0.97687
 Alpha  occ. eigenvalues --   -0.97147  -0.95878  -0.92130  -0.85034  -0.83323
 Alpha  occ. eigenvalues --   -0.83036  -0.81814  -0.81212  -0.81064  -0.80929
 Alpha  occ. eigenvalues --   -0.80199  -0.80021  -0.79290  -0.78276  -0.78029
 Alpha  occ. eigenvalues --   -0.77234  -0.76578  -0.76132  -0.75137  -0.74498
 Alpha  occ. eigenvalues --   -0.73938  -0.73519  -0.72462  -0.72227  -0.70707
 Alpha  occ. eigenvalues --   -0.70002  -0.68764  -0.68363  -0.67686  -0.67481
 Alpha  occ. eigenvalues --   -0.67036  -0.66607  -0.66361  -0.65869  -0.65544
 Alpha  occ. eigenvalues --   -0.64034  -0.62863  -0.62633  -0.62053  -0.61205
 Alpha  occ. eigenvalues --   -0.61034  -0.59300  -0.58856  -0.58317  -0.57929
 Alpha  occ. eigenvalues --   -0.57516  -0.57005  -0.56001  -0.55804  -0.55104
 Alpha  occ. eigenvalues --   -0.54936  -0.54633  -0.54441  -0.54315  -0.54013
 Alpha  occ. eigenvalues --   -0.52713  -0.52471  -0.51824  -0.51173  -0.50655
 Alpha  occ. eigenvalues --   -0.50143  -0.49725  -0.49427  -0.49321  -0.49162
 Alpha  occ. eigenvalues --   -0.48734  -0.48562  -0.48020  -0.47486  -0.47238
 Alpha  occ. eigenvalues --   -0.47148  -0.46990  -0.46524  -0.46116  -0.45918
 Alpha  occ. eigenvalues --   -0.45473  -0.45166  -0.45034  -0.44925  -0.44625
 Alpha  occ. eigenvalues --   -0.44425  -0.44240  -0.44137  -0.44072  -0.43710
 Alpha  occ. eigenvalues --   -0.43614  -0.43557  -0.43245  -0.42854  -0.42724
 Alpha  occ. eigenvalues --   -0.42368  -0.42206  -0.41908  -0.41822  -0.41633
 Alpha  occ. eigenvalues --   -0.41584  -0.41298  -0.41077  -0.40774  -0.40322
 Alpha  occ. eigenvalues --   -0.40172  -0.39872  -0.39642  -0.39575  -0.39198
 Alpha  occ. eigenvalues --   -0.38969  -0.38833  -0.38594  -0.38524  -0.38415
 Alpha  occ. eigenvalues --   -0.37954  -0.37944  -0.37750  -0.37627  -0.37544
 Alpha  occ. eigenvalues --   -0.37335  -0.37144  -0.37016  -0.36975  -0.36864
 Alpha  occ. eigenvalues --   -0.36583  -0.36350  -0.36216  -0.35782  -0.35703
 Alpha  occ. eigenvalues --   -0.35492  -0.35473  -0.35273  -0.35157  -0.35107
 Alpha  occ. eigenvalues --   -0.34668  -0.34230  -0.33942  -0.33897  -0.33599
 Alpha  occ. eigenvalues --   -0.33237  -0.33096  -0.33051  -0.32873  -0.32524
 Alpha  occ. eigenvalues --   -0.32445  -0.32099  -0.31819  -0.31470  -0.31353
 Alpha  occ. eigenvalues --   -0.31090  -0.30909  -0.30249  -0.30054  -0.29781
 Alpha  occ. eigenvalues --   -0.29398  -0.29070  -0.28216  -0.28167  -0.27978
 Alpha  occ. eigenvalues --   -0.27857  -0.27025  -0.26590  -0.26263  -0.25730
 Alpha  occ. eigenvalues --   -0.25525  -0.25020  -0.22790  -0.21179  -0.19425
 Alpha  occ. eigenvalues --   -0.19016
 Alpha virt. eigenvalues --   -0.10143  -0.08175  -0.04729  -0.02505  -0.00986
 Alpha virt. eigenvalues --    0.00207   0.00273   0.01942   0.02695   0.02955
 Alpha virt. eigenvalues --    0.03562   0.03603   0.03776   0.04147   0.04434

 Mulliken charges:
               1
     1  C   -0.024087
     2  C   -0.074390
     3  C   -0.115241
     4  C   -0.076356
     5  N   -0.092533
     6  C   -0.034291
     7  C   -0.000625
     8  C   -0.010599
     9  C   -0.055165
    10  C    0.034959
    11  C    0.004017
    12  C    0.025473
    13  C    0.109177
    14  O   -0.200422
    15  O   -0.227825
    16  N   -0.051864
    17  C    0.143873
    18  C   -0.154895
    19  C    0.036797
    20  C    0.075356
    21  C    0.057363
    22  C   -0.034263
    23  C   -0.018739
    24  N   -0.278490
    25  C    0.146284
    26  C   -0.183284
    27  C   -0.092282
    28  C    0.057965
    29  C    0.034059
    30  C    0.018551
    31  C    0.083760
    32  N   -0.128325
    33  C    0.060456
    34  C   -0.149178
    35  C    0.041841
    36  C    0.120775
    37  C    0.150584
    38  C    0.045946
    39  O   -0.184527
    40  C   -0.039795
    41  C    0.203851
    42  O   -0.211607
    43  O   -0.290943
    44  C    0.161270
    45  C    0.324647
    46  C   -0.073500
    47  C   -0.150376
    48  C    0.107909
    49  C    0.097897
    50  C    0.007006
    51  C    0.076654
    52  C   -0.067728
    53  C   -0.054058
    54  C    0.006388
    55  C    0.175331
    56  C    0.117257
    57  C   -0.078175
    58  C   -0.054927
    59  C   -0.035689
    60  C    0.053470
    61  C    0.005112
    62  C   -0.072473
    63  C   -0.022776
    64  C    0.037514
    65  H   -0.005589
    66  H   -0.004971
    67  H   -0.025486
    68  H   -0.044229
    69  H   -0.028914
    70  H    0.038992
    71  H    0.022698
    72  H    0.034063
    73  H    0.011011
    74  H    0.022933
    75  H    0.011091
    76  H    0.009808
    77  H    0.038557
    78  H   -0.011106
    79  H    0.048603
    80  H   -0.009022
    81  H   -0.010602
    82  H    0.041803
    83  H    0.066964
    84  H    0.021974
    85  H    0.026460
    86  H    0.004374
    87  H    0.018157
    88  H   -0.012491
    89  H   -0.009999
    90  H    0.019011
    91  H    0.058050
    92  H    0.015391
    93  H    0.011223
    94  H    0.063692
    95  H    0.011178
    96  H    0.036959
    97  H    0.043467
    98  H   -0.058653
    99  H    0.017061
   100  H   -0.021380
   101  H    0.061236
   102  H    0.070302
   103  H   -0.042910
   104  H   -0.011627
   105  H    0.004153
   106  H    0.014871
   107  H   -0.017543
   108  H   -0.051825
   109  H   -0.032103
   110  H   -0.003025
   111  H    0.031566
   112  H    0.038072
   113  H    0.013661
   114  H   -0.016624
   115  H   -0.014527
   116  H   -0.028354
   117  H   -0.128367
   118  H   -0.038444
   119  H    0.012114
   120  H    0.007890
   121  H    0.038886
   122  H    0.009514
   123  H    0.025591
   124  H   -0.004677
   125  H    0.007153
   126  H    0.001758
   127  H   -0.013881
   128  H   -0.009639
   129  H   -0.001898
   130  H   -0.014008
   131  H    0.003381
   132  H   -0.005007
   133  H    0.026289
   134  H    0.035692
   135  H   -0.001046
   136  H   -0.006047
   137  H    0.096724
   138  H    0.209507
 Sum of Mulliken charges =   0.00000

 Dipole moment (field-independent basis, Debye):
    X=              4.3963    Y=              2.6592    Z=              0.3735  Tot=              5.1515
 Quadrupole moment (field-independent basis, Debye-Ang):
   XX=           -361.7265   YY=           -380.6193   ZZ=           -398.8803
   XY=            -10.6989   XZ=             -0.9753   YZ=             -1.2496

 Normal termination of Gaussian 09 at Fri Jul 26 08:26:36 2019.
