 Gaussian 09, Revision D.01,
 Gaussian 09:  ES64L-G09RevD.01 24-Apr-2013

 --------------------------
 # td=(NStates=1) B3LYP/SVP
 --------------------------

 --
 TD
 --
 Symbolic Z-matrix:
 Charge =  0 Multiplicity = 1

                         Standard orientation:
 ---------------------------------------------------------------------
 Center     Atomic      Atomic             Coordinates (Angstroms)
 Number     Number       Type             X           Y           Z
 ---------------------------------------------------------------------
      1          6           0       -5.057630   -1.873203    0.423765
      2          6           0       -4.829331    2.768011    1.305511
      3          6           0       -9.375930    3.326318   -0.342327
      4          6           0       -9.862969   -1.651396   -0.806160
      5          7           0       -5.351484    0.472989    0.778337
      6          6           0       -4.430596   -0.624257    0.754828
      7          6           0       -3.006435   -0.520909    1.163782
      8          6           0       -3.049262    0.958451    1.619055
      9          6           0       -4.556272    1.458108    1.257282
     10          6           0       -2.938647    1.147687    3.184490
     11          6           0       -2.026434   -0.689054    0.024243
     12          6           0       -0.473218   -0.588800    0.424263
     13          6           0        0.457066   -0.991942   -0.769610
     14          8           0        0.110775   -1.707250   -1.678550
     15          8           0        1.650091   -0.449371   -0.472403
     16          7           0       -7.110139    2.748489    0.281949
     17          6           0       -6.033298    3.363534    0.919770
     18          6           0       -6.426552    4.776640    1.028665
     19          6           0       -7.756887    4.963273    0.442046
     20          6           0       -8.101189    3.678304    0.100143
     21          6           0       -5.561329    5.820344    1.623653
     22          6           0       -8.459329    6.211550    0.376374
     23          6           0       -9.226821    6.628893   -0.628246
     24          7           0       -9.247665    0.727123   -0.507404
     25          6           0       -9.884154    1.997125   -0.545289
     26          6           0      -11.417741    1.658575   -0.954022
     27          6           0      -11.524945    0.347664   -1.106559
     28          6           0      -10.161626   -0.187350   -0.812913
     29          6           0      -12.384396    2.756415   -1.014503
     30          6           0      -12.641273   -0.570176   -1.493587
     31          6           0      -12.731593   -0.663256   -3.081804
     32          7           0       -7.517190   -1.318065   -0.169996
     33          6           0       -8.592242   -2.120595   -0.547220
     34          6           0       -8.113502   -3.511793   -0.581672
     35          6           0       -6.834159   -3.376444   -0.177084
     36          6           0       -6.386820   -1.987584    0.062341
     37          6           0       -9.028361   -4.679791   -0.680720
     38          6           0       -5.579581   -4.215444    0.133052
     39          8           0       -5.488559   -5.392509    0.139961
     40          6           0       -4.353987   -3.128519    0.402541
     41          6           0       -3.814301   -3.688154    1.764951
     42          8           0       -4.052058   -3.133254    2.863782
     43          8           0       -2.974629   -4.687272    1.557755
     44          6           0       -2.531756   -5.392658    2.704857
     45          6           0        2.627723   -0.879511   -1.356296
     46          6           0        3.959385   -0.571781   -0.708337
     47          6           0        5.041279    0.065964   -1.190416
     48          6           0        5.080738    0.751557   -2.553364
     49          6           0        6.279141    0.264593   -0.390918
     50          6           0        7.585204   -0.471611   -0.996867
     51          6           0        8.847845   -0.236550   -0.025519
     52          6           0       10.145483   -0.838727   -0.665750
     53          6           0       10.024395   -2.342268   -0.875619
     54          6           0       11.330383   -0.392834    0.163441
     55          6           0       12.742163   -0.577680   -0.455479
     56          6           0       13.876625   -0.100943    0.359160
     57          6           0       15.273212   -0.202393   -0.382456
     58          6           0       15.699951   -1.521836   -0.652493
     59          6           0       16.239370    0.644323    0.388681
     60          6           0       17.651361    0.731310   -0.195055
     61          6           0       18.626959    1.601434    0.629972
     62          6           0       20.049226    1.703940    0.205806
     63          6           0       20.355608    2.213596   -1.200089
     64          6           0       20.979566    2.300793    1.176709
     65          1           0       -4.118282    3.563268    1.688284
     66          1           0      -10.227190    4.157629   -0.207725
     67          1           0      -10.637125   -2.472371   -1.070404
     68          1           0       -2.728100   -1.196497    2.119729
     69          1           0       -2.158924    1.756630    1.207090
     70          1           0       -2.147184    0.633375    3.465471
     71          1           0       -3.100388    2.159457    3.487845
     72          1           0       -3.695798    0.463876    3.641754
     73          1           0       -2.099144   -1.727758   -0.487262
     74          1           0       -2.044428    0.123740   -0.574263
     75          1           0       -0.143747    0.440399    0.824785
     76          1           0       -0.046311   -1.466459    1.186282
     77          1           0       -4.497185    5.773701    1.340881
     78          1           0       -5.935827    6.855067    1.473461
     79          1           0       -5.349046    5.754823    2.835604
     80          1           0       -8.337300    6.784261    1.343002
     81          1           0       -9.257660    6.125781   -1.535864
     82          1           0       -9.828628    7.527841   -0.500070
     83          1           0      -12.507057    3.575894   -0.254452
     84          1           0      -12.294348    3.438548   -2.062854
     85          1           0      -13.386471    2.237240   -1.259265
     86          1           0      -12.704980   -1.593628   -0.922286
     87          1           0      -13.520379    0.014132   -1.166915
     88          1           0      -12.790712    0.434171   -3.541627
     89          1           0      -11.846516   -1.128412   -3.571436
     90          1           0      -13.595754   -1.084718   -3.584207
     91          1           0       -9.762397   -4.624347    0.187709
     92          1           0       -9.548033   -4.566331   -1.653764
     93          1           0       -8.447876   -5.844329   -0.759443
     94          1           0       -3.528130   -3.344745   -0.270921
     95          1           0       -1.999340   -6.237395    2.435314
     96          1           0       -1.818435   -4.875449    3.439521
     97          1           0       -3.217555   -5.648312    3.417433
     98          1           0        2.712351   -2.018604   -1.628828
     99          1           0        2.353208   -0.215033   -2.112943
    100          1           0        4.229021   -1.099749    0.215234
    101          1           0        5.266906    1.855433   -2.291192
    102          1           0        6.003579    0.425801   -3.069804
    103          1           0        4.337301    0.725674   -3.181702
    104          1           0        6.778131    1.294016   -0.258966
    105          1           0        5.906194   -0.237486    0.552606
    106          1           0        7.294095   -1.461908   -1.173275
    107          1           0        7.790913   -0.118415   -1.904139
    108          1           0        8.814219    0.871043    0.010487
    109          1           0        8.759527   -0.635491    0.887155
    110          1           0        9.952340   -0.497936   -1.649002
    111          1           0        9.068602   -2.895085   -1.200663
    112          1           0       10.846258   -2.755542   -1.547452
    113          1           0       10.119385   -2.727100    0.227512
    114          1           0       11.270351    0.746132    0.454785
    115          1           0       11.237499   -0.833786    1.127228
    116          1           0       12.581628   -1.709530   -0.666957
    117          1           0       12.697003   -0.142770   -1.636138
    118          1           0       13.759087    1.061408    0.642512
    119          1           0       14.046205   -0.505299    1.321400
    120          1           0       14.771200    0.365554   -1.365902
    121          1           0       15.080530   -2.183204   -1.329999
    122          1           0       16.779974   -1.391787   -0.960312
    123          1           0       15.777945   -2.260505    0.238057
    124          1           0       15.869927    1.740457    0.558671
    125          1           0       16.341023    0.237169    1.502807
    126          1           0       18.185129   -0.197011   -0.274983
    127          1           0       17.581714    1.172340   -1.250678
    128          1           0       18.255492    2.599856    0.547308
    129          1           0       18.702420    1.453311    1.904707
    130          1           0       20.326186    0.475471   -0.031616
    131          1           0       19.732833    3.078078   -1.306575
    132          1           0       21.499055    2.575134   -1.299861
    133          1           0       19.813822    1.505591   -2.012573
    134          1           0       20.740291    2.126891    2.318138
    135          1           0       22.082642    2.059835    1.132273
    136          1           0       20.880525    3.395508    1.132675
    137          1           0       -7.130350    1.680798    0.219586
    138          1           0       -7.494236   -0.270486   -0.169616
 ---------------------------------------------------------------------

 SCF Done:  E(RB3LYP) =  -2733.04117837     A.U. after   16 cycles

 Excitation energies and oscillator strengths:

 Excited State   1:      Singlet-A      2.0112 eV  616.47 nm  f=0.1960  <S**2>=0.000
     235 -> 237        0.11806
     235 -> 238       -0.26664
     236 -> 237        0.63751
 This state for optimization and/or second-order correction.
 Total Energy, E(TD-HF/TD-KS) =  -2732.96726862
 Copying the excited state density for this state as the 1-particle RhoCI density.

 The electronic state is 1-A.
 Alpha  occ. eigenvalues --  -19.19727 -19.18889 -19.13442 -19.13224 -19.12141
 Alpha  occ. eigenvalues --  -14.36857 -14.36516 -14.33447 -14.30647 -10.32098
 Alpha  occ. eigenvalues --  -10.32032 -10.28417 -10.25158 -10.24036 -10.23728
 Alpha  occ. eigenvalues --  -10.23561 -10.23228 -10.22982 -10.22694 -10.22240
 Alpha  occ. eigenvalues --  -10.22225 -10.22012 -10.21966 -10.21938 -10.21685
 Alpha  occ. eigenvalues --  -10.21344 -10.21314 -10.21309 -10.20855 -10.20775
 Alpha  occ. eigenvalues --  -10.20734 -10.20554 -10.20493 -10.20327 -10.20143
 Alpha  occ. eigenvalues --  -10.20103 -10.20057 -10.19938 -10.19834 -10.19828
 Alpha  occ. eigenvalues --  -10.19827 -10.19794 -10.19574 -10.19501 -10.19439
 Alpha  occ. eigenvalues --  -10.19387 -10.19350 -10.19238 -10.19174 -10.19111
 Alpha  occ. eigenvalues --  -10.18960 -10.18874 -10.18828 -10.18766 -10.18690
 Alpha  occ. eigenvalues --  -10.18665 -10.18638 -10.18587 -10.18280 -10.18266
 Alpha  occ. eigenvalues --  -10.18218 -10.18051 -10.17765 -10.17238  -1.11625
 Alpha  occ. eigenvalues --   -1.10678  -1.05067  -1.02618  -0.99196  -0.98353
 Alpha  occ. eigenvalues --   -0.96989  -0.93369  -0.91940  -0.84471  -0.82938
 Alpha  occ. eigenvalues --   -0.82501  -0.81868  -0.81522  -0.81118  -0.80897
 Alpha  occ. eigenvalues --   -0.80754  -0.79691  -0.79354  -0.77748  -0.77578
 Alpha  occ. eigenvalues --   -0.76402  -0.76183  -0.75558  -0.74773  -0.74143
 Alpha  occ. eigenvalues --   -0.73819  -0.73416  -0.72325  -0.71663  -0.70230
 Alpha  occ. eigenvalues --   -0.70174  -0.69070  -0.68687  -0.68020  -0.67578
 Alpha  occ. eigenvalues --   -0.67155  -0.66952  -0.66666  -0.65881  -0.64598
 Alpha  occ. eigenvalues --   -0.63352  -0.62890  -0.62200  -0.61618  -0.61050
 Alpha  occ. eigenvalues --   -0.61020  -0.59838  -0.58642  -0.57844  -0.57305
 Alpha  occ. eigenvalues --   -0.57106  -0.56475  -0.56237  -0.55959  -0.55574
 Alpha  occ. eigenvalues --   -0.54360  -0.54331  -0.53766  -0.53617  -0.53385
 Alpha  occ. eigenvalues --   -0.51949  -0.51389  -0.51032  -0.50758  -0.50146
 Alpha  occ. eigenvalues --   -0.49834  -0.49489  -0.49205  -0.48422  -0.48248
 Alpha  occ. eigenvalues --   -0.47969  -0.47933  -0.47636  -0.47514  -0.47249
 Alpha  occ. eigenvalues --   -0.46736  -0.46276  -0.46116  -0.45961  -0.45708
 Alpha  occ. eigenvalues --   -0.45430  -0.45149  -0.45014  -0.44959  -0.44776
 Alpha  occ. eigenvalues --   -0.44489  -0.43962  -0.43829  -0.43690  -0.43353
 Alpha  occ. eigenvalues --   -0.43114  -0.43023  -0.42872  -0.42808  -0.42262
 Alpha  occ. eigenvalues --   -0.42158  -0.42005  -0.41787  -0.41600  -0.41526
 Alpha  occ. eigenvalues --   -0.41195  -0.41047  -0.40870  -0.40701  -0.40584
 Alpha  occ. eigenvalues --   -0.40151  -0.39981  -0.39604  -0.39389  -0.39279
 Alpha  occ. eigenvalues --   -0.39165  -0.39125  -0.38516  -0.38410  -0.38319
 Alpha  occ. eigenvalues --   -0.38063  -0.37832  -0.37546  -0.37523  -0.37409
 Alpha  occ. eigenvalues --   -0.37110  -0.36991  -0.36903  -0.36737  -0.36681
 Alpha  occ. eigenvalues --   -0.36610  -0.36295  -0.36210  -0.36117  -0.36009
 Alpha  occ. eigenvalues --   -0.35958  -0.35536  -0.35458  -0.35129  -0.34904
 Alpha  occ. eigenvalues --   -0.34785  -0.34189  -0.34078  -0.33878  -0.33745
 Alpha  occ. eigenvalues --   -0.33493  -0.33325  -0.33141  -0.33118  -0.32795
 Alpha  occ. eigenvalues --   -0.32352  -0.32266  -0.31984  -0.31472  -0.31453
 Alpha  occ. eigenvalues --   -0.31276  -0.31249  -0.30458  -0.30237  -0.29934
 Alpha  occ. eigenvalues --   -0.29324  -0.28762  -0.28156  -0.27869  -0.27689
 Alpha  occ. eigenvalues --   -0.27424  -0.27262  -0.26706  -0.25872  -0.25750
 Alpha  occ. eigenvalues --   -0.24425  -0.24387  -0.23440  -0.23211  -0.19766
 Alpha  occ. eigenvalues --   -0.18091
 Alpha virt. eigenvalues --   -0.09792  -0.07261  -0.03934  -0.01700  -0.00451
 Alpha virt. eigenvalues --   -0.00076   0.00314   0.00668   0.01421   0.03515
 Alpha virt. eigenvalues --    0.03593   0.03853   0.04024   0.04557   0.04695

 Mulliken charges:
               1
     1  C    0.013140
     2  C   -0.100447
     3  C   -0.136014
     4  C   -0.104782
     5  N   -0.232986
     6  C   -0.022697
     7  C    0.024987
     8  C   -0.202497
     9  C    0.124065
    10  C    0.146631
    11  C    0.096435
    12  C   -0.079895
    13  C    0.166252
    14  O   -0.221679
    15  O   -0.282225
    16  N   -0.106766
    17  C    0.068438
    18  C   -0.112910
    19  C    0.036254
    20  C    0.124400
    21  C    0.018012
    22  C   -0.080553
    23  C    0.016725
    24  N   -0.239065
    25  C    0.044323
    26  C   -0.090300
    27  C   -0.081850
    28  C    0.037652
    29  C   -0.011145
    30  C    0.062326
    31  C   -0.024394
    32  N   -0.029188
    33  C    0.079867
    34  C   -0.154840
    35  C   -0.014385
    36  C    0.106332
    37  C    0.007113
    38  C    0.078787
    39  O   -0.121932
    40  C   -0.106543
    41  C    0.195744
    42  O   -0.271128
    43  O   -0.255292
    44  C    0.247087
    45  C    0.303147
    46  C   -0.108037
    47  C   -0.162724
    48  C    0.139653
    49  C    0.041504
    50  C    0.025414
    51  C    0.070895
    52  C   -0.024036
    53  C   -0.049270
    54  C    0.043145
    55  C   -0.005891
    56  C    0.054397
    57  C   -0.094578
    58  C    0.039757
    59  C   -0.013412
    60  C    0.033110
    61  C    0.000424
    62  C   -0.124149
    63  C   -0.001744
    64  C    0.016841
    65  H   -0.014664
    66  H    0.036182
    67  H    0.010048
    68  H    0.063345
    69  H    0.030783
    70  H   -0.037332
    71  H    0.016633
    72  H    0.007862
    73  H    0.051243
    74  H   -0.015683
    75  H    0.048383
    76  H    0.049577
    77  H    0.021949
    78  H    0.019858
    79  H    0.025878
    80  H    0.024115
    81  H    0.012109
    82  H    0.021584
    83  H    0.048454
    84  H    0.026121
    85  H    0.010696
    86  H    0.033939
    87  H    0.001027
    88  H    0.016380
    89  H    0.020794
    90  H    0.010885
    91  H    0.061833
    92  H    0.035236
    93  H    0.072917
    94  H    0.055930
    95  H    0.009349
    96  H    0.012490
    97  H    0.001809
    98  H    0.061754
    99  H   -0.013535
   100  H   -0.018866
   101  H    0.015815
   102  H    0.008918
   103  H   -0.040609
   104  H    0.019235
   105  H   -0.000131
   106  H   -0.019777
   107  H   -0.030557
   108  H   -0.002174
   109  H   -0.040215
   110  H   -0.031020
   111  H    0.030199
   112  H    0.034488
   113  H    0.001016
   114  H   -0.008372
   115  H   -0.018404
   116  H    0.003075
   117  H    0.015428
   118  H   -0.000584
   119  H   -0.028155
   120  H    0.009007
   121  H    0.021166
   122  H    0.011378
   123  H   -0.000033
   124  H    0.008646
   125  H    0.005954
   126  H    0.006212
   127  H    0.009766
   128  H   -0.027287
   129  H    0.015835
   130  H   -0.009099
   131  H   -0.017600
   132  H    0.043911
   133  H    0.028451
   134  H    0.006629
   135  H    0.024993
   136  H   -0.001124
   137  H    0.179972
   138  H    0.160459
 Sum of Mulliken charges =   0.00000

 Dipole moment (field-independent basis, Debye):
    X=              2.5528    Y=              2.3080    Z=              0.2253  Tot=              3.4488
 Quadrupole moment (field-independent basis, Debye-Ang):
   XX=           -359.3546   YY=           -378.2747   ZZ=           -397.3141
   XY=             -8.1078   XZ=             10.3101   YZ=             -1.5748

 Normal termination of Gaussian 09 at Sun Aug  4 12:45:50 2019.
