 Gaussian 09, Revision D.01,
 Gaussian 09:  ES64L-G09RevD.01 24-Apr-2013

 --------------------------
 # td=(NStates=1) B3LYP/SVP
 --------------------------

 --
 TD
 --
 Symbolic Z-matrix:
 Charge =  0 Multiplicity = 1

                         Standard orientation:
 ---------------------------------------------------------------------
 Center     Atomic      Atomic             Coordinates (Angstroms)
 Number     Number       Type             X           Y           Z
 ---------------------------------------------------------------------
      1          6           0       -5.189042   -1.921364    0.643952
      2          6           0       -4.759987    2.846525    1.442764
      3          6           0       -9.255615    3.329698   -0.329038
      4          6           0       -9.741179   -1.516705   -0.864539
      5          7           0       -5.159946    0.486230    0.871082
      6          6           0       -4.476522   -0.691127    0.838919
      7          6           0       -3.028035   -0.494190    1.294178
      8          6           0       -3.030408    0.908770    1.830140
      9          6           0       -4.387020    1.425567    1.353072
     10          6           0       -3.067397    0.944422    3.388717
     11          6           0       -2.011801   -0.713105    0.121537
     12          6           0       -0.555027   -0.801533    0.540849
     13          6           0        0.413432   -1.088210   -0.551450
     14          8           0        0.155868   -1.801356   -1.563925
     15          8           0        1.661421   -0.898024   -0.225586
     16          7           0       -7.060594    2.792626    0.512788
     17          6           0       -5.980189    3.365018    1.000730
     18          6           0       -6.343040    4.738889    1.124945
     19          6           0       -7.552404    4.926542    0.432678
     20          6           0       -8.077251    3.637044    0.124984
     21          6           0       -5.406227    5.763652    1.692607
     22          6           0       -8.262936    6.219551    0.357493
     23          6           0       -9.046769    6.687729   -0.704834
     24          7           0       -9.281506    0.876751   -0.459910
     25          6           0       -9.949267    2.077792   -0.508185
     26          6           0      -11.273039    1.911380   -1.084764
     27          6           0      -11.454355    0.474039   -1.234050
     28          6           0      -10.156166   -0.110734   -0.854058
     29          6           0      -12.132230    3.072678   -1.340569
     30          6           0      -12.761606   -0.206236   -1.670529
     31          6           0      -12.695295   -0.335322   -3.207430
     32          7           0       -7.558129   -1.160528   -0.226929
     33          6           0       -8.577723   -2.077611   -0.570507
     34          6           0       -8.174166   -3.409048   -0.610990
     35          6           0       -6.843742   -3.372546   -0.085965
     36          6           0       -6.564271   -2.015283    0.235507
     37          6           0       -8.940637   -4.549922   -1.107251
     38          6           0       -5.749957   -4.306044    0.035051
     39          8           0       -5.682455   -5.484113   -0.015587
     40          6           0       -4.567720   -3.282989    0.527271
     41          6           0       -3.922200   -3.909240    1.804248
     42          8           0       -4.331605   -3.636230    2.916793
     43          8           0       -2.953795   -4.762185    1.467766
     44          6           0       -2.296822   -5.367028    2.564802
     45          6           0        2.748731   -1.208941   -1.228133
     46          6           0        4.011791   -0.832393   -0.607013
     47          6           0        4.942123   -0.131653   -1.197645
     48          6           0        4.948685    0.345066   -2.615678
     49          6           0        6.207943    0.113316   -0.443504
     50          6           0        7.585165   -0.358471   -0.951326
     51          6           0        8.837516   -0.068199   -0.194319
     52          6           0       10.087354   -0.657781   -0.821583
     53          6           0        9.978671   -2.269611   -0.940315
     54          6           0       11.355924   -0.286311    0.017958
     55          6           0       12.673148   -0.528224   -0.664257
     56          6           0       13.825186    0.008046    0.326190
     57          6           0       15.212187   -0.115593   -0.366462
     58          6           0       15.751116   -1.530887   -0.469758
     59          6           0       16.163009    0.806681    0.426677
     60          6           0       17.687114    0.736686   -0.057643
     61          6           0       18.560979    1.759399    0.566929
     62          6           0       20.107018    1.658851    0.062663
     63          6           0       20.312342    2.089033   -1.370699
     64          6           0       20.882149    2.588325    1.119504
     65          1           0       -4.205213    3.478293    2.047466
     66          1           0       -9.948045    4.234333   -0.409109
     67          1           0      -10.677261   -2.055738   -1.174760
     68          1           0       -2.675828   -1.131012    2.105221
     69          1           0       -2.043721    1.560600    1.752268
     70          1           0       -2.168659    0.618902    3.720369
     71          1           0       -3.111005    1.867467    3.805811
     72          1           0       -3.839342    0.346004    3.666379
     73          1           0       -2.224222   -1.782779   -0.468483
     74          1           0       -2.195233    0.042609   -0.515968
     75          1           0       -0.281499    0.268966    0.838163
     76          1           0       -0.523395   -1.341919    1.478606
     77          1           0       -4.449173    6.003818    1.126596
     78          1           0       -6.131061    6.672548    2.075072
     79          1           0       -4.816446    5.680422    2.521046
     80          1           0       -8.068183    6.944257    1.087460
     81          1           0       -9.411627    6.043942   -1.605075
     82          1           0       -9.456969    7.714577   -0.624669
     83          1           0      -12.533108    3.492211   -0.497159
     84          1           0      -11.490770    3.901390   -1.979531
     85          1           0      -13.006082    2.657095   -2.035445
     86          1           0      -13.008244   -1.005154   -1.066402
     87          1           0      -13.747914    0.380237   -1.198889
     88          1           0      -12.475832    0.652929   -3.793422
     89          1           0      -11.814166   -1.055001   -3.338286
     90          1           0      -13.656854   -0.645633   -3.489955
     91          1           0       -9.627489   -5.077167   -0.312574
     92          1           0       -9.355020   -4.448461   -1.925517
     93          1           0       -8.288089   -5.472145   -1.518872
     94          1           0       -3.734257   -3.433386   -0.197708
     95          1           0       -1.466495   -6.003340    2.345622
     96          1           0       -1.891257   -4.445320    3.268789
     97          1           0       -2.974564   -5.953441    3.198416
     98          1           0        2.653898   -2.394008   -1.433450
     99          1           0        2.540297   -0.749692   -2.205773
    100          1           0        4.114482   -1.310329    0.403502
    101          1           0        5.405924    1.269290   -2.640954
    102          1           0        5.596454   -0.262259   -3.202491
    103          1           0        3.941379    0.349829   -3.072571
    104          1           0        6.085221    1.316512   -0.142470
    105          1           0        6.081953   -0.262163    0.623372
    106          1           0        7.343555   -1.416630   -1.065483
    107          1           0        7.813779   -0.103121   -1.953947
    108          1           0        8.880296    0.978709   -0.068617
    109          1           0        8.644766   -0.321778    0.868937
    110          1           0       10.014016   -0.138658   -1.847944
    111          1           0        9.117653   -2.537227   -1.493528
    112          1           0       10.980369   -2.549644   -1.418963
    113          1           0        9.919708   -2.845407   -0.003626
    114          1           0       11.276629    0.823182    0.246989
    115          1           0       11.065839   -0.757233    1.109528
    116          1           0       12.933998   -1.505923   -0.903376
    117          1           0       12.730103    0.018018   -1.716292
    118          1           0       13.534462    1.039505    0.642731
    119          1           0       13.605091   -0.313073    1.373340
    120          1           0       15.231217    0.257995   -1.496980
    121          1           0       14.944768   -2.296363   -0.864407
    122          1           0       16.734725   -1.531579   -1.043223
    123          1           0       15.940138   -1.965003    0.518207
    124          1           0       15.686166    1.738578    0.458594
    125          1           0       16.230010    0.453932    1.430557
    126          1           0       18.067035   -0.318693    0.364240
    127          1           0       17.627827    1.009106   -1.174474
    128          1           0       18.167658    2.759660    0.433120
    129          1           0       18.364443    1.596464    1.629478
    130          1           0       20.499306    0.681622    0.401035
    131          1           0       20.221570    3.205238   -1.417175
    132          1           0       21.351313    1.625039   -1.843837
    133          1           0       19.746685    1.814160   -2.108166
    134          1           0       20.752336    2.122421    2.215725
    135          1           0       21.953056    2.569841    1.044823
    136          1           0       20.645403    3.627653    1.387746
    137          1           0       -7.221387    1.746932    0.293854
    138          1           0       -7.668605   -0.115659   -0.059641
 ---------------------------------------------------------------------

 SCF Done:  E(RB3LYP) =  -2733.08024225     A.U. after   17 cycles

 Excitation energies and oscillator strengths:

 Excited State   1:      Singlet-A      2.1175 eV  585.52 nm  f=0.0648  <S**2>=0.000
     235 -> 237       -0.29717
     235 -> 238        0.32283
     236 -> 237        0.48182
     236 -> 238        0.26450
 This state for optimization and/or second-order correction.
 Total Energy, E(TD-HF/TD-KS) =  -2733.00242473
 Copying the excited state density for this state as the 1-particle RhoCI density.

 The electronic state is 1-A.
 Alpha  occ. eigenvalues --  -19.18622 -19.17686 -19.12678 -19.11692 -19.10645
 Alpha  occ. eigenvalues --  -14.36945 -14.36651 -14.32194 -14.29524 -10.31071
 Alpha  occ. eigenvalues --  -10.31048 -10.27659 -10.25760 -10.25122 -10.24063
 Alpha  occ. eigenvalues --  -10.23573 -10.23540 -10.23414 -10.22711 -10.22459
 Alpha  occ. eigenvalues --  -10.21687 -10.21466 -10.20900 -10.20801 -10.20768
 Alpha  occ. eigenvalues --  -10.20742 -10.20600 -10.20599 -10.20581 -10.20549
 Alpha  occ. eigenvalues --  -10.20535 -10.20471 -10.20413 -10.20362 -10.20309
 Alpha  occ. eigenvalues --  -10.20254 -10.20176 -10.20134 -10.19945 -10.19883
 Alpha  occ. eigenvalues --  -10.19865 -10.19598 -10.19486 -10.19456 -10.19339
 Alpha  occ. eigenvalues --  -10.19166 -10.19163 -10.19160 -10.19045 -10.18968
 Alpha  occ. eigenvalues --  -10.18901 -10.18864 -10.18743 -10.18574 -10.18520
 Alpha  occ. eigenvalues --  -10.18479 -10.18421 -10.18397 -10.18361 -10.18193
 Alpha  occ. eigenvalues --  -10.17726 -10.17656 -10.17187 -10.16565  -1.09968
 Alpha  occ. eigenvalues --   -1.08917  -1.04597  -1.00333  -0.99350  -0.97486
 Alpha  occ. eigenvalues --   -0.96724  -0.95596  -0.91721  -0.84213  -0.83786
 Alpha  occ. eigenvalues --   -0.81887  -0.81695  -0.81550  -0.81134  -0.80890
 Alpha  occ. eigenvalues --   -0.80828  -0.79121  -0.78680  -0.78193  -0.77977
 Alpha  occ. eigenvalues --   -0.76936  -0.75827  -0.75451  -0.74789  -0.74471
 Alpha  occ. eigenvalues --   -0.73603  -0.73506  -0.72674  -0.71866  -0.71335
 Alpha  occ. eigenvalues --   -0.70636  -0.69446  -0.69010  -0.68661  -0.68032
 Alpha  occ. eigenvalues --   -0.67027  -0.66707  -0.66615  -0.65820  -0.65487
 Alpha  occ. eigenvalues --   -0.64412  -0.63098  -0.62227  -0.61367  -0.61211
 Alpha  occ. eigenvalues --   -0.60850  -0.58894  -0.58518  -0.58176  -0.57965
 Alpha  occ. eigenvalues --   -0.57065  -0.56994  -0.56347  -0.56164  -0.55901
 Alpha  occ. eigenvalues --   -0.55679  -0.55341  -0.54696  -0.53654  -0.53371
 Alpha  occ. eigenvalues --   -0.52855  -0.51945  -0.51306  -0.50899  -0.50308
 Alpha  occ. eigenvalues --   -0.49524  -0.48981  -0.48706  -0.48578  -0.48131
 Alpha  occ. eigenvalues --   -0.47956  -0.47785  -0.47559  -0.47372  -0.47131
 Alpha  occ. eigenvalues --   -0.46895  -0.46588  -0.46251  -0.45747  -0.45573
 Alpha  occ. eigenvalues --   -0.45459  -0.45259  -0.45082  -0.44858  -0.44713
 Alpha  occ. eigenvalues --   -0.44612  -0.44532  -0.44400  -0.44042  -0.43832
 Alpha  occ. eigenvalues --   -0.43726  -0.43296  -0.42810  -0.42691  -0.42525
 Alpha  occ. eigenvalues --   -0.42455  -0.42334  -0.42013  -0.41560  -0.41289
 Alpha  occ. eigenvalues --   -0.41205  -0.40878  -0.40840  -0.40522  -0.40325
 Alpha  occ. eigenvalues --   -0.40318  -0.40191  -0.40039  -0.39772  -0.39655
 Alpha  occ. eigenvalues --   -0.39590  -0.39175  -0.39131  -0.38581  -0.38549
 Alpha  occ. eigenvalues --   -0.38444  -0.38187  -0.38160  -0.38068  -0.37634
 Alpha  occ. eigenvalues --   -0.37439  -0.37143  -0.37050  -0.36953  -0.36780
 Alpha  occ. eigenvalues --   -0.36365  -0.36108  -0.35849  -0.35712  -0.35478
 Alpha  occ. eigenvalues --   -0.35410  -0.35198  -0.34839  -0.34694  -0.34495
 Alpha  occ. eigenvalues --   -0.34320  -0.34273  -0.33709  -0.33701  -0.33453
 Alpha  occ. eigenvalues --   -0.33335  -0.33306  -0.33064  -0.32733  -0.32371
 Alpha  occ. eigenvalues --   -0.32085  -0.32014  -0.31878  -0.31382  -0.31323
 Alpha  occ. eigenvalues --   -0.31269  -0.30939  -0.30622  -0.30375  -0.30279
 Alpha  occ. eigenvalues --   -0.30231  -0.29397  -0.28449  -0.27562  -0.27443
 Alpha  occ. eigenvalues --   -0.27047  -0.26631  -0.26571  -0.26023  -0.25432
 Alpha  occ. eigenvalues --   -0.25129  -0.24613  -0.23554  -0.21194  -0.19678
 Alpha  occ. eigenvalues --   -0.19197
 Alpha virt. eigenvalues --   -0.09807  -0.08387  -0.04882  -0.01852  -0.01255
 Alpha virt. eigenvalues --    0.00068   0.00147   0.01014   0.02448   0.03738
 Alpha virt. eigenvalues --    0.03947   0.04233   0.04409   0.04437   0.04880

 Mulliken charges:
               1
     1  C    0.035260
     2  C   -0.060495
     3  C   -0.118285
     4  C   -0.108998
     5  N   -0.138582
     6  C   -0.029429
     7  C    0.027788
     8  C   -0.148618
     9  C    0.014017
    10  C    0.174846
    11  C    0.023569
    12  C    0.050840
    13  C    0.198501
    14  O   -0.301412
    15  O   -0.296598
    16  N   -0.055343
    17  C    0.124942
    18  C   -0.124585
    19  C    0.055706
    20  C    0.133822
    21  C    0.071712
    22  C   -0.042214
    23  C   -0.073154
    24  N   -0.294379
    25  C    0.054285
    26  C   -0.143084
    27  C   -0.091412
    28  C   -0.019708
    29  C    0.060590
    30  C    0.016761
    31  C    0.040794
    32  N   -0.109675
    33  C    0.201036
    34  C   -0.086849
    35  C   -0.065880
    36  C    0.148276
    37  C    0.143999
    38  C    0.087198
    39  O   -0.126507
    40  C   -0.135965
    41  C    0.186810
    42  O   -0.232293
    43  O   -0.269260
    44  C    0.163216
    45  C    0.225921
    46  C   -0.090193
    47  C   -0.141195
    48  C    0.168927
    49  C    0.009566
    50  C    0.049826
    51  C    0.079103
    52  C   -0.099951
    53  C    0.032697
    54  C   -0.014377
    55  C    0.076446
    56  C    0.001830
    57  C   -0.061271
    58  C    0.001013
    59  C    0.052838
    60  C   -0.011984
    61  C    0.025881
    62  C   -0.042133
    63  C    0.082985
    64  C   -0.012698
    65  H   -0.058762
    66  H    0.002283
    67  H   -0.014158
    68  H   -0.004706
    69  H    0.017708
    70  H   -0.027917
    71  H   -0.022742
    72  H    0.001869
    73  H    0.055912
    74  H   -0.029074
    75  H    0.013035
    76  H    0.032026
    77  H    0.024876
    78  H    0.033134
    79  H   -0.018531
    80  H   -0.016324
    81  H    0.053283
    82  H    0.032211
    83  H    0.015647
    84  H    0.041231
    85  H    0.026978
    86  H   -0.014045
    87  H    0.000649
    88  H    0.037186
    89  H    0.026619
    90  H    0.003415
    91  H    0.055670
    92  H   -0.057875
    93  H    0.032100
    94  H    0.052149
    95  H    0.030061
    96  H    0.031513
    97  H    0.034708
    98  H    0.051725
    99  H    0.021323
   100  H    0.003937
   101  H   -0.012510
   102  H    0.016667
   103  H    0.012550
   104  H    0.009239
   105  H   -0.005264
   106  H   -0.001487
   107  H   -0.031221
   108  H   -0.032240
   109  H   -0.029636
   110  H    0.001639
   111  H    0.003668
   112  H    0.016717
   113  H    0.009478
   114  H   -0.004906
   115  H    0.015943
   116  H   -0.018561
   117  H    0.010663
   118  H   -0.025689
   119  H   -0.011798
   120  H    0.006894
   121  H    0.016049
   122  H    0.036055
   123  H   -0.005728
   124  H   -0.022096
   125  H   -0.025399
   126  H    0.025607
   127  H    0.008234
   128  H   -0.021369
   129  H   -0.023259
   130  H    0.003450
   131  H    0.014286
   132  H    0.019081
   133  H   -0.039589
   134  H   -0.003800
   135  H   -0.005165
   136  H    0.006190
   137  H    0.169063
   138  H    0.176650
 Sum of Mulliken charges =   0.00000

 Dipole moment (field-independent basis, Debye):
    X=              3.8939    Y=              4.0349    Z=              0.6384  Tot=              5.6436
 Quadrupole moment (field-independent basis, Debye-Ang):
   XX=           -354.9176   YY=           -385.5809   ZZ=           -392.6382
   XY=            -18.1964   XZ=              8.0239   YZ=              3.6301

 Normal termination of Gaussian 09 at Thu Jul 25 15:18:42 2019.
