 Gaussian 09, Revision D.01,
 Gaussian 09:  ES64L-G09RevD.01 24-Apr-2013

 --------------------------
 # td=(NStates=1) B3LYP/SVP
 --------------------------

 --
 TD
 --
 Symbolic Z-matrix:
 Charge =  0 Multiplicity = 1

                         Standard orientation:
 ---------------------------------------------------------------------
 Center     Atomic      Atomic             Coordinates (Angstroms)
 Number     Number       Type             X           Y           Z
 ---------------------------------------------------------------------
      1          6           0       -5.086131   -1.933866    0.449199
      2          6           0       -4.589966    2.727078    1.456745
      3          6           0       -9.138459    3.323062   -0.213758
      4          6           0       -9.737877   -1.320237   -1.096058
      5          7           0       -5.168841    0.337500    0.875116
      6          6           0       -4.473261   -0.787227    0.854624
      7          6           0       -3.098296   -0.569716    1.382843
      8          6           0       -3.043473    0.786975    1.945129
      9          6           0       -4.368872    1.326709    1.439375
     10          6           0       -2.985949    0.927884    3.453632
     11          6           0       -2.052878   -0.968696    0.275471
     12          6           0       -0.576572   -0.973273    0.595018
     13          6           0        0.395441   -1.264850   -0.535832
     14          8           0        0.130987   -1.603630   -1.692023
     15          8           0        1.627140   -0.972159   -0.048756
     16          7           0       -6.868721    2.820669    0.419244
     17          6           0       -5.757433    3.272196    0.963519
     18          6           0       -6.060853    4.754018    1.048158
     19          6           0       -7.389562    5.022155    0.557342
     20          6           0       -7.890278    3.707781    0.140497
     21          6           0       -5.127788    5.813033    1.699997
     22          6           0       -8.090721    6.202137    0.537300
     23          6           0       -8.953917    6.719543   -0.334206
     24          7           0       -9.019475    0.938561   -0.524283
     25          6           0       -9.701001    2.083516   -0.541440
     26          6           0      -11.119315    2.019531   -1.118543
     27          6           0      -11.311384    0.655449   -1.334010
     28          6           0      -10.017999    0.014531   -0.945169
     29          6           0      -12.005446    3.128080   -1.206397
     30          6           0      -12.502957    0.024846   -1.812543
     31          6           0      -12.526006   -0.118149   -3.338096
     32          7           0       -7.486208   -1.257169   -0.229485
     33          6           0       -8.591042   -2.018257   -0.621905
     34          6           0       -8.153285   -3.398700   -0.792574
     35          6           0       -6.910492   -3.415158   -0.421830
     36          6           0       -6.451106   -2.076379    0.073780
     37          6           0       -9.064147   -4.516840   -1.239936
     38          6           0       -5.767552   -4.250926   -0.035821
     39          8           0       -5.682073   -5.469643    0.014132
     40          6           0       -4.543737   -3.408489    0.495360
     41          6           0       -3.982165   -3.869644    1.822030
     42          8           0       -4.338613   -3.535901    2.914314
     43          8           0       -3.147887   -4.846865    1.540142
     44          6           0       -2.626124   -5.543532    2.670130
     45          6           0        2.685506   -1.250681   -1.078542
     46          6           0        4.048099   -0.924185   -0.424601
     47          6           0        4.894824   -0.008482   -0.915873
     48          6           0        4.558838    0.872709   -2.169275
     49          6           0        6.200333    0.246355   -0.268487
     50          6           0        7.455831   -0.256570   -0.981803
     51          6           0        8.734418   -0.231091   -0.078192
     52          6           0        9.969571   -0.765060   -0.777815
     53          6           0        9.950210   -2.309566   -0.950279
     54          6           0       11.222297   -0.357694   -0.000934
     55          6           0       12.546028   -0.546610   -0.792191
     56          6           0       13.704945   -0.018447    0.042022
     57          6           0       15.100218   -0.211119   -0.396243
     58          6           0       15.673678   -1.651801   -0.595011
     59          6           0       16.097281    0.668139    0.480762
     60          6           0       17.563877    0.724665   -0.129062
     61          6           0       18.494206    1.708604    0.547850
     62          6           0       19.902625    1.738519    0.073858
     63          6           0       19.992006    2.418965   -1.348401
     64          6           0       20.801121    2.449186    1.000931
     65          1           0       -3.897079    3.343643    1.983514
     66          1           0       -9.896649    4.174164   -0.305635
     67          1           0      -10.627710   -1.924724   -1.371886
     68          1           0       -2.935828   -1.420327    2.142560
     69          1           0       -2.162801    1.550843    1.496888
     70          1           0       -1.883538    0.636156    3.767174
     71          1           0       -2.945644    2.037113    3.805997
     72          1           0       -3.760316    0.272277    3.975392
     73          1           0       -2.370160   -1.966364   -0.161227
     74          1           0       -2.162802   -0.134067   -0.443426
     75          1           0       -0.192083    0.083415    0.866236
     76          1           0       -0.296836   -1.710554    1.395359
     77          1           0       -4.154906    5.568695    1.029769
     78          1           0       -5.575696    6.710189    1.413591
     79          1           0       -5.087267    5.498256    2.929400
     80          1           0       -7.777842    6.759283    1.381953
     81          1           0       -9.233088    6.306085   -1.297219
     82          1           0       -9.148411    7.709006   -0.327173
     83          1           0      -12.174662    3.638483   -0.251763
     84          1           0      -11.734071    3.705291   -2.098778
     85          1           0      -12.928721    2.704229   -1.617437
     86          1           0      -12.418812   -1.048862   -1.688468
     87          1           0      -13.467156    0.338567   -1.321366
     88          1           0      -12.658077    0.960570   -3.798949
     89          1           0      -11.551809   -0.353551   -3.957309
     90          1           0      -13.412840   -0.911670   -3.623605
     91          1           0       -9.838247   -4.478958   -0.545029
     92          1           0       -9.329406   -4.230120   -2.230304
     93          1           0       -8.435668   -5.422359   -1.546192
     94          1           0       -3.840639   -3.610040   -0.267023
     95          1           0       -1.699813   -6.122761    2.098126
     96          1           0       -2.290163   -4.840372    3.249461
     97          1           0       -3.327633   -6.134872    3.403626
     98          1           0        2.763765   -2.317753   -1.260235
     99          1           0        2.587508   -0.761869   -1.942118
    100          1           0        4.115443   -1.509750    0.601378
    101          1           0        4.618997    1.987762   -1.874635
    102          1           0        5.173500    0.573153   -3.056852
    103          1           0        3.442300    0.945320   -2.515296
    104          1           0        6.255461    1.300758   -0.140027
    105          1           0        6.052360   -0.248524    0.812790
    106          1           0        6.967318   -1.422094   -1.451283
    107          1           0        7.782375    0.215430   -1.965980
    108          1           0        8.809705    0.759932    0.227611
    109          1           0        8.466711   -1.022245    0.899442
    110          1           0        9.815394   -0.314801   -1.857592
    111          1           0        9.259170   -2.495650   -1.548649
    112          1           0       10.944574   -2.453031   -1.288867
    113          1           0        9.613031   -2.794442   -0.054531
    114          1           0       10.972268    0.962037    0.203268
    115          1           0       11.239553   -0.732558    0.982677
    116          1           0       12.625630   -1.748316   -0.769539
    117          1           0       12.515347   -0.243588   -1.809388
    118          1           0       13.639079    1.064556    0.329565
    119          1           0       13.703538   -0.486590    1.109655
    120          1           0       15.056627    0.438450   -1.507035
    121          1           0       15.238178   -2.214376   -1.497565
    122          1           0       16.743167   -1.959481   -0.923522
    123          1           0       15.372893   -1.998708    0.486349
    124          1           0       15.701999    1.485896    0.614393
    125          1           0       16.210226    0.191956    1.524778
    126          1           0       18.051649   -0.309022   -0.310398
    127          1           0       17.495326    0.817356   -1.201920
    128          1           0       18.062009    2.753297    0.498590
    129          1           0       18.421158    1.557422    1.642537
    130          1           0       20.123401    0.504046    0.078686
    131          1           0       19.742078    3.412737   -1.322949
    132          1           0       20.992379    2.181309   -2.022263
    133          1           0       19.316754    2.140657   -2.066852
    134          1           0       20.710769    1.967040    2.040918
    135          1           0       21.786250    2.364146    0.503809
    136          1           0       20.601392    3.618441    1.056946
    137          1           0       -6.906286    1.784429    0.258577
    138          1           0       -7.552197   -0.353853   -0.241769
 ---------------------------------------------------------------------

 SCF Done:  E(RB3LYP) =  -2732.98704478     A.U. after   17 cycles

 Excitation energies and oscillator strengths:

 Excited State   1:      Singlet-A      2.0987 eV  590.76 nm  f=0.1930  <S**2>=0.000
     235 -> 238        0.28851
     236 -> 237        0.63529
 This state for optimization and/or second-order correction.
 Total Energy, E(TD-HF/TD-KS) =  -2732.90991868
 Copying the excited state density for this state as the 1-particle RhoCI density.

 The electronic state is 1-A.
 Alpha  occ. eigenvalues --  -19.18102 -19.18097 -19.12429 -19.12312 -19.11181
 Alpha  occ. eigenvalues --  -14.36959 -14.36039 -14.32025 -14.30371 -10.31508
 Alpha  occ. eigenvalues --  -10.31075 -10.27303 -10.24868 -10.23934 -10.23792
 Alpha  occ. eigenvalues --  -10.23526 -10.23280 -10.22985 -10.22952 -10.22095
 Alpha  occ. eigenvalues --  -10.22033 -10.21413 -10.21226 -10.21182 -10.21073
 Alpha  occ. eigenvalues --  -10.21041 -10.20990 -10.20950 -10.20889 -10.20763
 Alpha  occ. eigenvalues --  -10.20740 -10.20591 -10.20582 -10.20339 -10.20236
 Alpha  occ. eigenvalues --  -10.20218 -10.20050 -10.20004 -10.19996 -10.19969
 Alpha  occ. eigenvalues --  -10.19900 -10.19794 -10.19792 -10.19781 -10.19693
 Alpha  occ. eigenvalues --  -10.19688 -10.19639 -10.19545 -10.19372 -10.19309
 Alpha  occ. eigenvalues --  -10.19268 -10.19174 -10.19128 -10.18780 -10.18681
 Alpha  occ. eigenvalues --  -10.18646 -10.18587 -10.18547 -10.18480 -10.18030
 Alpha  occ. eigenvalues --  -10.17796 -10.17626 -10.17564 -10.15580  -1.11009
 Alpha  occ. eigenvalues --   -1.08133  -1.01524  -1.01472  -0.99345  -0.98650
 Alpha  occ. eigenvalues --   -0.98437  -0.95074  -0.92529  -0.83856  -0.82694
 Alpha  occ. eigenvalues --   -0.82640  -0.81983  -0.81915  -0.81335  -0.81129
 Alpha  occ. eigenvalues --   -0.80963  -0.80264  -0.80174  -0.79247  -0.77922
 Alpha  occ. eigenvalues --   -0.76679  -0.76232  -0.75891  -0.75536  -0.74832
 Alpha  occ. eigenvalues --   -0.74080  -0.73216  -0.72552  -0.71795  -0.70871
 Alpha  occ. eigenvalues --   -0.69966  -0.69328  -0.68754  -0.68450  -0.68005
 Alpha  occ. eigenvalues --   -0.67564  -0.67356  -0.66988  -0.65900  -0.65362
 Alpha  occ. eigenvalues --   -0.64517  -0.63804  -0.62882  -0.62324  -0.61415
 Alpha  occ. eigenvalues --   -0.61028  -0.59663  -0.59264  -0.58058  -0.57371
 Alpha  occ. eigenvalues --   -0.56993  -0.56582  -0.55818  -0.55435  -0.55390
 Alpha  occ. eigenvalues --   -0.54774  -0.54121  -0.53562  -0.53339  -0.52808
 Alpha  occ. eigenvalues --   -0.52137  -0.52013  -0.51151  -0.50664  -0.50291
 Alpha  occ. eigenvalues --   -0.49866  -0.49782  -0.49134  -0.48393  -0.48271
 Alpha  occ. eigenvalues --   -0.47906  -0.47844  -0.47557  -0.47434  -0.47011
 Alpha  occ. eigenvalues --   -0.46803  -0.46563  -0.46411  -0.46382  -0.46068
 Alpha  occ. eigenvalues --   -0.45590  -0.45563  -0.45290  -0.45150  -0.45067
 Alpha  occ. eigenvalues --   -0.44957  -0.44818  -0.44388  -0.43967  -0.43937
 Alpha  occ. eigenvalues --   -0.43701  -0.43584  -0.43452  -0.43223  -0.42815
 Alpha  occ. eigenvalues --   -0.42592  -0.42198  -0.41808  -0.41657  -0.41554
 Alpha  occ. eigenvalues --   -0.41104  -0.40972  -0.40774  -0.40574  -0.40332
 Alpha  occ. eigenvalues --   -0.40281  -0.40039  -0.39868  -0.39785  -0.39242
 Alpha  occ. eigenvalues --   -0.39139  -0.39001  -0.38654  -0.38297  -0.38119
 Alpha  occ. eigenvalues --   -0.38032  -0.37778  -0.37727  -0.37696  -0.37367
 Alpha  occ. eigenvalues --   -0.37183  -0.36765  -0.36707  -0.36602  -0.36411
 Alpha  occ. eigenvalues --   -0.36271  -0.36238  -0.36090  -0.35958  -0.35665
 Alpha  occ. eigenvalues --   -0.35545  -0.35476  -0.35343  -0.35142  -0.34782
 Alpha  occ. eigenvalues --   -0.34752  -0.34565  -0.34350  -0.34252  -0.33944
 Alpha  occ. eigenvalues --   -0.33413  -0.33052  -0.33019  -0.32758  -0.32702
 Alpha  occ. eigenvalues --   -0.31919  -0.31852  -0.31394  -0.31270  -0.30973
 Alpha  occ. eigenvalues --   -0.30778  -0.30577  -0.30532  -0.30126  -0.29907
 Alpha  occ. eigenvalues --   -0.29383  -0.28890  -0.28377  -0.28216  -0.27690
 Alpha  occ. eigenvalues --   -0.27590  -0.27340  -0.27230  -0.26973  -0.26264
 Alpha  occ. eigenvalues --   -0.25437  -0.24112  -0.23157  -0.22608  -0.19903
 Alpha  occ. eigenvalues --   -0.18255
 Alpha virt. eigenvalues --   -0.09474  -0.07261  -0.03977  -0.02064  -0.00128
 Alpha virt. eigenvalues --    0.00020   0.00242   0.00726   0.01696   0.03084
 Alpha virt. eigenvalues --    0.03786   0.03895   0.04134   0.04270   0.04325

 Mulliken charges:
               1
     1  C    0.023442
     2  C   -0.100928
     3  C   -0.106903
     4  C   -0.091825
     5  N   -0.181252
     6  C   -0.092396
     7  C    0.037931
     8  C   -0.080703
     9  C    0.015715
    10  C    0.015977
    11  C    0.023516
    12  C    0.018764
    13  C    0.183312
    14  O   -0.251952
    15  O   -0.340624
    16  N   -0.044459
    17  C    0.143361
    18  C   -0.226196
    19  C    0.101057
    20  C    0.103515
    21  C    0.048727
    22  C   -0.089764
    23  C    0.020026
    24  N   -0.243631
    25  C    0.050465
    26  C   -0.203268
    27  C   -0.061217
    28  C    0.091286
    29  C    0.172166
    30  C    0.100771
    31  C   -0.099886
    32  N    0.054611
    33  C    0.033311
    34  C   -0.231288
    35  C    0.042440
    36  C    0.043319
    37  C    0.190561
    38  C    0.049317
    39  O   -0.183166
    40  C    0.021080
    41  C    0.173637
    42  O   -0.213140
    43  O   -0.269345
    44  C    0.192828
    45  C    0.341490
    46  C   -0.146719
    47  C   -0.126335
    48  C   -0.006914
    49  C    0.127072
    50  C   -0.101485
    51  C    0.038826
    52  C   -0.119251
    53  C    0.214072
    54  C   -0.029667
    55  C    0.085368
    56  C    0.017503
    57  C   -0.130269
    58  C   -0.016564
    59  C    0.154387
    60  C    0.026095
    61  C    0.055430
    62  C   -0.130621
    63  C    0.060950
    64  C    0.040488
    65  H   -0.030092
    66  H   -0.015070
    67  H   -0.018534
    68  H    0.012991
    69  H    0.027716
    70  H    0.018646
    71  H    0.021311
    72  H    0.054403
    73  H    0.032677
    74  H    0.003463
    75  H    0.042464
    76  H    0.032335
    77  H    0.058703
    78  H    0.011041
    79  H    0.074977
    80  H   -0.012130
    81  H    0.017849
    82  H   -0.006760
    83  H    0.047891
    84  H    0.012216
    85  H   -0.014217
    86  H   -0.024435
    87  H    0.031317
    88  H    0.007084
    89  H    0.042429
    90  H    0.037857
    91  H    0.033164
    92  H    0.003886
    93  H    0.036728
    94  H    0.032812
    95  H    0.056960
    96  H   -0.025210
    97  H    0.058250
    98  H    0.017932
    99  H   -0.026616
   100  H    0.024451
   101  H    0.030511
   102  H    0.048146
   103  H    0.030717
   104  H   -0.014506
   105  H    0.019337
   106  H    0.013323
   107  H    0.015247
   108  H   -0.014359
   109  H    0.011732
   110  H   -0.001367
   111  H   -0.077496
   112  H   -0.008994
   113  H   -0.011829
   114  H   -0.013623
   115  H   -0.003997
   116  H    0.028986
   117  H   -0.003474
   118  H   -0.000874
   119  H   -0.018222
   120  H   -0.014875
   121  H    0.017047
   122  H    0.033716
   123  H    0.025045
   124  H   -0.095522
   125  H   -0.004950
   126  H   -0.016695
   127  H   -0.032473
   128  H   -0.022196
   129  H   -0.019825
   130  H    0.009410
   131  H   -0.019564
   132  H    0.020404
   133  H   -0.032022
   134  H    0.022447
   135  H    0.012220
   136  H    0.016225
   137  H    0.164134
   138  H    0.036683
 Sum of Mulliken charges =   0.00000

 Dipole moment (field-independent basis, Debye):
    X=              1.9129    Y=              4.5524    Z=              0.0450  Tot=              4.9382
 Quadrupole moment (field-independent basis, Debye-Ang):
   XX=           -363.7035   YY=           -387.5188   ZZ=           -393.8262
   XY=            -25.4821   XZ=              6.5442   YZ=             -0.2760

 Normal termination of Gaussian 09 at Fri Aug  2 05:53:03 2019.
