 Gaussian 09, Revision D.01,
 Gaussian 09:  ES64L-G09RevD.01 24-Apr-2013

 --------------------------
 # td=(NStates=1) B3LYP/SVP
 --------------------------

 --
 TD
 --
 Symbolic Z-matrix:
 Charge =  0 Multiplicity = 1

                         Standard orientation:
 ---------------------------------------------------------------------
 Center     Atomic      Atomic             Coordinates (Angstroms)
 Number     Number       Type             X           Y           Z
 ---------------------------------------------------------------------
      1          6           0       -5.027433   -1.923091    0.481295
      2          6           0       -4.820939    2.788952    1.464685
      3          6           0       -9.396386    3.364154   -0.339466
      4          6           0       -9.766059   -1.559845   -0.828754
      5          7           0       -5.168153    0.515026    0.790422
      6          6           0       -4.577188   -0.695983    0.856140
      7          6           0       -3.069419   -0.470616    1.382461
      8          6           0       -3.118777    0.899803    1.998161
      9          6           0       -4.445371    1.387779    1.323327
     10          6           0       -3.147128    0.961525    3.594844
     11          6           0       -2.105299   -0.553511    0.166824
     12          6           0       -0.648428   -0.740010    0.510731
     13          6           0        0.299781   -0.988402   -0.547891
     14          8           0        0.061773   -1.294179   -1.656946
     15          8           0        1.552600   -0.859234   -0.020088
     16          7           0       -7.080756    2.665784    0.328636
     17          6           0       -5.993198    3.291330    0.989317
     18          6           0       -6.356601    4.740844    1.029937
     19          6           0       -7.640309    4.989805    0.508111
     20          6           0       -8.155483    3.681222    0.120988
     21          6           0       -5.463411    5.871129    1.563174
     22          6           0       -8.292646    6.212482    0.413758
     23          6           0       -9.196690    6.565068   -0.624553
     24          7           0       -9.205990    0.830635   -0.436404
     25          6           0       -9.893727    1.999400   -0.629478
     26          6           0      -11.273982    1.816741   -1.101358
     27          6           0      -11.348502    0.409510   -1.254588
     28          6           0      -10.052350   -0.163784   -0.800050
     29          6           0      -12.354650    2.805901   -1.368699
     30          6           0      -12.472751   -0.407869   -1.805771
     31          6           0      -12.436190   -0.672274   -3.339450
     32          7           0       -7.448570   -1.317137   -0.160404
     33          6           0       -8.565348   -2.102811   -0.573470
     34          6           0       -8.056809   -3.490042   -0.657270
     35          6           0       -6.607178   -3.401278   -0.383704
     36          6           0       -6.424059   -2.064094    0.085728
     37          6           0       -8.857004   -4.711900   -1.116531
     38          6           0       -5.534417   -4.179876   -0.004547
     39          8           0       -5.308221   -5.445479    0.021070
     40          6           0       -4.315940   -3.284201    0.462125
     41          6           0       -3.770902   -3.692411    1.792595
     42          8           0       -4.252584   -3.356461    2.908256
     43          8           0       -2.868680   -4.593568    1.590472
     44          6           0       -2.289761   -5.235861    2.687302
     45          6           0        2.566581   -0.964602   -1.098573
     46          6           0        3.882805   -0.748953   -0.433025
     47          6           0        4.880626    0.116224   -0.880469
     48          6           0        4.916184    0.694024   -2.293766
     49          6           0        6.276733    0.135670   -0.249054
     50          6           0        7.501631   -0.363583   -0.997807
     51          6           0        8.688165   -0.187024   -0.114703
     52          6           0       10.092454   -0.735800   -0.782640
     53          6           0       10.030323   -2.149918   -0.957589
     54          6           0       11.289487   -0.385387    0.132853
     55          6           0       12.654828   -0.582593   -0.638322
     56          6           0       13.724169   -0.100843    0.225946
     57          6           0       15.273315   -0.330907   -0.318086
     58          6           0       15.707618   -1.792744   -0.435289
     59          6           0       16.306599    0.663552    0.471065
     60          6           0       17.680945    0.705276   -0.256428
     61          6           0       18.501264    1.788808    0.426775
     62          6           0       20.027051    1.752263    0.043619
     63          6           0       20.038421    2.230269   -1.440544
     64          6           0       20.816222    2.694145    0.931477
     65          1           0       -4.107552    3.612951    1.850060
     66          1           0       -9.982278    4.143711   -0.339984
     67          1           0      -10.587385   -2.108742   -1.288892
     68          1           0       -2.705907   -1.237299    2.111752
     69          1           0       -2.215944    1.389826    1.595149
     70          1           0       -2.085751    0.851887    3.713055
     71          1           0       -3.216030    2.033304    3.967222
     72          1           0       -3.788466    0.261263    4.153232
     73          1           0       -2.399420   -1.419004   -0.544342
     74          1           0       -2.183783    0.215849   -0.565228
     75          1           0       -0.332184    0.123044    1.051124
     76          1           0       -0.488719   -1.803025    1.126054
     77          1           0       -4.716814    6.090863    0.746634
     78          1           0       -5.981947    6.731453    1.290439
     79          1           0       -5.336811    5.793497    2.620256
     80          1           0       -8.230518    6.853303    1.206898
     81          1           0       -9.497130    5.808472   -1.261898
     82          1           0       -9.532732    7.485525   -0.689533
     83          1           0      -12.361861    3.511830   -0.511397
     84          1           0      -12.102990    3.279941   -2.238078
     85          1           0      -13.285868    2.384866   -1.530860
     86          1           0      -12.392141   -1.461148   -1.310562
     87          1           0      -13.408118    0.006763   -1.254925
     88          1           0      -12.386220    0.277851   -3.881462
     89          1           0      -11.453707   -0.911802   -3.412718
     90          1           0      -13.259442   -1.194789   -3.863133
     91          1           0      -10.117532   -4.609208   -0.750575
     92          1           0       -8.756432   -4.768010   -2.306180
     93          1           0       -8.479102   -5.687790   -0.529408
     94          1           0       -3.483927   -3.126792   -0.408119
     95          1           0       -1.679547   -6.033134    2.167948
     96          1           0       -1.840498   -4.597276    3.405170
     97          1           0       -3.231675   -5.802503    3.121368
     98          1           0        2.489249   -2.082402   -1.573910
     99          1           0        2.443791   -0.414128   -1.880674
    100          1           0        4.072170   -1.311968    0.467522
    101          1           0        5.539827    1.703005   -2.291648
    102          1           0        5.291546   -0.223345   -3.173458
    103          1           0        3.652842    0.881698   -2.385076
    104          1           0        6.480274    1.185257   -0.035311
    105          1           0        6.277549   -0.616238    0.812813
    106          1           0        7.347189   -1.387095   -1.247221
    107          1           0        7.669094    0.301601   -1.836866
    108          1           0        8.736276    1.011454   -0.011921
    109          1           0        8.660458   -0.571776    1.068570
    110          1           0       10.117042   -0.186962   -1.635345
    111          1           0        9.200474   -2.562568   -1.611728
    112          1           0       10.759466   -2.472082   -1.711599
    113          1           0       10.177722   -2.905847   -0.085712
    114          1           0       11.079906    0.637091    0.450913
    115          1           0       11.236922   -1.044718    1.030022
    116          1           0       13.137954   -1.761542   -0.915479
    117          1           0       12.469138    0.028394   -1.428781
    118          1           0       13.667393    0.986565    0.449307
    119          1           0       13.801895   -0.713686    1.336838
    120          1           0       15.093793    0.144926   -1.218633
    121          1           0       14.990213   -2.365977   -0.892736
    122          1           0       16.695848   -1.860153   -0.800489
    123          1           0       15.652301   -2.081056    0.588441
    124          1           0       15.883844    1.663565    0.786713
    125          1           0       16.361131    0.084768    1.517165
    126          1           0       18.124873   -0.307342   -0.410839
    127          1           0       17.591972    1.019396   -1.290160
    128          1           0       17.990661    2.640839    0.201424
    129          1           0       18.564188    1.403722    1.413265
    130          1           0       20.563809    0.769788    0.152165
    131          1           0       19.342956    3.125268   -1.582682
    132          1           0       21.052730    2.248861   -1.902052
    133          1           0       19.495739    1.314333   -1.959134
    134          1           0       20.803709    2.488695    1.948187
    135          1           0       21.889231    2.365118    0.561443
    136          1           0       20.712435    3.642318    0.806776
    137          1           0       -7.148856    1.633642    0.046049
    138          1           0       -7.580327   -0.289849    0.058737
 ---------------------------------------------------------------------

 SCF Done:  E(RB3LYP) =  -2732.98051147     A.U. after   17 cycles

 Excitation energies and oscillator strengths:

 Excited State   1:      Singlet-A      2.1731 eV  570.55 nm  f=0.1608  <S**2>=0.000
     235 -> 237       -0.18196
     235 -> 238        0.25002
     236 -> 237        0.58900
     236 -> 238        0.22263
 This state for optimization and/or second-order correction.
 Total Energy, E(TD-HF/TD-KS) =  -2732.90065219
 Copying the excited state density for this state as the 1-particle RhoCI density.

 The electronic state is 1-A.
 Alpha  occ. eigenvalues --  -19.18533 -19.17323 -19.12669 -19.11375 -19.10259
 Alpha  occ. eigenvalues --  -14.38044 -14.36303 -14.32321 -14.30357 -10.31293
 Alpha  occ. eigenvalues --  -10.30708 -10.26850 -10.25082 -10.24530 -10.24232
 Alpha  occ. eigenvalues --  -10.24049 -10.23920 -10.23771 -10.23442 -10.23339
 Alpha  occ. eigenvalues --  -10.23314 -10.23281 -10.22713 -10.22376 -10.21762
 Alpha  occ. eigenvalues --  -10.21303 -10.21297 -10.20703 -10.20649 -10.20590
 Alpha  occ. eigenvalues --  -10.20587 -10.20562 -10.20410 -10.20213 -10.20193
 Alpha  occ. eigenvalues --  -10.20172 -10.20148 -10.19957 -10.19713 -10.19547
 Alpha  occ. eigenvalues --  -10.19470 -10.19461 -10.19456 -10.19432 -10.19285
 Alpha  occ. eigenvalues --  -10.19242 -10.19185 -10.19113 -10.18985 -10.18820
 Alpha  occ. eigenvalues --  -10.18790 -10.18674 -10.18504 -10.18447 -10.18274
 Alpha  occ. eigenvalues --  -10.18178 -10.18171 -10.18066 -10.17958 -10.17834
 Alpha  occ. eigenvalues --  -10.17749 -10.16675 -10.16593 -10.15983  -1.11498
 Alpha  occ. eigenvalues --   -1.09770  -1.01439  -0.99547  -0.98343  -0.97381
 Alpha  occ. eigenvalues --   -0.97073  -0.93869  -0.92769  -0.84791  -0.82610
 Alpha  occ. eigenvalues --   -0.82571  -0.81877  -0.81258  -0.80919  -0.80781
 Alpha  occ. eigenvalues --   -0.79573  -0.79272  -0.79193  -0.78901  -0.78095
 Alpha  occ. eigenvalues --   -0.76990  -0.76581  -0.76129  -0.75228  -0.75013
 Alpha  occ. eigenvalues --   -0.74488  -0.73375  -0.72870  -0.72214  -0.70931
 Alpha  occ. eigenvalues --   -0.69676  -0.69598  -0.68636  -0.67796  -0.67549
 Alpha  occ. eigenvalues --   -0.67008  -0.65942  -0.65537  -0.65352  -0.64793
 Alpha  occ. eigenvalues --   -0.64556  -0.63603  -0.62755  -0.62009  -0.61668
 Alpha  occ. eigenvalues --   -0.60862  -0.58335  -0.57876  -0.57830  -0.57739
 Alpha  occ. eigenvalues --   -0.56674  -0.56388  -0.56290  -0.55885  -0.55689
 Alpha  occ. eigenvalues --   -0.54905  -0.54511  -0.54182  -0.54024  -0.52916
 Alpha  occ. eigenvalues --   -0.52536  -0.51996  -0.51295  -0.50842  -0.50564
 Alpha  occ. eigenvalues --   -0.50003  -0.49496  -0.49145  -0.48855  -0.48818
 Alpha  occ. eigenvalues --   -0.47882  -0.47753  -0.47662  -0.47535  -0.47469
 Alpha  occ. eigenvalues --   -0.47287  -0.46898  -0.46555  -0.46429  -0.46115
 Alpha  occ. eigenvalues --   -0.46036  -0.45390  -0.45214  -0.45128  -0.44820
 Alpha  occ. eigenvalues --   -0.44491  -0.44446  -0.44082  -0.43823  -0.43622
 Alpha  occ. eigenvalues --   -0.43567  -0.43254  -0.43177  -0.42626  -0.42467
 Alpha  occ. eigenvalues --   -0.42294  -0.41963  -0.41840  -0.41744  -0.41239
 Alpha  occ. eigenvalues --   -0.41044  -0.40878  -0.40652  -0.40544  -0.40311
 Alpha  occ. eigenvalues --   -0.40145  -0.39911  -0.39580  -0.39295  -0.39100
 Alpha  occ. eigenvalues --   -0.38895  -0.38752  -0.38657  -0.38422  -0.38302
 Alpha  occ. eigenvalues --   -0.38151  -0.38032  -0.37819  -0.37778  -0.37753
 Alpha  occ. eigenvalues --   -0.37409  -0.37351  -0.36842  -0.36763  -0.36727
 Alpha  occ. eigenvalues --   -0.36513  -0.36413  -0.36122  -0.35832  -0.35713
 Alpha  occ. eigenvalues --   -0.35483  -0.35135  -0.35089  -0.35062  -0.34865
 Alpha  occ. eigenvalues --   -0.34598  -0.34497  -0.34234  -0.34153  -0.34097
 Alpha  occ. eigenvalues --   -0.33750  -0.33418  -0.32585  -0.32402  -0.32337
 Alpha  occ. eigenvalues --   -0.32116  -0.32086  -0.31860  -0.31805  -0.30920
 Alpha  occ. eigenvalues --   -0.30763  -0.30446  -0.30421  -0.29797  -0.29611
 Alpha  occ. eigenvalues --   -0.29115  -0.28446  -0.28216  -0.28176  -0.27072
 Alpha  occ. eigenvalues --   -0.27001  -0.26662  -0.26336  -0.26232  -0.25603
 Alpha  occ. eigenvalues --   -0.24049  -0.23620  -0.23581  -0.22218  -0.20413
 Alpha  occ. eigenvalues --   -0.19044
 Alpha virt. eigenvalues --   -0.10173  -0.08245  -0.04911  -0.03115  -0.01993
 Alpha virt. eigenvalues --   -0.00673   0.00207   0.00637   0.02437   0.02625
 Alpha virt. eigenvalues --    0.03822   0.03889   0.04008   0.04713   0.04912

 Mulliken charges:
               1
     1  C   -0.072394
     2  C   -0.121624
     3  C   -0.021752
     4  C   -0.088080
     5  N   -0.074029
     6  C   -0.038006
     7  C   -0.064764
     8  C   -0.025170
     9  C   -0.036511
    10  C    0.084350
    11  C    0.038597
    12  C    0.037874
    13  C    0.144589
    14  O   -0.195574
    15  O   -0.343623
    16  N   -0.209866
    17  C    0.188089
    18  C   -0.233414
    19  C    0.142017
    20  C    0.119777
    21  C    0.190609
    22  C   -0.124054
    23  C    0.067962
    24  N   -0.244787
    25  C    0.083615
    26  C   -0.188021
    27  C   -0.125506
    28  C    0.024518
    29  C    0.218984
    30  C   -0.023065
    31  C    0.111634
    32  N   -0.016699
    33  C    0.149334
    34  C   -0.083943
    35  C   -0.015553
    36  C    0.041530
    37  C   -0.052732
    38  C    0.069725
    39  O   -0.266160
    40  C    0.022205
    41  C    0.200845
    42  O   -0.285734
    43  O   -0.229717
    44  C    0.160974
    45  C    0.333184
    46  C   -0.067020
    47  C   -0.090965
    48  C   -0.097014
    49  C   -0.018394
    50  C    0.119362
    51  C   -0.115484
    52  C    0.015203
    53  C    0.031404
    54  C    0.027392
    55  C    0.085266
    56  C   -0.073970
    57  C   -0.067522
    58  C    0.149139
    59  C   -0.037023
    60  C    0.013230
    61  C    0.112347
    62  C   -0.141540
    63  C   -0.011904
    64  C    0.135140
    65  H    0.008820
    66  H   -0.119298
    67  H   -0.012772
    68  H    0.003576
    69  H   -0.008249
    70  H   -0.000794
    71  H    0.009642
    72  H    0.056832
    73  H    0.006349
    74  H   -0.012292
    75  H    0.017256
    76  H    0.056319
    77  H    0.026127
    78  H   -0.040136
    79  H    0.045392
    80  H   -0.009485
    81  H    0.009789
    82  H   -0.013535
    83  H    0.025386
    84  H   -0.007163
    85  H   -0.015812
    86  H    0.005974
    87  H    0.017712
    88  H   -0.015875
    89  H   -0.025739
    90  H    0.033547
    91  H    0.048963
    92  H    0.078431
    93  H    0.080828
    94  H    0.091267
    95  H    0.045810
    96  H    0.035894
    97  H    0.047456
    98  H    0.037198
    99  H   -0.062053
   100  H   -0.009351
   101  H    0.049836
   102  H    0.079377
   103  H    0.052858
   104  H   -0.003160
   105  H    0.014806
   106  H   -0.000936
   107  H   -0.008986
   108  H   -0.004389
   109  H    0.018760
   110  H   -0.051727
   111  H   -0.008950
   112  H   -0.012542
   113  H    0.024651
   114  H   -0.007787
   115  H   -0.002070
   116  H    0.037233
   117  H   -0.034809
   118  H   -0.008678
   119  H   -0.000406
   120  H   -0.038193
   121  H   -0.018306
   122  H    0.006095
   123  H   -0.018069
   124  H    0.007048
   125  H    0.002205
   126  H   -0.001227
   127  H   -0.016010
   128  H   -0.021520
   129  H   -0.018405
   130  H    0.001541
   131  H    0.023415
   132  H    0.012813
   133  H    0.014005
   134  H   -0.015954
   135  H   -0.005124
   136  H   -0.043582
   137  H    0.172813
   138  H    0.170074
 Sum of Mulliken charges =   0.00000

 Dipole moment (field-independent basis, Debye):
    X=              1.8925    Y=              5.6211    Z=             -0.6455  Tot=              5.9662
 Quadrupole moment (field-independent basis, Debye-Ang):
   XX=           -352.2075   YY=           -380.0684   ZZ=           -396.4168
   XY=            -35.8844   XZ=              7.2554   YZ=              2.8870

 Normal termination of Gaussian 09 at Fri Aug  2 20:02:50 2019.
