 Gaussian 09, Revision D.01,
 Gaussian 09:  ES64L-G09RevD.01 24-Apr-2013

 --------------------------
 # td=(NStates=1) B3LYP/SVP
 --------------------------

 --
 TD
 --
 Symbolic Z-matrix:
 Charge =  0 Multiplicity = 1

                         Standard orientation:
 ---------------------------------------------------------------------
 Center     Atomic      Atomic             Coordinates (Angstroms)
 Number     Number       Type             X           Y           Z
 ---------------------------------------------------------------------
      1          6           0       -5.196461   -1.941375    0.377027
      2          6           0       -4.791191    2.704501    1.495308
      3          6           0       -9.298825    3.411423   -0.134670
      4          6           0       -9.841914   -1.350517   -1.033833
      5          7           0       -5.166379    0.393202    0.723275
      6          6           0       -4.528578   -0.770181    0.794464
      7          6           0       -3.112756   -0.686926    1.383475
      8          6           0       -3.111946    0.774814    1.946310
      9          6           0       -4.377132    1.345443    1.317680
     10          6           0       -2.911190    0.690544    3.444779
     11          6           0       -2.018181   -0.821161    0.265578
     12          6           0       -0.547810   -0.783602    0.596838
     13          6           0        0.382022   -1.083319   -0.634228
     14          8           0        0.037817   -1.353650   -1.684651
     15          8           0        1.714055   -0.794152   -0.224865
     16          7           0       -7.050569    2.732862    0.516344
     17          6           0       -5.926155    3.321660    1.135603
     18          6           0       -6.152144    4.784785    1.202566
     19          6           0       -7.403453    5.012545    0.633753
     20          6           0       -7.965755    3.695167    0.272688
     21          6           0       -5.169696    5.707043    1.720850
     22          6           0       -8.140842    6.323630    0.539426
     23          6           0       -9.008446    6.587832   -0.455301
     24          7           0       -9.250430    0.925855   -0.452650
     25          6           0       -9.867014    2.109899   -0.493340
     26          6           0      -11.227287    2.043348   -1.038455
     27          6           0      -11.394171    0.699647   -1.313999
     28          6           0      -10.182476    0.015592   -0.951703
     29          6           0      -12.179786    3.115206   -1.248901
     30          6           0      -12.653454   -0.068047   -1.872915
     31          6           0      -12.584334   -0.284764   -3.413489
     32          7           0       -7.552605   -1.146902   -0.276168
     33          6           0       -8.703259   -1.892731   -0.723310
     34          6           0       -8.301585   -3.267069   -0.727143
     35          6           0       -6.916129   -3.378746   -0.402030
     36          6           0       -6.539706   -2.056368   -0.112690
     37          6           0       -9.259916   -4.438056   -1.097455
     38          6           0       -5.825170   -4.319528    0.017090
     39          8           0       -5.738208   -5.465427    0.028582
     40          6           0       -4.627677   -3.369635    0.461166
     41          6           0       -4.029387   -3.825639    1.775607
     42          8           0       -4.242552   -3.351180    2.841481
     43          8           0       -3.191894   -4.822578    1.491001
     44          6           0       -2.698015   -5.599071    2.664598
     45          6           0        2.620054   -1.093956   -1.232500
     46          6           0        4.080754   -0.848772   -0.578572
     47          6           0        4.950838   -0.034550   -1.091235
     48          6           0        4.892849    0.654501   -2.471879
     49          6           0        6.362762    0.130992   -0.238306
     50          6           0        7.544369   -0.495879   -0.914462
     51          6           0        8.880118   -0.327361   -0.101240
     52          6           0       10.123668   -0.987630   -0.672188
     53          6           0        9.933956   -2.505073   -0.466088
     54          6           0       11.319406   -0.397234    0.060622
     55          6           0       12.815779   -0.802412   -0.457619
     56          6           0       13.892199    0.057859    0.241097
     57          6           0       15.269791   -0.111136   -0.301803
     58          6           0       15.743408   -1.582716   -0.567900
     59          6           0       16.296369    0.680937    0.346121
     60          6           0       17.727241    0.957297   -0.249938
     61          6           0       18.643237    1.787524    0.501974
     62          6           0       20.095991    1.796357    0.039801
     63          6           0       20.261680    2.228475   -1.442875
     64          6           0       20.922485    2.721578    0.897776
     65          1           0       -4.066050    3.123342    2.184454
     66          1           0       -9.769520    4.373084   -0.343295
     67          1           0      -10.592423   -2.292197   -1.059691
     68          1           0       -2.662666   -1.402531    2.220635
     69          1           0       -2.142354    1.299661    1.433850
     70          1           0       -1.905575    0.300494    3.527376
     71          1           0       -2.920059    1.724216    3.963851
     72          1           0       -3.656392   -0.016475    3.820339
     73          1           0       -2.219199   -1.877454   -0.314806
     74          1           0       -2.242214   -0.172382   -0.577671
     75          1           0       -0.371225    0.184640    0.959701
     76          1           0       -0.325214   -1.538914    1.519879
     77          1           0       -4.166713    5.603984    0.964494
     78          1           0       -5.413469    6.733472    1.674596
     79          1           0       -4.817283    5.523035    2.665823
     80          1           0       -7.960964    7.263388    1.197614
     81          1           0       -9.435400    6.056320   -1.381692
     82          1           0       -9.363171    7.739453   -0.486263
     83          1           0      -12.258512    3.695819   -0.387722
     84          1           0      -12.202655    3.698768   -2.146400
     85          1           0      -13.185419    2.825413   -1.431954
     86          1           0      -12.807989   -1.030116   -1.333966
     87          1           0      -13.531163    0.568948   -1.573078
     88          1           0      -12.483034    0.714860   -3.774538
     89          1           0      -11.796372   -0.999688   -3.608700
     90          1           0      -13.453266   -0.770927   -3.701249
     91          1           0      -10.015814   -4.674131   -0.251093
     92          1           0       -9.935972   -4.287531   -2.003600
     93          1           0       -8.591499   -5.397506   -1.260295
     94          1           0       -3.975702   -3.878017   -0.365660
     95          1           0       -2.311728   -6.558375    2.224997
     96          1           0       -1.853356   -5.212923    3.391095
     97          1           0       -3.487629   -5.848897    3.417094
     98          1           0        2.458150   -2.268567   -1.371091
     99          1           0        2.535687   -0.535102   -2.197799
    100          1           0        4.214230   -1.600717    0.339150
    101          1           0        5.219372    1.762945   -2.308163
    102          1           0        5.643369    0.259748   -2.943454
    103          1           0        3.926244    0.591316   -3.066474
    104          1           0        6.586868    1.105742   -0.049066
    105          1           0        6.165767   -0.295058    0.665448
    106          1           0        7.398833   -1.834892   -1.241044
    107          1           0        7.702938    0.080574   -1.740390
    108          1           0        8.947958    0.933436   -0.196756
    109          1           0        8.652981   -0.628669    0.949263
    110          1           0       10.069883   -0.870455   -1.730428
    111          1           0        8.971909   -3.318826   -0.670309
    112          1           0       10.815150   -3.072253   -0.947468
    113          1           0       10.160537   -2.900933    0.614521
    114          1           0       11.134755    0.827836   -0.040858
    115          1           0       11.179776   -0.765697    1.040227
    116          1           0       12.902798   -1.856681   -0.308632
    117          1           0       12.610957   -0.601427   -1.632597
    118          1           0       13.678988    1.058517    0.084709
    119          1           0       13.867761   -0.375742    1.319773
    120          1           0       15.170550    0.383832   -1.306598
    121          1           0       15.020463   -2.144562   -1.244975
    122          1           0       16.705371   -1.652652   -1.231255
    123          1           0       15.911529   -2.264020    0.143368
    124          1           0       15.930952    1.786635    0.736545
    125          1           0       16.560215    0.321087    1.275595
    126          1           0       17.923190   -0.256629   -0.287991
    127          1           0       17.549577    1.336999   -1.302083
    128          1           0       18.227992    2.768110    0.602697
    129          1           0       18.791981    1.302919    1.500838
    130          1           0       20.441442    0.743231    0.187836
    131          1           0       19.841600    3.258160   -1.668497
    132          1           0       21.376030    2.180559   -1.702647
    133          1           0       19.777892    1.411934   -2.262602
    134          1           0       21.094285    2.054107    1.846414
    135          1           0       21.878227    2.892579    0.417118
    136          1           0       20.524819    3.751552    1.206278
    137          1           0       -7.251215    1.763882    0.349837
    138          1           0       -7.496481   -0.253759   -0.333335
 ---------------------------------------------------------------------

 SCF Done:  E(RB3LYP) =  -2733.05901375     A.U. after   16 cycles

 Excitation energies and oscillator strengths:

 Excited State   1:      Singlet-A      2.0797 eV  596.16 nm  f=0.0794  <S**2>=0.000
     235 -> 237       -0.11979
     235 -> 238        0.36047
     236 -> 237        0.58091
     236 -> 238        0.11900
 This state for optimization and/or second-order correction.
 Total Energy, E(TD-HF/TD-KS) =  -2732.98258574
 Copying the excited state density for this state as the 1-particle RhoCI density.

 The electronic state is 1-A.
 Alpha  occ. eigenvalues --  -19.18427 -19.16677 -19.14624 -19.12816 -19.12125
 Alpha  occ. eigenvalues --  -14.36878 -14.35488 -14.32364 -14.29407 -10.31854
 Alpha  occ. eigenvalues --  -10.31024 -10.28209 -10.25902 -10.24803 -10.24020
 Alpha  occ. eigenvalues --  -10.23576 -10.23514 -10.23173 -10.23041 -10.22244
 Alpha  occ. eigenvalues --  -10.22179 -10.22156 -10.21373 -10.21372 -10.21315
 Alpha  occ. eigenvalues --  -10.21303 -10.21004 -10.20962 -10.20960 -10.20910
 Alpha  occ. eigenvalues --  -10.20835 -10.20718 -10.20404 -10.20247 -10.20154
 Alpha  occ. eigenvalues --  -10.20069 -10.19957 -10.19878 -10.19732 -10.19713
 Alpha  occ. eigenvalues --  -10.19623 -10.19609 -10.19586 -10.19526 -10.19481
 Alpha  occ. eigenvalues --  -10.19368 -10.19337 -10.19269 -10.19157 -10.19134
 Alpha  occ. eigenvalues --  -10.19038 -10.18924 -10.18915 -10.18784 -10.18607
 Alpha  occ. eigenvalues --  -10.18528 -10.18003 -10.17882 -10.17836 -10.17765
 Alpha  occ. eigenvalues --  -10.17703 -10.17643 -10.17187 -10.17001  -1.11272
 Alpha  occ. eigenvalues --   -1.09612  -1.06965  -1.03333  -1.01194  -0.97727
 Alpha  occ. eigenvalues --   -0.97402  -0.94589  -0.92818  -0.84080  -0.82747
 Alpha  occ. eigenvalues --   -0.82090  -0.81946  -0.81126  -0.80912  -0.80773
 Alpha  occ. eigenvalues --   -0.80278  -0.80109  -0.78854  -0.78367  -0.77239
 Alpha  occ. eigenvalues --   -0.76329  -0.75970  -0.75503  -0.74933  -0.74197
 Alpha  occ. eigenvalues --   -0.72973  -0.72466  -0.72066  -0.71467  -0.71044
 Alpha  occ. eigenvalues --   -0.69412  -0.69296  -0.68743  -0.67918  -0.67602
 Alpha  occ. eigenvalues --   -0.67285  -0.66505  -0.65915  -0.65635  -0.65038
 Alpha  occ. eigenvalues --   -0.64286  -0.62157  -0.62103  -0.61118  -0.61044
 Alpha  occ. eigenvalues --   -0.60209  -0.58613  -0.58160  -0.57303  -0.56596
 Alpha  occ. eigenvalues --   -0.56558  -0.56313  -0.55883  -0.55836  -0.55078
 Alpha  occ. eigenvalues --   -0.54918  -0.54828  -0.54402  -0.53947  -0.53156
 Alpha  occ. eigenvalues --   -0.52727  -0.51642  -0.51003  -0.50539  -0.49733
 Alpha  occ. eigenvalues --   -0.49575  -0.49463  -0.49126  -0.48707  -0.48602
 Alpha  occ. eigenvalues --   -0.47765  -0.47418  -0.47357  -0.47266  -0.47027
 Alpha  occ. eigenvalues --   -0.46823  -0.46320  -0.46193  -0.45974  -0.45751
 Alpha  occ. eigenvalues --   -0.45536  -0.45061  -0.44812  -0.44627  -0.44607
 Alpha  occ. eigenvalues --   -0.44505  -0.44260  -0.43852  -0.43664  -0.43470
 Alpha  occ. eigenvalues --   -0.43298  -0.42994  -0.42896  -0.42867  -0.42450
 Alpha  occ. eigenvalues --   -0.42284  -0.42041  -0.41970  -0.41552  -0.41355
 Alpha  occ. eigenvalues --   -0.41094  -0.40862  -0.40823  -0.40436  -0.40217
 Alpha  occ. eigenvalues --   -0.40072  -0.39972  -0.39821  -0.39792  -0.39397
 Alpha  occ. eigenvalues --   -0.39305  -0.38886  -0.38787  -0.38549  -0.38340
 Alpha  occ. eigenvalues --   -0.38265  -0.37973  -0.37872  -0.37575  -0.37311
 Alpha  occ. eigenvalues --   -0.37293  -0.37219  -0.37010  -0.36717  -0.36535
 Alpha  occ. eigenvalues --   -0.36380  -0.36080  -0.35940  -0.35656  -0.35614
 Alpha  occ. eigenvalues --   -0.35500  -0.35315  -0.35299  -0.34906  -0.34574
 Alpha  occ. eigenvalues --   -0.34221  -0.34014  -0.33976  -0.33726  -0.33597
 Alpha  occ. eigenvalues --   -0.33506  -0.33225  -0.32789  -0.32554  -0.32536
 Alpha  occ. eigenvalues --   -0.32235  -0.31821  -0.31531  -0.31116  -0.31112
 Alpha  occ. eigenvalues --   -0.30985  -0.30708  -0.30543  -0.30277  -0.29812
 Alpha  occ. eigenvalues --   -0.29671  -0.29399  -0.28554  -0.28350  -0.27928
 Alpha  occ. eigenvalues --   -0.27729  -0.27649  -0.26702  -0.26195  -0.25836
 Alpha  occ. eigenvalues --   -0.25293  -0.24848  -0.24301  -0.22170  -0.19640
 Alpha  occ. eigenvalues --   -0.18684
 Alpha virt. eigenvalues --   -0.09514  -0.08252  -0.03983  -0.01620   0.00012
 Alpha virt. eigenvalues --    0.00324   0.00828   0.02284   0.02632   0.03206
 Alpha virt. eigenvalues --    0.03979   0.04082   0.04173   0.04287   0.04339

 Mulliken charges:
               1
     1  C    0.079926
     2  C   -0.083688
     3  C   -0.042904
     4  C   -0.117063
     5  N   -0.156825
     6  C   -0.048365
     7  C   -0.085348
     8  C   -0.073332
     9  C   -0.050299
    10  C    0.085846
    11  C   -0.040095
    12  C    0.044991
    13  C    0.174380
    14  O   -0.125397
    15  O   -0.335842
    16  N   -0.047182
    17  C    0.205160
    18  C   -0.126914
    19  C    0.045974
    20  C    0.001912
    21  C    0.124147
    22  C   -0.044220
    23  C   -0.112408
    24  N   -0.247258
    25  C    0.077702
    26  C   -0.146244
    27  C   -0.077841
    28  C    0.070803
    29  C    0.168016
    30  C    0.019810
    31  C    0.088629
    32  N    0.023370
    33  C    0.089178
    34  C   -0.118399
    35  C   -0.039495
    36  C    0.066234
    37  C    0.001902
    38  C    0.045875
    39  O   -0.088984
    40  C   -0.122800
    41  C    0.198282
    42  O   -0.196542
    43  O   -0.300200
    44  C    0.133800
    45  C    0.193098
    46  C   -0.115188
    47  C   -0.131783
    48  C    0.121962
    49  C    0.158479
    50  C   -0.010725
    51  C   -0.063072
    52  C    0.048201
    53  C   -0.098776
    54  C   -0.004025
    55  C   -0.011317
    56  C    0.102404
    57  C    0.023221
    58  C    0.010626
    59  C    0.004398
    60  C   -0.037370
    61  C    0.097947
    62  C   -0.098480
    63  C   -0.051001
    64  C    0.026223
    65  H   -0.031251
    66  H   -0.042850
    67  H    0.022222
    68  H    0.040046
    69  H    0.019517
    70  H    0.010554
    71  H    0.019849
    72  H    0.044333
    73  H    0.026077
    74  H   -0.000072
    75  H    0.007769
    76  H    0.043892
    77  H    0.039073
    78  H   -0.001063
    79  H    0.007406
    80  H    0.038146
    81  H    0.065930
    82  H    0.033176
    83  H    0.003905
    84  H    0.001043
    85  H   -0.039749
    86  H   -0.001568
    87  H   -0.000789
    88  H    0.013195
    89  H    0.008241
    90  H   -0.009999
    91  H    0.045720
    92  H    0.041968
    93  H    0.058116
    94  H    0.076136
    95  H    0.046102
    96  H    0.045180
    97  H    0.043795
    98  H    0.012916
    99  H    0.017475
   100  H    0.026370
   101  H    0.017741
   102  H   -0.017445
   103  H    0.033421
   104  H   -0.033838
   105  H   -0.038548
   106  H    0.017034
   107  H   -0.024735
   108  H    0.002639
   109  H    0.005958
   110  H   -0.018527
   111  H    0.048854
   112  H    0.010207
   113  H    0.001717
   114  H    0.022335
   115  H   -0.011055
   116  H    0.003247
   117  H    0.008634
   118  H   -0.019990
   119  H    0.005309
   120  H   -0.021232
   121  H    0.007221
   122  H    0.019013
   123  H   -0.021938
   124  H   -0.026778
   125  H   -0.048920
   126  H    0.005770
   127  H    0.003094
   128  H   -0.014445
   129  H   -0.014136
   130  H   -0.000753
   131  H    0.023388
   132  H    0.017397
   133  H    0.027838
   134  H    0.012742
   135  H   -0.000176
   136  H    0.023377
   137  H    0.136665
   138  H    0.044989
 Sum of Mulliken charges =   0.00000

 Dipole moment (field-independent basis, Debye):
    X=              2.6195    Y=              3.3079    Z=              0.9104  Tot=              4.3166
 Quadrupole moment (field-independent basis, Debye-Ang):
   XX=           -356.6939   YY=           -368.4146   ZZ=           -394.9654
   XY=            -24.1939   XZ=             12.6491   YZ=             -3.0268

 Normal termination of Gaussian 09 at Sat Aug  3 11:56:12 2019.
