 Gaussian 09, Revision D.01,
 Gaussian 09:  ES64L-G09RevD.01 24-Apr-2013

 --------------------------
 # td=(NStates=1) B3LYP/SVP
 --------------------------

 --
 TD
 --
 Symbolic Z-matrix:
 Charge =  0 Multiplicity = 1

                         Standard orientation:
 ---------------------------------------------------------------------
 Center     Atomic      Atomic             Coordinates (Angstroms)
 Number     Number       Type             X           Y           Z
 ---------------------------------------------------------------------
      1          6           0       -5.128602   -1.814587    0.568568
      2          6           0       -4.773832    2.808257    1.484361
      3          6           0       -9.256670    3.352180   -0.269451
      4          6           0       -9.860584   -1.518863   -0.762857
      5          7           0       -5.134634    0.545422    0.993439
      6          6           0       -4.536583   -0.668983    0.856923
      7          6           0       -3.068994   -0.521229    1.384563
      8          6           0       -2.923865    0.931898    1.763033
      9          6           0       -4.416374    1.554856    1.447911
     10          6           0       -2.578059    1.200548    3.394120
     11          6           0       -2.030154   -0.856550    0.097617
     12          6           0       -0.618735   -0.775264    0.537900
     13          6           0        0.331114   -1.092739   -0.565197
     14          8           0       -0.017788   -1.439649   -1.717262
     15          8           0        1.603404   -0.914402   -0.196488
     16          7           0       -6.993291    2.811182    0.587350
     17          6           0       -5.973691    3.425706    1.132179
     18          6           0       -6.185192    4.848882    1.085793
     19          6           0       -7.401696    4.989090    0.459724
     20          6           0       -7.985466    3.619138    0.143540
     21          6           0       -5.268691    5.854753    1.512836
     22          6           0       -8.214224    6.255897    0.196815
     23          6           0       -8.906086    6.471347   -0.904066
     24          7           0       -9.174382    0.837723   -0.487732
     25          6           0       -9.806743    1.971390   -0.550296
     26          6           0      -11.233862    1.883235   -1.068052
     27          6           0      -11.365543    0.484506   -1.140699
     28          6           0      -10.083327   -0.116624   -0.794598
     29          6           0      -12.281467    2.881134   -1.227944
     30          6           0      -12.576496   -0.169327   -1.661340
     31          6           0      -12.502017   -0.589899   -3.139731
     32          7           0       -7.623880   -1.261960   -0.037591
     33          6           0       -8.602497   -2.016559   -0.469978
     34          6           0       -8.080083   -3.435954   -0.555993
     35          6           0       -6.796592   -3.402095   -0.071908
     36          6           0       -6.435672   -1.987648    0.180458
     37          6           0       -8.939896   -4.667562   -0.883607
     38          6           0       -5.670614   -4.160729    0.096331
     39          8           0       -5.557905   -5.425817   -0.108942
     40          6           0       -4.570051   -3.300371    0.446370
     41          6           0       -3.875365   -3.843581    1.806657
     42          8           0       -4.020073   -3.319785    2.846357
     43          8           0       -3.142768   -4.915001    1.571320
     44          6           0       -2.458907   -5.523411    2.636186
     45          6           0        2.537271   -1.134370   -1.299643
     46          6           0        3.889130   -0.850397   -0.723818
     47          6           0        4.867750   -0.018141   -1.145213
     48          6           0        4.696177    0.866437   -2.397407
     49          6           0        6.178935    0.151727   -0.432448
     50          6           0        7.426491   -0.406653   -1.103247
     51          6           0        8.729904   -0.155377   -0.266979
     52          6           0       10.006515   -0.763563   -0.879033
     53          6           0       10.047926   -2.339334   -1.081220
     54          6           0       11.253426   -0.324294   -0.058701
     55          6           0       12.613684   -0.666083   -0.661579
     56          6           0       13.857748   -0.106708    0.129316
     57          6           0       15.150065   -0.178440   -0.588676
     58          6           0       15.732831   -1.555635   -0.897549
     59          6           0       16.149498    0.499145    0.498020
     60          6           0       17.619514    0.714870   -0.163955
     61          6           0       18.489435    1.567587    0.761252
     62          6           0       20.010497    1.652793    0.341165
     63          6           0       20.149337    2.198282   -1.011293
     64          6           0       20.808654    2.589090    1.362800
     65          1           0       -4.127280    3.406235    1.798408
     66          1           0      -10.045871    4.090010   -0.448201
     67          1           0      -10.777033   -2.119696   -1.209010
     68          1           0       -2.946438   -1.445841    2.043963
     69          1           0       -2.174338    1.303829    1.066908
     70          1           0       -1.526817    0.808860    3.530324
     71          1           0       -2.617163    2.387265    3.588656
     72          1           0       -3.413829    0.795559    3.883699
     73          1           0       -2.387707   -1.813394   -0.428931
     74          1           0       -2.201148   -0.264730   -0.889033
     75          1           0       -0.101539    0.188555    0.712164
     76          1           0       -0.057643   -1.288998    1.466781
     77          1           0       -4.403522    5.913874    0.862221
     78          1           0       -5.787864    6.807971    1.823131
     79          1           0       -4.886242    5.540161    2.408405
     80          1           0       -8.041382    7.190524    1.008101
     81          1           0       -8.941396    5.720396   -1.764711
     82          1           0       -9.339166    7.310261   -1.464517
     83          1           0      -12.173158    3.624258   -0.396862
     84          1           0      -12.127094    3.682461   -2.039461
     85          1           0      -13.314055    2.521504   -1.261671
     86          1           0      -12.724954   -1.130854   -0.916179
     87          1           0      -13.388816    0.815451   -1.486620
     88          1           0      -12.376730    0.270322   -3.913669
     89          1           0      -11.784240   -1.359265   -3.391247
     90          1           0      -13.588533   -1.040509   -3.249605
     91          1           0       -9.895208   -4.523412   -0.286643
     92          1           0       -9.199027   -4.742145   -2.044548
     93          1           0       -8.364014   -5.706910   -0.594693
     94          1           0       -3.689204   -3.263740   -0.238011
     95          1           0       -1.956086   -6.356309    2.224589
     96          1           0       -1.792375   -4.942701    3.103086
     97          1           0       -3.049990   -5.983422    3.554323
     98          1           0        2.484903   -2.162820   -1.602082
     99          1           0        2.361520   -0.604261   -2.109520
    100          1           0        4.254070   -1.661757    0.068785
    101          1           0        4.593961    2.045133   -2.015621
    102          1           0        5.723852    1.014019   -3.214743
    103          1           0        3.670142    0.397351   -2.749202
    104          1           0        6.448668    1.340614   -0.524709
    105          1           0        6.086870   -0.190299    0.623343
    106          1           0        7.214867   -1.372514   -1.215954
    107          1           0        7.543715    0.207420   -2.068364
    108          1           0        8.757659    0.801140   -0.232628
    109          1           0        8.424266   -0.509264    0.876528
    110          1           0        9.942035   -0.348708   -1.894960
    111          1           0        9.148740   -2.733084   -1.728889
    112          1           0       10.954518   -2.448455   -1.705255
    113          1           0       10.009935   -2.885151   -0.008656
    114          1           0       11.136587    0.756919    0.056902
    115          1           0       11.125099   -0.643562    1.042310
    116          1           0       12.729378   -1.638643   -0.757023
    117          1           0       12.718629   -0.238369   -1.668633
    118          1           0       13.860855    1.037063    0.241607
    119          1           0       13.914919   -0.357968    1.228197
    120          1           0       14.968850    0.302438   -1.498247
    121          1           0       14.946655   -2.137991   -1.521723
    122          1           0       16.474699   -1.460957   -1.544387
    123          1           0       15.641837   -2.233560    0.003831
    124          1           0       15.853082    1.379474    0.889925
    125          1           0       16.098938   -0.022280    1.572270
    126          1           0       17.786478   -0.398221   -0.341653
    127          1           0       17.553025    1.136199   -1.142798
    128          1           0       18.121344    2.697731    0.667248
    129          1           0       18.438278    1.424577    1.850020
    130          1           0       20.321496    0.607364    0.402355
    131          1           0       19.396496    3.130904   -1.089076
    132          1           0       21.391929    2.529252   -1.251938
    133          1           0       19.631218    1.561262   -1.936610
    134          1           0       20.844686    2.301143    2.385447
    135          1           0       21.868253    2.460146    1.034095
    136          1           0       20.342627    3.653939    1.546491
    137          1           0       -7.030945    1.821257    0.430981
    138          1           0       -7.825534   -0.233056    0.015276
 ---------------------------------------------------------------------

 SCF Done:  E(RB3LYP) =  -2732.95919784     A.U. after   18 cycles

 Excitation energies and oscillator strengths:

 Excited State   1:      Singlet-A      2.0955 eV  591.68 nm  f=0.2004  <S**2>=0.000
     235 -> 238        0.29580
     236 -> 237        0.63970
 This state for optimization and/or second-order correction.
 Total Energy, E(TD-HF/TD-KS) =  -2732.88219095
 Copying the excited state density for this state as the 1-particle RhoCI density.

 The electronic state is 1-A.
 Alpha  occ. eigenvalues --  -19.18750 -19.18480 -19.13106 -19.11745 -19.10119
 Alpha  occ. eigenvalues --  -14.37371 -14.36875 -14.30902 -14.30516 -10.32146
 Alpha  occ. eigenvalues --  -10.31273 -10.25764 -10.24235 -10.24204 -10.23901
 Alpha  occ. eigenvalues --  -10.23785 -10.23745 -10.23346 -10.23005 -10.22563
 Alpha  occ. eigenvalues --  -10.22344 -10.22251 -10.22050 -10.21804 -10.21755
 Alpha  occ. eigenvalues --  -10.21473 -10.21425 -10.21324 -10.21235 -10.21200
 Alpha  occ. eigenvalues --  -10.21068 -10.20977 -10.20928 -10.20877 -10.20597
 Alpha  occ. eigenvalues --  -10.20574 -10.20424 -10.20274 -10.20158 -10.20134
 Alpha  occ. eigenvalues --  -10.20016 -10.19955 -10.19906 -10.19813 -10.19796
 Alpha  occ. eigenvalues --  -10.19726 -10.19576 -10.19311 -10.19157 -10.19069
 Alpha  occ. eigenvalues --  -10.18647 -10.18631 -10.18611 -10.18545 -10.18468
 Alpha  occ. eigenvalues --  -10.18328 -10.18276 -10.18253 -10.18196 -10.18139
 Alpha  occ. eigenvalues --  -10.17808 -10.17533 -10.17501 -10.16910  -1.11781
 Alpha  occ. eigenvalues --   -1.09574  -1.03177  -1.00524  -0.98993  -0.98729
 Alpha  occ. eigenvalues --   -0.97584  -0.94972  -0.93475  -0.86051  -0.82792
 Alpha  occ. eigenvalues --   -0.82746  -0.81921  -0.81763  -0.80888  -0.80152
 Alpha  occ. eigenvalues --   -0.79947  -0.79657  -0.79439  -0.78657  -0.77493
 Alpha  occ. eigenvalues --   -0.77389  -0.76129  -0.75734  -0.74752  -0.74515
 Alpha  occ. eigenvalues --   -0.74196  -0.73310  -0.72857  -0.72003  -0.71464
 Alpha  occ. eigenvalues --   -0.70436  -0.68931  -0.68547  -0.68045  -0.67657
 Alpha  occ. eigenvalues --   -0.66962  -0.66348  -0.65887  -0.65346  -0.64932
 Alpha  occ. eigenvalues --   -0.64260  -0.63376  -0.63149  -0.61905  -0.61676
 Alpha  occ. eigenvalues --   -0.61118  -0.59215  -0.58974  -0.58794  -0.58183
 Alpha  occ. eigenvalues --   -0.58025  -0.57604  -0.56919  -0.56287  -0.55868
 Alpha  occ. eigenvalues --   -0.55284  -0.55098  -0.54375  -0.54310  -0.53046
 Alpha  occ. eigenvalues --   -0.52089  -0.51864  -0.51541  -0.51078  -0.50500
 Alpha  occ. eigenvalues --   -0.50130  -0.49464  -0.49358  -0.48889  -0.48371
 Alpha  occ. eigenvalues --   -0.48018  -0.48012  -0.47367  -0.46905  -0.46794
 Alpha  occ. eigenvalues --   -0.46576  -0.46389  -0.46107  -0.45854  -0.45635
 Alpha  occ. eigenvalues --   -0.45613  -0.45302  -0.45210  -0.44737  -0.44470
 Alpha  occ. eigenvalues --   -0.44394  -0.44149  -0.43888  -0.43701  -0.43603
 Alpha  occ. eigenvalues --   -0.43521  -0.43344  -0.43073  -0.42895  -0.42635
 Alpha  occ. eigenvalues --   -0.42416  -0.42302  -0.42020  -0.41749  -0.41575
 Alpha  occ. eigenvalues --   -0.41220  -0.40876  -0.40814  -0.40641  -0.40550
 Alpha  occ. eigenvalues --   -0.40470  -0.40267  -0.39805  -0.39615  -0.39534
 Alpha  occ. eigenvalues --   -0.39292  -0.38846  -0.38683  -0.38321  -0.38274
 Alpha  occ. eigenvalues --   -0.38082  -0.38030  -0.37822  -0.37665  -0.37416
 Alpha  occ. eigenvalues --   -0.37316  -0.37244  -0.37035  -0.36754  -0.36477
 Alpha  occ. eigenvalues --   -0.36431  -0.36018  -0.35816  -0.35684  -0.35318
 Alpha  occ. eigenvalues --   -0.35118  -0.34981  -0.34885  -0.34667  -0.34461
 Alpha  occ. eigenvalues --   -0.33996  -0.33674  -0.33607  -0.33306  -0.33110
 Alpha  occ. eigenvalues --   -0.32962  -0.32820  -0.32662  -0.32213  -0.32171
 Alpha  occ. eigenvalues --   -0.31989  -0.31840  -0.31462  -0.31394  -0.31294
 Alpha  occ. eigenvalues --   -0.31138  -0.31063  -0.31049  -0.30657  -0.30630
 Alpha  occ. eigenvalues --   -0.30519  -0.30157  -0.28515  -0.27975  -0.27461
 Alpha  occ. eigenvalues --   -0.27263  -0.26720  -0.26632  -0.25717  -0.24898
 Alpha  occ. eigenvalues --   -0.24852  -0.24377  -0.23861  -0.22405  -0.20386
 Alpha  occ. eigenvalues --   -0.18520
 Alpha virt. eigenvalues --   -0.09814  -0.07960  -0.04952  -0.01561  -0.01499
 Alpha virt. eigenvalues --    0.00424   0.00767   0.01430   0.02300   0.02739
 Alpha virt. eigenvalues --    0.03547   0.04011   0.04144   0.04707   0.04838

 Mulliken charges:
               1
     1  C    0.072830
     2  C    0.072611
     3  C   -0.075770
     4  C   -0.119063
     5  N   -0.165703
     6  C   -0.134225
     7  C   -0.079066
     8  C    0.028672
     9  C   -0.037314
    10  C    0.015070
    11  C   -0.013215
    12  C    0.052064
    13  C    0.150930
    14  O   -0.289549
    15  O   -0.317771
    16  N    0.035722
    17  C    0.079832
    18  C   -0.170949
    19  C   -0.021699
    20  C    0.134305
    21  C    0.200556
    22  C   -0.022443
    23  C   -0.084123
    24  N   -0.182236
    25  C   -0.033249
    26  C   -0.124593
    27  C   -0.085882
    28  C    0.024681
    29  C    0.076048
    30  C   -0.063380
    31  C    0.002076
    32  N   -0.032587
    33  C    0.063851
    34  C   -0.130581
    35  C    0.073893
    36  C    0.104124
    37  C   -0.004837
    38  C    0.050176
    39  O   -0.255701
    40  C   -0.020739
    41  C    0.167185
    42  O   -0.184902
    43  O   -0.249409
    44  C    0.220994
    45  C    0.387111
    46  C   -0.142479
    47  C   -0.095750
    48  C   -0.073640
    49  C    0.017174
    50  C    0.047083
    51  C    0.079945
    52  C   -0.058387
    53  C   -0.032202
    54  C    0.035492
    55  C    0.160128
    56  C   -0.021292
    57  C   -0.067458
    58  C    0.099718
    59  C   -0.009145
    60  C    0.058573
    61  C   -0.011977
    62  C   -0.050811
    63  C   -0.080936
    64  C    0.018436
    65  H   -0.168041
    66  H   -0.017338
    67  H    0.025209
    68  H    0.040894
    69  H    0.003348
    70  H    0.039433
    71  H    0.024534
    72  H    0.030473
    73  H    0.018454
    74  H    0.028149
    75  H    0.025901
    76  H    0.047563
    77  H    0.027257
    78  H    0.018582
    79  H   -0.016135
    80  H    0.042244
    81  H    0.032501
    82  H    0.029465
    83  H    0.016715
    84  H    0.017051
    85  H    0.020445
    86  H    0.031342
    87  H    0.029219
    88  H    0.032341
    89  H    0.018399
    90  H    0.026134
    91  H    0.045073
    92  H    0.048115
    93  H    0.075310
    94  H    0.066866
    95  H    0.019598
    96  H   -0.010885
    97  H    0.034268
    98  H    0.013432
    99  H   -0.046178
   100  H    0.015621
   101  H    0.048669
   102  H    0.067097
   103  H    0.041667
   104  H    0.002674
   105  H    0.007577
   106  H   -0.033380
   107  H    0.001374
   108  H   -0.070429
   109  H   -0.003182
   110  H   -0.017339
   111  H    0.023288
   112  H    0.025920
   113  H    0.034285
   114  H   -0.022565
   115  H    0.000034
   116  H   -0.037685
   117  H   -0.020592
   118  H   -0.009937
   119  H   -0.011298
   120  H   -0.027212
   121  H   -0.018106
   122  H   -0.013596
   123  H    0.015030
   124  H   -0.053215
   125  H    0.000476
   126  H    0.012659
   127  H   -0.007548
   128  H   -0.001622
   129  H   -0.003139
   130  H    0.001124
   131  H    0.015568
   132  H    0.037881
   133  H    0.034437
   134  H   -0.011927
   135  H    0.016360
   136  H    0.022288
   137  H    0.126159
   138  H    0.156635
 Sum of Mulliken charges =   0.00000

 Dipole moment (field-independent basis, Debye):
    X=              2.4279    Y=              5.0956    Z=              0.6378  Tot=              5.6804
 Quadrupole moment (field-independent basis, Debye-Ang):
   XX=           -369.3444   YY=           -385.5400   ZZ=           -394.3387
   XY=            -35.4519   XZ=             11.4080   YZ=             -5.7189

 Normal termination of Gaussian 09 at Sun Aug  4 01:15:30 2019.
