 Gaussian 09, Revision D.01,
 Gaussian 09:  ES64L-G09RevD.01 24-Apr-2013

 --------------------------
 # td=(NStates=1) B3LYP/SVP
 --------------------------

 --
 TD
 --
 Symbolic Z-matrix:
 Charge =  0 Multiplicity = 1

                         Standard orientation:
 ---------------------------------------------------------------------
 Center     Atomic      Atomic             Coordinates (Angstroms)
 Number     Number       Type             X           Y           Z
 ---------------------------------------------------------------------
      1          6           0       -5.104041   -1.864736    0.460857
      2          6           0       -4.858580    2.874888    1.451300
      3          6           0       -9.462548    3.250389   -0.256859
      4          6           0       -9.930910   -1.577530   -0.800247
      5          7           0       -5.206396    0.501728    0.829017
      6          6           0       -4.482498   -0.660226    0.803552
      7          6           0       -3.080625   -0.390472    1.166235
      8          6           0       -3.134472    0.987249    1.803720
      9          6           0       -4.513267    1.499134    1.434429
     10          6           0       -2.895924    1.038164    3.347579
     11          6           0       -2.060597   -0.604579   -0.002172
     12          6           0       -0.648756   -0.598786    0.591165
     13          6           0        0.384622   -0.773463   -0.643812
     14          8           0        0.068866   -1.257629   -1.691992
     15          8           0        1.692385   -0.552576   -0.238720
     16          7           0       -7.131133    2.675805    0.482128
     17          6           0       -6.080999    3.384402    1.034201
     18          6           0       -6.479946    4.752129    1.165811
     19          6           0       -7.714348    4.920512    0.598428
     20          6           0       -8.217670    3.560331    0.208766
     21          6           0       -5.545757    5.826655    1.670350
     22          6           0       -8.453162    6.110889    0.358656
     23          6           0       -9.301999    6.488179   -0.681738
     24          7           0       -9.241089    0.833887   -0.462587
     25          6           0       -9.913111    1.954657   -0.628780
     26          6           0      -11.335308    1.666979   -0.987167
     27          6           0      -11.388424    0.377123   -1.308394
     28          6           0      -10.106228   -0.188920   -0.953724
     29          6           0      -12.347643    2.781395   -1.400832
     30          6           0      -12.580226   -0.408433   -1.777049
     31          6           0      -12.474796   -0.721353   -3.292562
     32          7           0       -7.590511   -1.310517   -0.068202
     33          6           0       -8.618723   -2.102374   -0.509969
     34          6           0       -8.090402   -3.544205   -0.468219
     35          6           0       -6.769675   -3.430538   -0.169788
     36          6           0       -6.386726   -2.048294    0.026169
     37          6           0       -8.854425   -4.758631   -0.792016
     38          6           0       -5.524198   -4.225046    0.089705
     39          8           0       -5.545599   -5.401988   -0.061716
     40          6           0       -4.383334   -3.249819    0.555943
     41          6           0       -3.939821   -3.730970    1.904075
     42          8           0       -4.225285   -3.299776    2.944155
     43          8           0       -3.149825   -4.866787    1.603152
     44          6           0       -2.621476   -5.539110    2.719760
     45          6           0        2.646133   -0.939084   -1.199093
     46          6           0        4.008867   -0.601480   -0.508591
     47          6           0        4.933738    0.126953   -1.102610
     48          6           0        4.878299    0.858497   -2.314333
     49          6           0        6.340747    0.338736   -0.355062
     50          6           0        7.581070   -0.324080   -1.027537
     51          6           0        8.858722   -0.142702   -0.197874
     52          6           0       10.087426   -0.381880   -1.013419
     53          6           0       10.186255   -1.984540   -1.404590
     54          6           0       11.273640   -0.115756   -0.069883
     55          6           0       12.726223   -0.401395   -0.651748
     56          6           0       13.881720    0.138300    0.080912
     57          6           0       15.278367   -0.201439   -0.457770
     58          6           0       15.635088   -1.618669   -0.490047
     59          6           0       16.348380    0.410828    0.474076
     60          6           0       17.738510    0.501470   -0.055867
     61          6           0       18.762928    1.310229    0.771891
     62          6           0       20.271651    1.458854    0.275383
     63          6           0       20.329817    2.084776   -1.098023
     64          6           0       21.134483    2.166512    1.169716
     65          1           0       -4.116364    3.559990    1.829578
     66          1           0      -10.126722    4.170122   -0.466522
     67          1           0      -10.675855   -2.174571   -1.347864
     68          1           0       -2.781563   -1.136536    2.132778
     69          1           0       -2.360308    1.640102    1.211941
     70          1           0       -1.874921    0.377228    3.223027
     71          1           0       -2.814398    2.066028    3.913254
     72          1           0       -3.902399    0.558209    3.854894
     73          1           0       -2.246899   -1.459082   -0.677137
     74          1           0       -2.095448    0.297829   -0.777641
     75          1           0       -0.160168    0.362560    0.953948
     76          1           0       -0.694545   -1.294778    1.328605
     77          1           0       -4.408388    5.648503    1.141761
     78          1           0       -5.963351    6.821111    1.390531
     79          1           0       -5.417967    5.918573    2.853775
     80          1           0       -8.373294    6.832199    1.277485
     81          1           0       -9.470343    5.850209   -1.560799
     82          1           0       -9.810687    7.484774   -0.710171
     83          1           0      -12.539039    3.521255   -0.521840
     84          1           0      -11.867422    3.181514   -2.310218
     85          1           0      -13.285929    2.209003   -1.441926
     86          1           0      -12.700159   -1.446913   -1.147277
     87          1           0      -13.511170    0.211262   -1.464619
     88          1           0      -12.677466    0.235965   -3.761267
     89          1           0      -11.715747   -1.404744   -3.664322
     90          1           0      -13.513775   -1.452183   -3.529427
     91          1           0       -9.554695   -5.171226    0.057147
     92          1           0       -9.645452   -4.470306   -1.705834
     93          1           0       -8.194806   -5.821769   -1.078831
     94          1           0       -3.538909   -3.634169   -0.230007
     95          1           0       -1.972869   -6.465455    2.335541
     96          1           0       -1.723006   -5.018147    3.312653
     97          1           0       -3.276372   -5.816190    3.507001
     98          1           0        2.565422   -1.902357   -1.352740
     99          1           0        2.507628   -0.305932   -2.212413
    100          1           0        4.064568   -1.185984    0.485214
    101          1           0        5.676526    1.738884   -2.212132
    102          1           0        5.416963    0.238883   -3.293147
    103          1           0        3.823312    1.282406   -2.747105
    104          1           0        6.403579    1.212019   -0.425431
    105          1           0        6.380993   -0.039699    0.710735
    106          1           0        7.456752   -1.398920   -1.319551
    107          1           0        7.759286   -0.005336   -1.989662
    108          1           0        8.817932    0.955126    0.326477
    109          1           0        8.707025   -1.058290    0.556037
    110          1           0       10.216222    0.251463   -1.953156
    111          1           0        9.342500   -2.486343   -1.906441
    112          1           0       10.934939   -2.364476   -2.026808
    113          1           0       10.288094   -2.571693   -0.499754
    114          1           0       11.249013    0.946508    0.016124
    115          1           0       10.975588   -0.452922    0.916555
    116          1           0       12.946357   -1.624690   -0.760314
    117          1           0       12.919116   -0.066163   -1.764096
    118          1           0       13.981347    1.118045    0.320287
    119          1           0       14.080832   -0.246239    1.175101
    120          1           0       15.261891    0.354432   -1.399356
    121          1           0       15.035178   -2.161253   -1.188328
    122          1           0       16.652741   -1.714556   -0.828261
    123          1           0       15.505531   -2.138868    0.427262
    124          1           0       16.135004    1.428684    0.839617
    125          1           0       16.217727   -0.114075    1.452213
    126          1           0       18.113550   -0.432486   -0.357971
    127          1           0       17.946655    1.033003   -1.000345
    128          1           0       18.133952    2.276341    0.989204
    129          1           0       18.672084    0.910177    1.857720
    130          1           0       20.433427    0.463328    0.159350
    131          1           0       20.125131    3.228931   -1.089440
    132          1           0       21.150413    1.925869   -1.761208
    133          1           0       19.562232    1.705946   -1.746796
    134          1           0       21.244428    1.700101    2.114627
    135          1           0       21.987209    2.288658    0.791639
    136          1           0       20.742411    3.266037    1.394367
    137          1           0       -7.164930    1.755694    0.263666
    138          1           0       -7.715069   -0.305204   -0.048901
 ---------------------------------------------------------------------

 SCF Done:  E(RB3LYP) =  -2733.00547275     A.U. after   16 cycles

 Excitation energies and oscillator strengths:

 Excited State   1:      Singlet-A      2.0221 eV  613.14 nm  f=0.1791  <S**2>=0.000
     235 -> 238        0.30487
     236 -> 237        0.63263
 This state for optimization and/or second-order correction.
 Total Energy, E(TD-HF/TD-KS) =  -2732.93116179
 Copying the excited state density for this state as the 1-particle RhoCI density.

 The electronic state is 1-A.
 Alpha  occ. eigenvalues --  -19.17830 -19.17806 -19.14483 -19.13706 -19.12358
 Alpha  occ. eigenvalues --  -14.36895 -14.36399 -14.31794 -14.30121 -10.32378
 Alpha  occ. eigenvalues --  -10.32129 -10.27937 -10.25172 -10.24220 -10.24103
 Alpha  occ. eigenvalues --  -10.23835 -10.23822 -10.23280 -10.22821 -10.22642
 Alpha  occ. eigenvalues --  -10.22595 -10.22326 -10.22243 -10.22174 -10.22026
 Alpha  occ. eigenvalues --  -10.21879 -10.21480 -10.21359 -10.21171 -10.21165
 Alpha  occ. eigenvalues --  -10.21028 -10.21001 -10.20897 -10.20872 -10.20725
 Alpha  occ. eigenvalues --  -10.20686 -10.20671 -10.20517 -10.20476 -10.20459
 Alpha  occ. eigenvalues --  -10.20417 -10.20258 -10.20184 -10.19862 -10.19850
 Alpha  occ. eigenvalues --  -10.19835 -10.19405 -10.19101 -10.18833 -10.18419
 Alpha  occ. eigenvalues --  -10.18301 -10.18213 -10.18015 -10.17904 -10.17769
 Alpha  occ. eigenvalues --  -10.17669 -10.17667 -10.17531 -10.17528 -10.17442
 Alpha  occ. eigenvalues --  -10.17111 -10.17048 -10.16159 -10.16090  -1.10207
 Alpha  occ. eigenvalues --   -1.09614  -1.04476  -1.03062  -1.02018  -0.97171
 Alpha  occ. eigenvalues --   -0.96852  -0.94172  -0.93211  -0.84843  -0.82933
 Alpha  occ. eigenvalues --   -0.82640  -0.82332  -0.81423  -0.81097  -0.80829
 Alpha  occ. eigenvalues --   -0.80594  -0.79532  -0.79361  -0.77997  -0.77220
 Alpha  occ. eigenvalues --   -0.76851  -0.76065  -0.75206  -0.75137  -0.74016
 Alpha  occ. eigenvalues --   -0.73395  -0.73288  -0.72324  -0.71755  -0.69799
 Alpha  occ. eigenvalues --   -0.68961  -0.68817  -0.68752  -0.68164  -0.67792
 Alpha  occ. eigenvalues --   -0.67542  -0.66679  -0.66532  -0.65538  -0.65073
 Alpha  occ. eigenvalues --   -0.63629  -0.62842  -0.62636  -0.61470  -0.61263
 Alpha  occ. eigenvalues --   -0.61014  -0.59898  -0.58513  -0.57479  -0.57391
 Alpha  occ. eigenvalues --   -0.56856  -0.56454  -0.56428  -0.56141  -0.55730
 Alpha  occ. eigenvalues --   -0.55695  -0.55114  -0.54587  -0.53378  -0.52992
 Alpha  occ. eigenvalues --   -0.52116  -0.51631  -0.51230  -0.50686  -0.50227
 Alpha  occ. eigenvalues --   -0.50004  -0.49296  -0.49005  -0.48509  -0.48100
 Alpha  occ. eigenvalues --   -0.48058  -0.47861  -0.47699  -0.47158  -0.47117
 Alpha  occ. eigenvalues --   -0.46983  -0.46638  -0.46153  -0.46040  -0.45454
 Alpha  occ. eigenvalues --   -0.45318  -0.45186  -0.44980  -0.44912  -0.44583
 Alpha  occ. eigenvalues --   -0.44275  -0.44211  -0.43988  -0.43891  -0.43568
 Alpha  occ. eigenvalues --   -0.43361  -0.43235  -0.43178  -0.42583  -0.42539
 Alpha  occ. eigenvalues --   -0.42222  -0.42047  -0.41959  -0.41808  -0.41710
 Alpha  occ. eigenvalues --   -0.41058  -0.40661  -0.40485  -0.40182  -0.40095
 Alpha  occ. eigenvalues --   -0.39753  -0.39669  -0.39383  -0.39257  -0.39099
 Alpha  occ. eigenvalues --   -0.38971  -0.38834  -0.38650  -0.38477  -0.38450
 Alpha  occ. eigenvalues --   -0.38306  -0.38090  -0.37910  -0.37714  -0.37539
 Alpha  occ. eigenvalues --   -0.37326  -0.37171  -0.37148  -0.37120  -0.36786
 Alpha  occ. eigenvalues --   -0.36619  -0.36418  -0.36321  -0.35991  -0.35930
 Alpha  occ. eigenvalues --   -0.35757  -0.35703  -0.35473  -0.35321  -0.35023
 Alpha  occ. eigenvalues --   -0.34916  -0.34509  -0.34445  -0.33966  -0.33848
 Alpha  occ. eigenvalues --   -0.33479  -0.33307  -0.32895  -0.32605  -0.32473
 Alpha  occ. eigenvalues --   -0.31934  -0.31747  -0.31475  -0.31456  -0.31141
 Alpha  occ. eigenvalues --   -0.30958  -0.30866  -0.30317  -0.30234  -0.30092
 Alpha  occ. eigenvalues --   -0.29686  -0.29394  -0.29311  -0.28283  -0.28077
 Alpha  occ. eigenvalues --   -0.28007  -0.26855  -0.26535  -0.25818  -0.25638
 Alpha  occ. eigenvalues --   -0.25026  -0.24683  -0.24276  -0.23204  -0.20284
 Alpha  occ. eigenvalues --   -0.18151
 Alpha virt. eigenvalues --   -0.09599  -0.08157  -0.04400  -0.02744  -0.01078
 Alpha virt. eigenvalues --   -0.00679  -0.00007   0.00699   0.01600   0.03019
 Alpha virt. eigenvalues --    0.03817   0.03960   0.04127   0.04769   0.04901

 Mulliken charges:
               1
     1  C    0.024311
     2  C   -0.075648
     3  C   -0.099828
     4  C   -0.049094
     5  N   -0.188420
     6  C   -0.069029
     7  C   -0.093228
     8  C   -0.051920
     9  C    0.013599
    10  C   -0.038155
    11  C    0.033473
    12  C    0.033369
    13  C    0.186542
    14  O   -0.211944
    15  O   -0.325039
    16  N   -0.039124
    17  C    0.149784
    18  C   -0.100285
    19  C    0.058573
    20  C    0.104869
    21  C   -0.008269
    22  C   -0.109341
    23  C   -0.047643
    24  N   -0.261103
    25  C    0.048557
    26  C   -0.206540
    27  C   -0.030113
    28  C    0.046805
    29  C    0.080547
    30  C   -0.028686
    31  C   -0.009495
    32  N   -0.057612
    33  C    0.055485
    34  C   -0.105674
    35  C    0.011917
    36  C    0.134664
    37  C   -0.074624
    38  C    0.024019
    39  O   -0.129551
    40  C   -0.084118
    41  C    0.221640
    42  O   -0.139572
    43  O   -0.330387
    44  C    0.143711
    45  C    0.279468
    46  C   -0.116841
    47  C   -0.077311
    48  C   -0.060114
    49  C    0.215251
    50  C    0.045029
    51  C   -0.044196
    52  C   -0.100111
    53  C    0.027618
    54  C    0.115479
    55  C    0.026279
    56  C    0.067295
    57  C   -0.092214
    58  C    0.137864
    59  C    0.007695
    60  C    0.087843
    61  C   -0.077886
    62  C    0.003108
    63  C    0.018438
    64  C    0.180463
    65  H   -0.032105
    66  H    0.002975
    67  H    0.001147
    68  H    0.042026
    69  H    0.017279
    70  H    0.048157
    71  H    0.045595
    72  H    0.056188
    73  H    0.037489
    74  H    0.018880
    75  H    0.043585
    76  H    0.007976
    77  H    0.058059
    78  H    0.023604
    79  H    0.049952
    80  H    0.031670
    81  H    0.037843
    82  H    0.041477
    83  H    0.033615
    84  H    0.052049
    85  H    0.004755
    86  H    0.028330
    87  H    0.023650
    88  H    0.026712
    89  H    0.038749
    90  H    0.007773
    91  H    0.052115
    92  H    0.041920
    93  H    0.075518
    94  H    0.096854
    95  H    0.043387
    96  H    0.014066
    97  H    0.026626
    98  H   -0.028401
    99  H    0.030532
   100  H    0.015132
   101  H    0.030571
   102  H    0.051582
   103  H    0.060114
   104  H   -0.104373
   105  H    0.002999
   106  H   -0.006014
   107  H   -0.052893
   108  H    0.025282
   109  H    0.025912
   110  H    0.011316
   111  H   -0.005926
   112  H   -0.007802
   113  H   -0.005345
   114  H   -0.025176
   115  H   -0.006185
   116  H    0.016500
   117  H    0.004873
   118  H   -0.057870
   119  H   -0.033854
   120  H   -0.021902
   121  H   -0.016842
   122  H   -0.011465
   123  H   -0.013002
   124  H   -0.029802
   125  H   -0.012349
   126  H   -0.037480
   127  H   -0.020845
   128  H   -0.012111
   129  H   -0.014157
   130  H   -0.034462
   131  H    0.008649
   132  H   -0.004725
   133  H   -0.022287
   134  H   -0.013581
   135  H   -0.060640
   136  H    0.005146
   137  H    0.083162
   138  H    0.139216
 Sum of Mulliken charges =   0.00000

 Dipole moment (field-independent basis, Debye):
    X=              2.8235    Y=              4.0107    Z=             -0.2493  Tot=              4.9112
 Quadrupole moment (field-independent basis, Debye-Ang):
   XX=           -353.9887   YY=           -381.7400   ZZ=           -395.4875
   XY=            -28.7086   XZ=              1.3208   YZ=             -1.7067

 Normal termination of Gaussian 09 at Sun Aug  4 10:59:01 2019.
