 Gaussian 09, Revision D.01,
 Gaussian 09:  ES64L-G09RevD.01 24-Apr-2013

 --------------------------
 # td=(NStates=1) B3LYP/SVP
 --------------------------

 --
 TD
 --
 Symbolic Z-matrix:
 Charge =  0 Multiplicity = 1

                         Standard orientation:
 ---------------------------------------------------------------------
 Center     Atomic      Atomic             Coordinates (Angstroms)
 Number     Number       Type             X           Y           Z
 ---------------------------------------------------------------------
      1          6           0       -5.200327   -1.972275    0.532115
      2          6           0       -4.605413    2.700732    1.375778
      3          6           0       -9.250697    3.328565   -0.230394
      4          6           0       -9.791200   -1.386836   -0.947628
      5          7           0       -5.205573    0.439682    0.838926
      6          6           0       -4.628671   -0.730849    0.947442
      7          6           0       -3.083197   -0.621458    1.322285
      8          6           0       -2.994823    0.848766    1.771010
      9          6           0       -4.266651    1.419351    1.267391
     10          6           0       -2.852216    1.024366    3.267718
     11          6           0       -2.106128   -1.009229    0.166077
     12          6           0       -0.629771   -1.139177    0.567933
     13          6           0        0.344530   -1.334345   -0.591267
     14          8           0        0.079151   -1.924480   -1.670790
     15          8           0        1.600551   -0.962501   -0.182528
     16          7           0       -7.004510    2.875222    0.549206
     17          6           0       -5.868278    3.509320    1.006436
     18          6           0       -6.085289    4.882885    1.070010
     19          6           0       -7.421794    4.994925    0.513150
     20          6           0       -8.041959    3.703129    0.254999
     21          6           0       -5.103136    5.923261    1.596049
     22          6           0       -8.061811    6.278686    0.354831
     23          6           0       -9.051026    6.627710   -0.470471
     24          7           0       -9.134251    0.983134   -0.502981
     25          6           0       -9.828252    2.061200   -0.549950
     26          6           0      -11.250350    2.004685   -0.954328
     27          6           0      -11.348626    0.631577   -1.171006
     28          6           0      -10.085288    0.022313   -0.900817
     29          6           0      -12.289694    3.059317   -1.181936
     30          6           0      -12.449125   -0.072180   -1.815535
     31          6           0      -12.470156   -0.229946   -3.394563
     32          7           0       -7.365024   -1.173833   -0.313195
     33          6           0       -8.513710   -1.947358   -0.653183
     34          6           0       -8.248892   -3.293472   -0.671901
     35          6           0       -6.844692   -3.318487   -0.274110
     36          6           0       -6.426104   -1.954466    0.032742
     37          6           0       -9.149819   -4.481383   -0.998970
     38          6           0       -5.774175   -4.321041    0.079626
     39          8           0       -5.683196   -5.516660   -0.125911
     40          6           0       -4.625316   -3.394902    0.613807
     41          6           0       -4.063333   -3.850866    1.963807
     42          8           0       -4.174543   -3.222300    3.011521
     43          8           0       -3.353289   -4.883114    1.812368
     44          6           0       -2.750658   -5.516136    2.857412
     45          6           0        2.651956   -1.138824   -1.221734
     46          6           0        3.976775   -0.812083   -0.586688
     47          6           0        4.900235   -0.109264   -1.143968
     48          6           0        4.786199    0.551723   -2.411152
     49          6           0        6.229749    0.183738   -0.446610
     50          6           0        7.454814   -0.549964   -1.126376
     51          6           0        8.709026   -0.440108   -0.234040
     52          6           0        9.991651   -0.760529   -1.003353
     53          6           0       10.028727   -2.368132   -1.371849
     54          6           0       11.195182   -0.243943   -0.166178
     55          6           0       12.686618   -0.567149   -0.823174
     56          6           0       13.794730   -0.018916    0.150103
     57          6           0       15.270985   -0.243792   -0.382548
     58          6           0       15.822351   -1.691989   -0.207356
     59          6           0       16.150508    0.801220    0.352805
     60          6           0       17.657114    0.765247   -0.106024
     61          6           0       18.472022    1.766636    0.801310
     62          6           0       20.017193    1.814378    0.309733
     63          6           0       20.184248    2.244130   -1.179650
     64          6           0       20.923636    2.743297    1.222304
     65          1           0       -3.776122    3.364183    1.761162
     66          1           0       -9.787764    4.328121   -0.319445
     67          1           0      -10.827986   -2.022342   -1.145260
     68          1           0       -3.009532   -1.186656    2.258528
     69          1           0       -2.138854    1.228366    1.405796
     70          1           0       -1.950073    0.527106    3.864592
     71          1           0       -2.680084    2.044634    3.791700
     72          1           0       -3.607104    0.534772    3.688075
     73          1           0       -2.396297   -2.018367   -0.394620
     74          1           0       -2.100650   -0.122259   -0.642674
     75          1           0       -0.136187   -0.257038    0.904580
     76          1           0       -0.544887   -1.964476    1.335357
     77          1           0       -4.244273    6.252895    0.912280
     78          1           0       -5.530521    6.932124    1.877766
     79          1           0       -4.592416    5.497630    2.504553
     80          1           0       -7.893718    6.936110    1.141121
     81          1           0       -9.171829    5.897245   -1.440589
     82          1           0       -9.370455    7.714530   -0.510906
     83          1           0      -12.581810    3.591724   -0.264852
     84          1           0      -11.893194    3.732811   -1.965639
     85          1           0      -13.161074    2.544260   -1.569603
     86          1           0      -12.752396   -1.127858   -1.370770
     87          1           0      -13.516873    0.235729   -1.423257
     88          1           0      -12.398732    0.904177   -3.862258
     89          1           0      -11.565865   -0.759536   -3.686428
     90          1           0      -13.386836   -0.797535   -3.682722
     91          1           0       -9.711574   -4.598250   -0.067056
     92          1           0       -9.971661   -4.448344   -1.756796
     93          1           0       -8.537191   -5.291338   -0.987827
     94          1           0       -3.755247   -3.726401    0.112022
     95          1           0       -2.030485   -6.151425    2.619959
     96          1           0       -2.025361   -4.889831    3.444916
     97          1           0       -3.341065   -5.855010    3.673651
     98          1           0        2.620835   -2.234044   -1.524793
     99          1           0        2.418494   -0.594822   -2.079104
    100          1           0        4.005853   -1.627188    0.239175
    101          1           0        4.958840    1.575570   -2.259583
    102          1           0        5.755519    0.491082   -3.134173
    103          1           0        3.789244    0.357910   -2.829996
    104          1           0        6.438934    1.126100   -0.194696
    105          1           0        6.214368   -0.081041    0.762549
    106          1           0        7.145181   -1.492290   -1.189915
    107          1           0        7.606736   -0.150925   -2.109175
    108          1           0        8.902311    0.590100    0.088933
    109          1           0        8.454517   -1.074620    0.563432
    110          1           0       10.027575   -0.192735   -1.865968
    111          1           0        8.965644   -2.350176   -1.768266
    112          1           0       10.666690   -2.792063   -2.165965
    113          1           0       10.215790   -2.883076   -0.427621
    114          1           0       11.161429    0.955754   -0.239899
    115          1           0       11.113234   -0.479854    0.742963
    116          1           0       12.725818   -1.729880   -0.995991
    117          1           0       12.830616   -0.172471   -1.820078
    118          1           0       13.644439    1.056210    0.166651
    119          1           0       13.663039   -0.339437    1.321227
    120          1           0       15.265895   -0.057748   -1.369903
    121          1           0       15.114252   -2.595889   -0.696983
    122          1           0       16.899487   -1.799231   -0.749141
    123          1           0       15.903347   -1.760155    0.862510
    124          1           0       15.682718    1.716861    0.232585
    125          1           0       16.125814    0.463702    1.475905
    126          1           0       18.126147   -0.253889   -0.011958
    127          1           0       17.674925    0.789183   -1.343165
    128          1           0       18.137813    2.820340    0.520621
    129          1           0       18.474373    1.600654    1.799472
    130          1           0       20.285463    0.818688    0.364897
    131          1           0       20.007678    3.152150   -1.245775
    132          1           0       21.174370    2.268093   -1.592802
    133          1           0       19.544506    1.644039   -1.855621
    134          1           0       20.920507    2.188866    2.092507
    135          1           0       22.050348    2.751612    0.833572
    136          1           0       20.353732    3.666053    1.298945
    137          1           0       -6.773801    1.756031    0.431007
    138          1           0       -7.214471   -0.206544   -0.373409
 ---------------------------------------------------------------------

 SCF Done:  E(RB3LYP) =  -2733.01662448     A.U. after   17 cycles

 Excitation energies and oscillator strengths:

 Excited State   1:      Singlet-A      2.0417 eV  607.27 nm  f=0.3460  <S**2>=0.000
     235 -> 237       -0.12570
     235 -> 238        0.18533
     236 -> 237        0.66741
     236 <- 237       -0.10210
 This state for optimization and/or second-order correction.
 Total Energy, E(TD-HF/TD-KS) =  -2732.94159517
 Copying the excited state density for this state as the 1-particle RhoCI density.

 The electronic state is 1-A.
 Alpha  occ. eigenvalues --  -19.19809 -19.18270 -19.12440 -19.11993 -19.11298
 Alpha  occ. eigenvalues --  -14.36822 -14.36518 -14.32703 -14.29613 -10.31844
 Alpha  occ. eigenvalues --  -10.31497 -10.27685 -10.24507 -10.24117 -10.24000
 Alpha  occ. eigenvalues --  -10.23759 -10.23220 -10.23061 -10.22301 -10.22244
 Alpha  occ. eigenvalues --  -10.21916 -10.21864 -10.21633 -10.21304 -10.21079
 Alpha  occ. eigenvalues --  -10.21005 -10.20827 -10.20702 -10.20672 -10.20441
 Alpha  occ. eigenvalues --  -10.20281 -10.20272 -10.20074 -10.20010 -10.19979
 Alpha  occ. eigenvalues --  -10.19925 -10.19896 -10.19755 -10.19636 -10.19621
 Alpha  occ. eigenvalues --  -10.19514 -10.19396 -10.19383 -10.19313 -10.19251
 Alpha  occ. eigenvalues --  -10.19225 -10.19151 -10.19107 -10.19074 -10.18947
 Alpha  occ. eigenvalues --  -10.18753 -10.18736 -10.18533 -10.18532 -10.18531
 Alpha  occ. eigenvalues --  -10.18354 -10.18126 -10.18017 -10.18017 -10.17996
 Alpha  occ. eigenvalues --  -10.17940 -10.17922 -10.17800 -10.15125  -1.14259
 Alpha  occ. eigenvalues --   -1.07480  -1.02121  -1.00291  -1.00134  -0.98442
 Alpha  occ. eigenvalues --   -0.97446  -0.94566  -0.94244  -0.84591  -0.83948
 Alpha  occ. eigenvalues --   -0.81979  -0.81219  -0.81057  -0.80939  -0.80500
 Alpha  occ. eigenvalues --   -0.80376  -0.79507  -0.78863  -0.78776  -0.78720
 Alpha  occ. eigenvalues --   -0.77231  -0.76318  -0.75692  -0.74537  -0.73927
 Alpha  occ. eigenvalues --   -0.73805  -0.72943  -0.71998  -0.71091  -0.70895
 Alpha  occ. eigenvalues --   -0.70545  -0.69690  -0.69167  -0.68254  -0.68110
 Alpha  occ. eigenvalues --   -0.67705  -0.66769  -0.66230  -0.66015  -0.65460
 Alpha  occ. eigenvalues --   -0.64075  -0.62870  -0.62366  -0.61776  -0.61523
 Alpha  occ. eigenvalues --   -0.60886  -0.59973  -0.59832  -0.58638  -0.58081
 Alpha  occ. eigenvalues --   -0.57055  -0.56907  -0.56758  -0.56508  -0.56208
 Alpha  occ. eigenvalues --   -0.55909  -0.55270  -0.55179  -0.53407  -0.53218
 Alpha  occ. eigenvalues --   -0.52508  -0.52081  -0.51903  -0.50908  -0.50502
 Alpha  occ. eigenvalues --   -0.50363  -0.50277  -0.49081  -0.48705  -0.48275
 Alpha  occ. eigenvalues --   -0.47951  -0.47833  -0.47462  -0.47219  -0.46782
 Alpha  occ. eigenvalues --   -0.46235  -0.46026  -0.45927  -0.45801  -0.45511
 Alpha  occ. eigenvalues --   -0.45324  -0.45041  -0.44765  -0.44408  -0.44293
 Alpha  occ. eigenvalues --   -0.44006  -0.43951  -0.43589  -0.43449  -0.43049
 Alpha  occ. eigenvalues --   -0.42940  -0.42694  -0.42613  -0.42297  -0.42225
 Alpha  occ. eigenvalues --   -0.41908  -0.41653  -0.41481  -0.41411  -0.41106
 Alpha  occ. eigenvalues --   -0.40802  -0.40741  -0.40571  -0.40450  -0.40211
 Alpha  occ. eigenvalues --   -0.40088  -0.39999  -0.39870  -0.39766  -0.39663
 Alpha  occ. eigenvalues --   -0.39569  -0.39216  -0.39088  -0.39043  -0.38820
 Alpha  occ. eigenvalues --   -0.38486  -0.38210  -0.38061  -0.37805  -0.37754
 Alpha  occ. eigenvalues --   -0.37408  -0.37348  -0.37139  -0.37037  -0.36938
 Alpha  occ. eigenvalues --   -0.36819  -0.36555  -0.36373  -0.36236  -0.35712
 Alpha  occ. eigenvalues --   -0.35648  -0.35504  -0.35295  -0.34889  -0.34817
 Alpha  occ. eigenvalues --   -0.34740  -0.34247  -0.34024  -0.33806  -0.33674
 Alpha  occ. eigenvalues --   -0.33649  -0.33575  -0.33297  -0.32495  -0.32220
 Alpha  occ. eigenvalues --   -0.31983  -0.31871  -0.31850  -0.31417  -0.31223
 Alpha  occ. eigenvalues --   -0.30701  -0.30679  -0.30580  -0.30508  -0.30459
 Alpha  occ. eigenvalues --   -0.30078  -0.29567  -0.28389  -0.27882  -0.27662
 Alpha  occ. eigenvalues --   -0.27398  -0.27238  -0.26918  -0.26348  -0.25670
 Alpha  occ. eigenvalues --   -0.25294  -0.24467  -0.23367  -0.22805  -0.20627
 Alpha  occ. eigenvalues --   -0.18318
 Alpha virt. eigenvalues --   -0.10642  -0.07373  -0.03469  -0.01449  -0.01310
 Alpha virt. eigenvalues --   -0.00241   0.00423   0.01013   0.02504   0.03824
 Alpha virt. eigenvalues --    0.03936   0.04456   0.04672   0.05019   0.05216

 Mulliken charges:
               1
     1  C   -0.033208
     2  C   -0.033847
     3  C   -0.067077
     4  C   -0.134664
     5  N   -0.215373
     6  C   -0.081979
     7  C   -0.001439
     8  C    0.097781
     9  C    0.020051
    10  C    0.025566
    11  C   -0.010908
    12  C    0.043926
    13  C    0.193585
    14  O   -0.275646
    15  O   -0.343268
    16  N   -0.130862
    17  C    0.031217
    18  C   -0.091427
    19  C    0.019456
    20  C    0.058786
    21  C    0.045583
    22  C   -0.051465
    23  C   -0.081186
    24  N   -0.163643
    25  C    0.046879
    26  C   -0.170463
    27  C   -0.022921
    28  C    0.020652
    29  C    0.152586
    30  C   -0.078892
    31  C    0.009028
    32  N    0.073695
    33  C    0.142478
    34  C   -0.150911
    35  C   -0.129870
    36  C    0.090636
    37  C    0.200963
    38  C    0.103577
    39  O   -0.170467
    40  C   -0.027223
    41  C    0.139920
    42  O   -0.250845
    43  O   -0.193843
    44  C    0.259285
    45  C    0.245607
    46  C   -0.110018
    47  C   -0.061850
    48  C    0.118803
    49  C    0.037250
    50  C    0.070869
    51  C    0.046111
    52  C   -0.036700
    53  C    0.000525
    54  C    0.056749
    55  C    0.006561
    56  C    0.003044
    57  C   -0.012709
    58  C   -0.038988
    59  C    0.042112
    60  C   -0.059077
    61  C    0.072619
    62  C   -0.120672
    63  C    0.134486
    64  C    0.051406
    65  H   -0.023264
    66  H   -0.013643
    67  H    0.037503
    68  H    0.010888
    69  H   -0.051948
    70  H    0.007508
    71  H    0.021576
    72  H   -0.010332
    73  H    0.056648
    74  H    0.025105
    75  H    0.015056
    76  H    0.049205
    77  H    0.038052
    78  H    0.021237
    79  H    0.035340
    80  H   -0.010459
    81  H    0.052246
    82  H    0.038832
    83  H    0.029041
    84  H    0.026420
    85  H    0.004191
    86  H   -0.004091
    87  H    0.003265
    88  H    0.031247
    89  H    0.018936
    90  H    0.027141
    91  H    0.014087
    92  H    0.035971
    93  H    0.001808
    94  H    0.024066
    95  H   -0.016183
    96  H   -0.008740
    97  H    0.018597
    98  H    0.035165
    99  H   -0.008763
   100  H    0.018738
   101  H   -0.010187
   102  H    0.032493
   103  H    0.014619
   104  H   -0.036333
   105  H   -0.011896
   106  H   -0.017640
   107  H   -0.010818
   108  H   -0.009688
   109  H   -0.012611
   110  H   -0.034531
   111  H    0.008533
   112  H    0.022553
   113  H    0.017858
   114  H    0.001174
   115  H   -0.061439
   116  H    0.009647
   117  H   -0.006449
   118  H   -0.014767
   119  H    0.010195
   120  H   -0.051277
   121  H    0.033281
   122  H    0.034428
   123  H    0.006523
   124  H   -0.017691
   125  H    0.002641
   126  H    0.005406
   127  H    0.023407
   128  H    0.002997
   129  H   -0.020392
   130  H   -0.031416
   131  H   -0.077182
   132  H   -0.019968
   133  H    0.001228
   134  H   -0.012672
   135  H    0.029936
   136  H    0.016557
   137  H    0.206785
   138  H    0.115902
 Sum of Mulliken charges =   0.00000

 Dipole moment (field-independent basis, Debye):
    X=              2.7620    Y=              3.8756    Z=              0.6251  Tot=              4.8000
 Quadrupole moment (field-independent basis, Debye-Ang):
   XX=           -360.1613   YY=           -380.5280   ZZ=           -394.8654
   XY=            -12.3964   XZ=              6.9309   YZ=             -6.9222

 Normal termination of Gaussian 09 at Sat Aug  3 08:10:39 2019.
