 Gaussian 09, Revision D.01,
 Gaussian 09:  ES64L-G09RevD.01 24-Apr-2013

 --------------------------
 # td=(NStates=1) B3LYP/SVP
 --------------------------

 --
 TD
 --
 Symbolic Z-matrix:
 Charge =  0 Multiplicity = 1

                         Standard orientation:
 ---------------------------------------------------------------------
 Center     Atomic      Atomic             Coordinates (Angstroms)
 Number     Number       Type             X           Y           Z
 ---------------------------------------------------------------------
      1          6           0       -5.183051   -1.969249    0.351299
      2          6           0       -4.794785    2.741669    1.344834
      3          6           0       -9.408374    3.171713   -0.223853
      4          6           0       -9.821120   -1.565155   -0.882343
      5          7           0       -5.177151    0.380757    0.794323
      6          6           0       -4.531483   -0.719078    0.716793
      7          6           0       -3.047572   -0.535674    1.112080
      8          6           0       -3.088285    0.964179    1.847241
      9          6           0       -4.470427    1.314451    1.289201
     10          6           0       -3.018605    0.863343    3.311043
     11          6           0       -1.978359   -0.678654   -0.006084
     12          6           0       -0.532771   -0.622460    0.491350
     13          6           0        0.456216   -0.837262   -0.691780
     14          8           0        0.186454   -1.017399   -1.782152
     15          8           0        1.714298   -0.593062   -0.220244
     16          7           0       -7.163649    2.717157    0.471736
     17          6           0       -5.983906    3.340983    1.012849
     18          6           0       -6.283717    4.787831    1.023164
     19          6           0       -7.561199    4.944294    0.514084
     20          6           0       -8.143250    3.643009    0.210874
     21          6           0       -5.379518    5.753647    1.665575
     22          6           0       -8.194977    6.224168    0.358068
     23          6           0       -9.211707    6.576848   -0.501602
     24          7           0       -9.286855    0.878892   -0.370466
     25          6           0       -9.964502    2.020079   -0.434236
     26          6           0      -11.339581    1.738844   -0.961367
     27          6           0      -11.438217    0.396960   -1.135717
     28          6           0      -10.170848   -0.147453   -0.766591
     29          6           0      -12.343495    2.885378   -1.231423
     30          6           0      -12.714819   -0.241033   -1.513750
     31          6           0      -12.670941   -0.506661   -3.175361
     32          7           0       -7.531605   -1.362275   -0.282838
     33          6           0       -8.531231   -2.169250   -0.692545
     34          6           0       -8.227591   -3.598633   -0.558358
     35          6           0       -6.795380   -3.510469   -0.273802
     36          6           0       -6.433153   -2.179477   -0.059089
     37          6           0       -9.106973   -4.679617   -0.790971
     38          6           0       -5.694262   -4.403073    0.034409
     39          8           0       -5.643353   -5.656997    0.074882
     40          6           0       -4.533782   -3.374732    0.343872
     41          6           0       -3.838714   -3.826643    1.680977
     42          8           0       -4.042659   -3.323687    2.778093
     43          8           0       -2.882113   -4.763112    1.442842
     44          6           0       -2.434106   -5.368654    2.638870
     45          6           0        2.773054   -0.744420   -1.157134
     46          6           0        4.045995   -0.491353   -0.437789
     47          6           0        4.969393    0.279454   -0.854043
     48          6           0        4.760148    1.155964   -2.090378
     49          6           0        6.356177    0.457201   -0.211365
     50          6           0        7.622565   -0.032874   -0.980446
     51          6           0        8.820331   -0.053182   -0.099754
     52          6           0       10.043612   -0.643647   -0.840721
     53          6           0       10.006171   -2.186281   -1.060731
     54          6           0       11.299309   -0.260825   -0.064622
     55          6           0       12.675704   -0.501442   -0.635590
     56          6           0       13.872360   -0.088832    0.092000
     57          6           0       15.280322   -0.339511   -0.563918
     58          6           0       15.569188   -1.801298   -0.764098
     59          6           0       16.348272    0.274608    0.467820
     60          6           0       17.686719    0.381691   -0.048752
     61          6           0       18.671554    1.321794    0.748460
     62          6           0       20.072065    1.512530    0.139029
     63          6           0       20.145591    2.457925   -1.136701
     64          6           0       21.102429    2.171232    1.192730
     65          1           0       -3.959633    3.351396    1.718049
     66          1           0      -10.012272    4.067075   -0.472786
     67          1           0      -10.527764   -2.197655   -1.418498
     68          1           0       -2.873608   -1.131226    1.821268
     69          1           0       -2.313003    1.543880    1.443592
     70          1           0       -1.988299    0.616740    3.622345
     71          1           0       -3.295433    1.852082    3.804353
     72          1           0       -3.596511   -0.062115    3.620925
     73          1           0       -2.109703   -1.542404   -0.656403
     74          1           0       -2.198502    0.172597   -0.828992
     75          1           0       -0.364909    0.273283    1.047941
     76          1           0       -0.333350   -1.647573    1.084739
     77          1           0       -4.463103    5.655840    0.995269
     78          1           0       -5.624786    6.857879    1.715666
     79          1           0       -4.829598    5.084143    2.694747
     80          1           0       -8.041761    6.984647    1.115751
     81          1           0       -9.515982    5.875371   -1.230527
     82          1           0       -9.490213    7.663522   -0.495692
     83          1           0      -12.615217    3.409998   -0.306633
     84          1           0      -12.050969    3.716578   -1.965535
     85          1           0      -13.442767    2.584307   -1.771336
     86          1           0      -12.784764   -1.177096   -1.050717
     87          1           0      -13.536484    0.254424   -1.463907
     88          1           0      -12.560162    0.529347   -3.466946
     89          1           0      -11.747506   -1.186882   -3.190228
     90          1           0      -13.612391   -1.226063   -3.526324
     91          1           0      -10.053676   -4.702066    0.034238
     92          1           0       -9.545485   -4.749771   -1.791624
     93          1           0       -8.556630   -5.640031   -0.668033
     94          1           0       -3.800000   -3.488270   -0.471334
     95          1           0       -2.051439   -6.374798    2.189464
     96          1           0       -1.831617   -4.723551    3.231349
     97          1           0       -3.266353   -5.633938    3.252882
     98          1           0        2.518243   -1.689505   -1.626608
     99          1           0        2.505929   -0.038522   -2.003266
    100          1           0        4.376594   -0.908625    0.633469
    101          1           0        5.227769    2.091594   -1.984519
    102          1           0        5.265231    1.060763   -3.096596
    103          1           0        3.521879    1.461595   -2.326764
    104          1           0        6.429911    1.601225   -0.258696
    105          1           0        6.482870    0.031940    0.828368
    106          1           0        7.418630   -1.053615   -1.569336
    107          1           0        7.682063    0.622064   -1.787026
    108          1           0        9.069104    0.893578    0.211175
    109          1           0        8.571217   -0.627504    0.713043
    110          1           0       10.142299   -0.421371   -1.842005
    111          1           0        8.910135   -2.585614   -1.588307
    112          1           0       10.993847   -2.533883   -1.675154
    113          1           0        9.974798   -2.827687    0.039911
    114          1           0       11.191461    0.858005    0.300985
    115          1           0       11.232308   -0.745392    0.738650
    116          1           0       12.843667   -1.628993   -0.991908
    117          1           0       12.606816    0.035094   -1.732191
    118          1           0       13.641590    0.897225    0.429959
    119          1           0       13.878015   -0.696947    1.175948
    120          1           0       15.373898    0.276838   -1.506968
    121          1           0       14.685885   -2.173224   -1.401941
    122          1           0       16.583056   -2.097193   -1.286737
    123          1           0       15.521891   -2.349584    0.280086
    124          1           0       16.014283    1.347240    0.755384
    125          1           0       16.317481   -0.082451    1.576442
    126          1           0       18.049932   -0.661739   -0.115717
    127          1           0       17.702290    0.852821   -1.124263
    128          1           0       17.984897    2.377788    0.987725
    129          1           0       18.781619    1.098922    1.665933
    130          1           0       20.803675    0.623276   -0.185993
    131          1           0       19.373292    3.427756   -1.037508
    132          1           0       21.204221    2.939487   -1.399648
    133          1           0       19.866367    1.858477   -2.193516
    134          1           0       21.308300    1.612150    2.133893
    135          1           0       22.120150    2.316593    0.684117
    136          1           0       20.692211    3.243372    1.456488
    137          1           0       -7.043554    1.733444    0.514619
    138          1           0       -7.615444   -0.434121   -0.095485
 ---------------------------------------------------------------------

 SCF Done:  E(RB3LYP) =  -2732.98338191     A.U. after   16 cycles

 Excitation energies and oscillator strengths:

 Excited State   1:      Singlet-A      1.9880 eV  623.66 nm  f=0.1556  <S**2>=0.000
     235 -> 238       -0.33642
     236 -> 237        0.61589
 This state for optimization and/or second-order correction.
 Total Energy, E(TD-HF/TD-KS) =  -2732.91032430
 Copying the excited state density for this state as the 1-particle RhoCI density.

 The electronic state is 1-A.
 Alpha  occ. eigenvalues --  -19.18134 -19.16245 -19.13535 -19.13049 -19.12327
 Alpha  occ. eigenvalues --  -14.36617 -14.36580 -14.32649 -14.29465 -10.32194
 Alpha  occ. eigenvalues --  -10.31076 -10.28042 -10.24643 -10.24494 -10.24042
 Alpha  occ. eigenvalues --  -10.23751 -10.23721 -10.23646 -10.23170 -10.22963
 Alpha  occ. eigenvalues --  -10.22838 -10.22275 -10.22114 -10.22033 -10.21903
 Alpha  occ. eigenvalues --  -10.21352 -10.21186 -10.21121 -10.21087 -10.20948
 Alpha  occ. eigenvalues --  -10.20792 -10.20743 -10.20624 -10.20523 -10.20437
 Alpha  occ. eigenvalues --  -10.20334 -10.20324 -10.20299 -10.20261 -10.20195
 Alpha  occ. eigenvalues --  -10.20131 -10.20066 -10.19949 -10.19895 -10.19855
 Alpha  occ. eigenvalues --  -10.19642 -10.19626 -10.19537 -10.19406 -10.19269
 Alpha  occ. eigenvalues --  -10.19242 -10.19115 -10.19054 -10.18983 -10.18962
 Alpha  occ. eigenvalues --  -10.18907 -10.18898 -10.18824 -10.18625 -10.18589
 Alpha  occ. eigenvalues --  -10.18121 -10.17584 -10.17459 -10.17389  -1.11455
 Alpha  occ. eigenvalues --   -1.09700  -1.03095  -1.00658  -1.00434  -0.99149
 Alpha  occ. eigenvalues --   -0.98401  -0.96813  -0.93215  -0.86004  -0.83450
 Alpha  occ. eigenvalues --   -0.82415  -0.82220  -0.81525  -0.81323  -0.81022
 Alpha  occ. eigenvalues --   -0.80754  -0.79690  -0.79210  -0.78462  -0.77662
 Alpha  occ. eigenvalues --   -0.77199  -0.76099  -0.75521  -0.75048  -0.74048
 Alpha  occ. eigenvalues --   -0.73292  -0.73076  -0.72719  -0.71905  -0.71111
 Alpha  occ. eigenvalues --   -0.70262  -0.69482  -0.68767  -0.67924  -0.67055
 Alpha  occ. eigenvalues --   -0.66655  -0.66627  -0.66342  -0.66011  -0.64790
 Alpha  occ. eigenvalues --   -0.64678  -0.62867  -0.62445  -0.61756  -0.61265
 Alpha  occ. eigenvalues --   -0.61105  -0.59737  -0.58975  -0.58225  -0.57707
 Alpha  occ. eigenvalues --   -0.56948  -0.56717  -0.56105  -0.56019  -0.55914
 Alpha  occ. eigenvalues --   -0.55133  -0.54997  -0.54361  -0.54125  -0.53161
 Alpha  occ. eigenvalues --   -0.52750  -0.51934  -0.51773  -0.51390  -0.50833
 Alpha  occ. eigenvalues --   -0.50534  -0.49925  -0.49618  -0.49004  -0.48612
 Alpha  occ. eigenvalues --   -0.48305  -0.48045  -0.47995  -0.47710  -0.47317
 Alpha  occ. eigenvalues --   -0.47180  -0.46789  -0.46507  -0.46441  -0.46196
 Alpha  occ. eigenvalues --   -0.45855  -0.45704  -0.45458  -0.45322  -0.44697
 Alpha  occ. eigenvalues --   -0.44573  -0.44025  -0.43826  -0.43745  -0.43560
 Alpha  occ. eigenvalues --   -0.43441  -0.43234  -0.43109  -0.42854  -0.42590
 Alpha  occ. eigenvalues --   -0.42059  -0.41786  -0.41675  -0.41551  -0.41450
 Alpha  occ. eigenvalues --   -0.41287  -0.40980  -0.40650  -0.40215  -0.40050
 Alpha  occ. eigenvalues --   -0.39982  -0.39704  -0.39615  -0.39413  -0.39233
 Alpha  occ. eigenvalues --   -0.38928  -0.38695  -0.38676  -0.38438  -0.38167
 Alpha  occ. eigenvalues --   -0.38016  -0.37902  -0.37845  -0.37505  -0.37417
 Alpha  occ. eigenvalues --   -0.37362  -0.37016  -0.36965  -0.36698  -0.36569
 Alpha  occ. eigenvalues --   -0.36469  -0.36413  -0.36243  -0.36116  -0.36018
 Alpha  occ. eigenvalues --   -0.35857  -0.35703  -0.35573  -0.35341  -0.34912
 Alpha  occ. eigenvalues --   -0.34895  -0.34414  -0.34241  -0.34033  -0.33837
 Alpha  occ. eigenvalues --   -0.33800  -0.33329  -0.33155  -0.32977  -0.32593
 Alpha  occ. eigenvalues --   -0.31983  -0.31917  -0.31891  -0.31444  -0.31172
 Alpha  occ. eigenvalues --   -0.31116  -0.30611  -0.30586  -0.30473  -0.30104
 Alpha  occ. eigenvalues --   -0.29596  -0.29420  -0.29048  -0.28683  -0.28531
 Alpha  occ. eigenvalues --   -0.27979  -0.27700  -0.26724  -0.26180  -0.25876
 Alpha  occ. eigenvalues --   -0.25771  -0.25044  -0.23514  -0.22517  -0.19807
 Alpha  occ. eigenvalues --   -0.18849
 Alpha virt. eigenvalues --   -0.10438  -0.08202  -0.05434  -0.02021  -0.00766
 Alpha virt. eigenvalues --   -0.00034   0.00610   0.01787   0.02231   0.02717
 Alpha virt. eigenvalues --    0.03496   0.03810   0.03964   0.04279   0.04312

 Mulliken charges:
               1
     1  C    0.024704
     2  C   -0.066966
     3  C   -0.044306
     4  C   -0.082819
     5  N   -0.023390
     6  C   -0.134914
     7  C    0.122022
     8  C   -0.088409
     9  C   -0.074645
    10  C    0.075083
    11  C    0.025111
    12  C    0.016325
    13  C    0.136464
    14  O   -0.151433
    15  O   -0.336484
    16  N   -0.088505
    17  C    0.100991
    18  C   -0.094308
    19  C    0.104931
    20  C    0.073849
    21  C    0.014094
    22  C   -0.121663
    23  C   -0.020484
    24  N   -0.242567
    25  C    0.067615
    26  C   -0.070037
    27  C   -0.112964
    28  C    0.066470
    29  C    0.004194
    30  C    0.183560
    31  C   -0.084791
    32  N    0.023382
    33  C    0.049559
    34  C   -0.085005
    35  C   -0.004869
    36  C    0.102043
    37  C    0.019228
    38  C    0.068089
    39  O   -0.213152
    40  C   -0.061229
    41  C    0.205202
    42  O   -0.240548
    43  O   -0.296515
    44  C    0.199563
    45  C    0.267396
    46  C   -0.051849
    47  C   -0.088881
    48  C   -0.008997
    49  C    0.036665
    50  C    0.001104
    51  C    0.172544
    52  C   -0.021587
    53  C   -0.145247
    54  C    0.130542
    55  C   -0.024231
    56  C    0.014641
    57  C   -0.032630
    58  C   -0.020199
    59  C   -0.028506
    60  C    0.049628
    61  C    0.111552
    62  C   -0.103913
    63  C   -0.099038
    64  C   -0.045064
    65  H   -0.022088
    66  H   -0.046193
    67  H   -0.013331
    68  H   -0.105229
    69  H   -0.019895
    70  H    0.008452
    71  H    0.021304
    72  H    0.043782
    73  H    0.007510
    74  H    0.014276
    75  H    0.030304
    76  H    0.047950
    77  H    0.038004
    78  H    0.045172
    79  H    0.056123
    80  H    0.004700
    81  H    0.017632
    82  H    0.035074
    83  H    0.029405
    84  H    0.034788
    85  H    0.026655
    86  H   -0.016404
    87  H   -0.056784
    88  H    0.035915
    89  H    0.027790
    90  H    0.039890
    91  H    0.055418
    92  H    0.040175
    93  H    0.042123
    94  H    0.060699
    95  H    0.049400
    96  H    0.021914
    97  H    0.015266
    98  H    0.006940
    99  H    0.010985
   100  H    0.010297
   101  H   -0.021221
   102  H    0.027569
   103  H    0.042982
   104  H    0.011686
   105  H    0.004033
   106  H    0.011302
   107  H   -0.032475
   108  H   -0.033503
   109  H   -0.030079
   110  H   -0.032344
   111  H    0.040570
   112  H    0.053547
   113  H    0.017880
   114  H   -0.005338
   115  H   -0.085462
   116  H    0.006830
   117  H   -0.009257
   118  H   -0.017847
   119  H   -0.002475
   120  H    0.007255
   121  H    0.023370
   122  H    0.040497
   123  H    0.024086
   124  H   -0.023739
   125  H   -0.002727
   126  H   -0.000678
   127  H    0.009036
   128  H    0.002769
   129  H   -0.070933
   130  H    0.029363
   131  H    0.029943
   132  H    0.031243
   133  H    0.031971
   134  H    0.021537
   135  H    0.017541
   136  H    0.017367
   137  H    0.127221
   138  H    0.084056
 Sum of Mulliken charges =   0.00000

 Dipole moment (field-independent basis, Debye):
    X=              3.2333    Y=              4.1633    Z=              0.7752  Tot=              5.3281
 Quadrupole moment (field-independent basis, Debye-Ang):
   XX=           -363.5623   YY=           -385.7605   ZZ=           -398.9441
   XY=            -21.5552   XZ=             10.0757   YZ=              0.8175

 Normal termination of Gaussian 09 at Thu Aug  1 00:15:09 2019.
