 Gaussian 09, Revision D.01,
 Gaussian 09:  ES64L-G09RevD.01 24-Apr-2013

 --------------------------
 # td=(NStates=1) B3LYP/SVP
 --------------------------

 --
 TD
 --
 Symbolic Z-matrix:
 Charge =  0 Multiplicity = 1

                         Standard orientation:
 ---------------------------------------------------------------------
 Center     Atomic      Atomic             Coordinates (Angstroms)
 Number     Number       Type             X           Y           Z
 ---------------------------------------------------------------------
      1          6           0       -5.160483   -1.947760    0.465058
      2          6           0       -4.674332    2.702013    1.361862
      3          6           0       -9.257416    3.430737   -0.156506
      4          6           0       -9.928799   -1.348435   -0.908993
      5          7           0       -5.208174    0.428424    0.696445
      6          6           0       -4.527927   -0.712923    0.722373
      7          6           0       -3.129785   -0.662394    1.170085
      8          6           0       -3.046691    0.806487    1.756131
      9          6           0       -4.380838    1.348540    1.257043
     10          6           0       -3.039727    0.845907    3.310434
     11          6           0       -2.085024   -1.008937    0.026769
     12          6           0       -0.629222   -0.904276    0.538908
     13          6           0        0.379269   -1.235705   -0.495400
     14          8           0        0.195658   -1.923428   -1.539587
     15          8           0        1.577751   -0.771501   -0.239983
     16          7           0       -6.994412    2.748059    0.412727
     17          6           0       -5.828206    3.360910    0.934130
     18          6           0       -6.127326    4.745512    1.075468
     19          6           0       -7.445541    4.954096    0.593869
     20          6           0       -7.995691    3.598033    0.196762
     21          6           0       -5.192454    5.814413    1.598724
     22          6           0       -8.012192    6.279287    0.335933
     23          6           0       -8.863137    6.623530   -0.696844
     24          7           0       -9.197174    0.928990   -0.412562
     25          6           0       -9.794774    2.107315   -0.529940
     26          6           0      -11.223755    2.095742   -0.918321
     27          6           0      -11.491122    0.740608   -1.044325
     28          6           0      -10.112587    0.012851   -0.813509
     29          6           0      -12.289812    3.243415   -1.049996
     30          6           0      -12.760993    0.047490   -1.534548
     31          6           0      -12.809003   -0.251823   -3.067963
     32          7           0       -7.535366   -1.206037   -0.339735
     33          6           0       -8.649753   -1.995769   -0.727780
     34          6           0       -8.361226   -3.299379   -0.653852
     35          6           0       -7.023008   -3.399197   -0.216441
     36          6           0       -6.510144   -2.024241    0.034410
     37          6           0       -9.127685   -4.444515   -1.111143
     38          6           0       -5.908897   -4.285880   -0.048547
     39          8           0       -5.756070   -5.483027   -0.255795
     40          6           0       -4.531004   -3.414702    0.422247
     41          6           0       -4.072971   -3.974600    1.715655
     42          8           0       -4.456829   -3.474232    2.831060
     43          8           0       -3.081769   -4.908060    1.616610
     44          6           0       -2.562908   -5.430179    2.753518
     45          6           0        2.773680   -1.164054   -0.991323
     46          6           0        4.032082   -0.867665   -0.358620
     47          6           0        4.981181   -0.089875   -0.864273
     48          6           0        4.872837    0.642141   -2.208616
     49          6           0        6.317664    0.112024   -0.131593
     50          6           0        7.568759   -0.416268   -0.936962
     51          6           0        8.765163   -0.295379   -0.087449
     52          6           0       10.046173   -0.717707   -0.850889
     53          6           0       10.060468   -2.241764   -1.446309
     54          6           0       11.380209   -0.363464   -0.058636
     55          6           0       12.747929   -0.541158   -0.657868
     56          6           0       13.876558    0.055490    0.145883
     57          6           0       15.300225   -0.216831   -0.417407
     58          6           0       15.696480   -1.686886   -0.640424
     59          6           0       16.355175    0.578538    0.444329
     60          6           0       17.883687    0.707453   -0.168363
     61          6           0       18.603348    1.580740    0.722333
     62          6           0       20.160418    1.790322    0.104870
     63          6           0       20.084038    2.608217   -1.129136
     64          6           0       20.984910    2.437645    1.200308
     65          1           0       -3.930601    3.441075    1.703720
     66          1           0       -9.856415    4.300791   -0.118622
     67          1           0      -10.605758   -1.837083   -1.334642
     68          1           0       -3.218415   -1.356197    1.873923
     69          1           0       -1.943132    1.145814    1.469440
     70          1           0       -2.197970    0.392194    3.827825
     71          1           0       -2.845085    1.817470    3.829533
     72          1           0       -4.101736    0.292254    3.628824
     73          1           0       -2.476717   -2.066167   -0.512870
     74          1           0       -2.109192   -0.230543   -1.066840
     75          1           0       -0.445686    0.027537    1.135952
     76          1           0       -0.411216   -1.666000    1.405293
     77          1           0       -4.247296    5.841762    1.059614
     78          1           0       -5.684073    6.777446    1.602889
     79          1           0       -4.818296    5.275415    2.689947
     80          1           0       -7.803578    7.010769    0.960455
     81          1           0       -9.007582    5.921792   -1.673456
     82          1           0       -9.203192    7.653726   -0.726195
     83          1           0      -12.218433    3.864926   -0.255444
     84          1           0      -11.965836    3.824042   -2.035049
     85          1           0      -13.314363    2.771224   -1.372232
     86          1           0      -12.943480   -0.862402   -0.874526
     87          1           0      -13.635505    0.899907   -1.215082
     88          1           0      -12.894376    0.506531   -3.859246
     89          1           0      -11.885608   -0.919909   -3.263602
     90          1           0      -13.636275   -0.805555   -3.176805
     91          1           0      -10.275509   -4.304691   -0.753831
     92          1           0       -9.121672   -4.444816   -2.274256
     93          1           0       -8.573235   -5.383823   -0.560566
     94          1           0       -3.863046   -3.494785   -0.356497
     95          1           0       -1.720176   -5.848293    2.473292
     96          1           0       -2.315734   -4.468855    3.507272
     97          1           0       -3.399901   -6.061677    3.303566
     98          1           0        2.264116   -2.077403   -1.264048
     99          1           0        2.578788   -0.395336   -1.868333
    100          1           0        4.235234   -1.549994    0.604956
    101          1           0        5.411475    1.832417   -1.976611
    102          1           0        5.604612    0.315214   -2.882766
    103          1           0        3.978751    0.500055   -2.772634
    104          1           0        6.321739    1.204190   -0.274118
    105          1           0        6.471011   -0.446687    0.725848
    106          1           0        7.184794   -1.524839   -1.245130
    107          1           0        7.867032    0.062764   -1.934145
    108          1           0        8.940477    0.623323    0.219632
    109          1           0        8.668175   -0.907734    0.754406
    110          1           0       10.014440    0.011244   -1.754224
    111          1           0        9.090728   -2.212409   -2.064175
    112          1           0       11.076291   -2.410696   -2.044120
    113          1           0       10.049323   -2.962441   -0.539984
    114          1           0       11.257308    0.828347    0.276277
    115          1           0       11.232595   -0.941453    0.935255
    116          1           0       12.776568   -1.612283   -0.875119
    117          1           0       12.683427    0.027544   -1.733947
    118          1           0       13.753879    1.232473    0.125851
    119          1           0       13.735531   -0.457908    1.099444
    120          1           0       15.387456    0.399726   -1.370948
    121          1           0       15.155291   -2.199948   -1.391254
    122          1           0       16.878241   -1.713486   -0.857844
    123          1           0       15.752548   -2.227252    0.344592
    124          1           0       15.855749    1.475302    0.543660
    125          1           0       16.386695    0.189526    1.498996
    126          1           0       18.375016   -0.409072   -0.158880
    127          1           0       17.704776    1.016778   -1.150423
    128          1           0       17.990319    2.499506    0.551260
    129          1           0       18.675922    1.208985    1.838856
    130          1           0       20.627871    0.659823    0.005502
    131          1           0       19.462614    3.382100   -1.140725
    132          1           0       21.225345    3.059040   -1.468670
    133          1           0       19.845901    1.957013   -2.009170
    134          1           0       20.663671    2.190784    2.300643
    135          1           0       22.129851    2.600992    0.852759
    136          1           0       20.575585    3.540941    1.471219
    137          1           0       -6.964671    1.695257    0.186451
    138          1           0       -7.434355   -0.258502   -0.187431
 ---------------------------------------------------------------------

 SCF Done:  E(RB3LYP) =  -2732.94961296     A.U. after   17 cycles

 Excitation energies and oscillator strengths:

 Excited State   1:      Singlet-A      2.0890 eV  593.51 nm  f=0.2312  <S**2>=0.000
     235 -> 237       -0.18694
     235 -> 238       -0.25508
     236 -> 237        0.62107
     236 -> 238       -0.11308
 This state for optimization and/or second-order correction.
 Total Energy, E(TD-HF/TD-KS) =  -2732.87284321
 Copying the excited state density for this state as the 1-particle RhoCI density.

 The electronic state is 1-A.
 Alpha  occ. eigenvalues --  -19.18003 -19.16437 -19.11587 -19.11314 -19.10858
 Alpha  occ. eigenvalues --  -14.37194 -14.36491 -14.33120 -14.30403 -10.31649
 Alpha  occ. eigenvalues --  -10.31184 -10.27461 -10.24661 -10.24324 -10.24215
 Alpha  occ. eigenvalues --  -10.23773 -10.23466 -10.23439 -10.23394 -10.22789
 Alpha  occ. eigenvalues --  -10.22568 -10.22352 -10.21964 -10.21866 -10.21850
 Alpha  occ. eigenvalues --  -10.21749 -10.21602 -10.21466 -10.21356 -10.21305
 Alpha  occ. eigenvalues --  -10.21175 -10.21126 -10.21015 -10.20969 -10.20734
 Alpha  occ. eigenvalues --  -10.20591 -10.20574 -10.20546 -10.20495 -10.20484
 Alpha  occ. eigenvalues --  -10.20384 -10.20242 -10.20092 -10.20050 -10.20044
 Alpha  occ. eigenvalues --  -10.19929 -10.19901 -10.19651 -10.19460 -10.19449
 Alpha  occ. eigenvalues --  -10.19339 -10.19284 -10.19173 -10.19122 -10.19082
 Alpha  occ. eigenvalues --  -10.19070 -10.19037 -10.18913 -10.18712 -10.18645
 Alpha  occ. eigenvalues --  -10.18569 -10.18550 -10.17887 -10.17277  -1.09409
 Alpha  occ. eigenvalues --   -1.09019  -1.01200  -0.98021  -0.97744  -0.97592
 Alpha  occ. eigenvalues --   -0.97177  -0.95934  -0.93812  -0.83754  -0.83044
 Alpha  occ. eigenvalues --   -0.81959  -0.81729  -0.81681  -0.81190  -0.81091
 Alpha  occ. eigenvalues --   -0.80690  -0.79855  -0.79036  -0.78555  -0.77875
 Alpha  occ. eigenvalues --   -0.76996  -0.76564  -0.75809  -0.75000  -0.74499
 Alpha  occ. eigenvalues --   -0.74041  -0.73700  -0.72850  -0.71737  -0.70212
 Alpha  occ. eigenvalues --   -0.70139  -0.68978  -0.68802  -0.68451  -0.67865
 Alpha  occ. eigenvalues --   -0.67251  -0.66945  -0.66731  -0.66189  -0.65502
 Alpha  occ. eigenvalues --   -0.64459  -0.62643  -0.62025  -0.61752  -0.61335
 Alpha  occ. eigenvalues --   -0.60518  -0.58920  -0.58387  -0.57927  -0.57601
 Alpha  occ. eigenvalues --   -0.56935  -0.55926  -0.55323  -0.55231  -0.55072
 Alpha  occ. eigenvalues --   -0.54662  -0.54302  -0.54051  -0.53884  -0.53178
 Alpha  occ. eigenvalues --   -0.52814  -0.52012  -0.51577  -0.51493  -0.50889
 Alpha  occ. eigenvalues --   -0.50570  -0.50165  -0.49235  -0.48893  -0.48644
 Alpha  occ. eigenvalues --   -0.48149  -0.47894  -0.47643  -0.47370  -0.47197
 Alpha  occ. eigenvalues --   -0.46879  -0.46624  -0.46357  -0.45582  -0.45411
 Alpha  occ. eigenvalues --   -0.45280  -0.44895  -0.44652  -0.44597  -0.44509
 Alpha  occ. eigenvalues --   -0.44290  -0.44168  -0.43794  -0.43689  -0.43401
 Alpha  occ. eigenvalues --   -0.43320  -0.42915  -0.42757  -0.42438  -0.42363
 Alpha  occ. eigenvalues --   -0.42079  -0.41977  -0.41785  -0.41587  -0.41472
 Alpha  occ. eigenvalues --   -0.41258  -0.41096  -0.40767  -0.40434  -0.40334
 Alpha  occ. eigenvalues --   -0.40211  -0.40157  -0.39941  -0.39757  -0.39665
 Alpha  occ. eigenvalues --   -0.39382  -0.39305  -0.39143  -0.38854  -0.38567
 Alpha  occ. eigenvalues --   -0.38379  -0.38280  -0.38209  -0.37892  -0.37817
 Alpha  occ. eigenvalues --   -0.37545  -0.37490  -0.37131  -0.36976  -0.36573
 Alpha  occ. eigenvalues --   -0.36450  -0.36089  -0.35998  -0.35723  -0.35428
 Alpha  occ. eigenvalues --   -0.35378  -0.35152  -0.34925  -0.34637  -0.34488
 Alpha  occ. eigenvalues --   -0.33985  -0.33774  -0.33512  -0.33430  -0.33343
 Alpha  occ. eigenvalues --   -0.33144  -0.32887  -0.32678  -0.32637  -0.32088
 Alpha  occ. eigenvalues --   -0.31979  -0.31792  -0.31674  -0.31397  -0.30810
 Alpha  occ. eigenvalues --   -0.30575  -0.30521  -0.30326  -0.30090  -0.29928
 Alpha  occ. eigenvalues --   -0.29039  -0.28914  -0.28438  -0.28308  -0.27544
 Alpha  occ. eigenvalues --   -0.27378  -0.26849  -0.26709  -0.26441  -0.25684
 Alpha  occ. eigenvalues --   -0.25440  -0.23779  -0.23739  -0.23087  -0.20309
 Alpha  occ. eigenvalues --   -0.18794
 Alpha virt. eigenvalues --   -0.10371  -0.07560  -0.04294  -0.02325  -0.01862
 Alpha virt. eigenvalues --   -0.01482   0.00036   0.00637   0.01984   0.03260
 Alpha virt. eigenvalues --    0.03477   0.03617   0.03902   0.04091   0.04615

 Mulliken charges:
               1
     1  C   -0.014703
     2  C   -0.064615
     3  C   -0.116245
     4  C    0.034645
     5  N   -0.162566
     6  C   -0.108351
     7  C    0.165754
     8  C   -0.100176
     9  C    0.067972
    10  C   -0.001172
    11  C   -0.084320
    12  C    0.052599
    13  C    0.179113
    14  O   -0.302962
    15  O   -0.316742
    16  N   -0.096473
    17  C    0.092028
    18  C   -0.123810
    19  C   -0.001971
    20  C    0.150530
    21  C    0.076127
    22  C   -0.012904
    23  C   -0.068909
    24  N   -0.194904
    25  C    0.066486
    26  C   -0.170540
    27  C   -0.088675
    28  C    0.056874
    29  C    0.109980
    30  C   -0.038121
    31  C    0.064273
    32  N   -0.022691
    33  C    0.113820
    34  C   -0.121562
    35  C    0.047352
    36  C    0.015063
    37  C   -0.014649
    38  C    0.006896
    39  O   -0.193273
    40  C   -0.004794
    41  C    0.264686
    42  O   -0.296373
    43  O   -0.265244
    44  C    0.168206
    45  C    0.233925
    46  C   -0.074428
    47  C   -0.134563
    48  C    0.076768
    49  C    0.169558
    50  C   -0.126936
    51  C    0.188382
    52  C   -0.133369
    53  C   -0.044145
    54  C   -0.055829
    55  C    0.026581
    56  C    0.038454
    57  C   -0.079375
    58  C    0.034914
    59  C    0.009190
    60  C    0.030471
    61  C   -0.007233
    62  C   -0.107273
    63  C    0.048788
    64  C   -0.017371
    65  H   -0.027542
    66  H   -0.037342
    67  H   -0.124539
    68  H   -0.048816
    69  H    0.028005
    70  H    0.002580
    71  H    0.013954
    72  H    0.058795
    73  H    0.071285
    74  H    0.041524
    75  H    0.026598
    76  H    0.045919
    77  H    0.032464
    78  H    0.023887
    79  H    0.048975
    80  H   -0.044309
    81  H    0.066277
    82  H    0.025284
    83  H    0.017664
    84  H    0.027705
    85  H    0.034913
    86  H    0.026319
    87  H    0.018992
    88  H    0.022326
    89  H    0.018910
    90  H   -0.015402
    91  H    0.039926
    92  H    0.062007
    93  H    0.080125
    94  H    0.024374
    95  H   -0.003139
    96  H    0.030016
    97  H    0.049798
    98  H    0.023189
    99  H    0.023573
   100  H    0.014838
   101  H    0.028514
   102  H    0.012074
   103  H    0.012233
   104  H    0.007871
   105  H   -0.015392
   106  H    0.030232
   107  H    0.009656
   108  H   -0.052336
   109  H   -0.028687
   110  H   -0.006020
   111  H    0.038356
   112  H    0.045263
   113  H    0.028132
   114  H   -0.004396
   115  H   -0.000857
   116  H    0.003360
   117  H   -0.001845
   118  H    0.019056
   119  H   -0.005824
   120  H   -0.014978
   121  H    0.018310
   122  H    0.009677
   123  H    0.003236
   124  H   -0.040844
   125  H   -0.014129
   126  H    0.016690
   127  H   -0.009472
   128  H    0.002006
   129  H    0.027529
   130  H    0.023035
   131  H   -0.015414
   132  H    0.013171
   133  H    0.017616
   134  H    0.013790
   135  H    0.039439
   136  H   -0.011342
   137  H    0.183180
   138  H    0.097811
 Sum of Mulliken charges =   0.00000

 Dipole moment (field-independent basis, Debye):
    X=              3.0560    Y=              6.7345    Z=              0.0294  Tot=              7.3955
 Quadrupole moment (field-independent basis, Debye-Ang):
   XX=           -358.8444   YY=           -390.5579   ZZ=           -397.2740
   XY=            -33.5008   XZ=             15.3080   YZ=             -3.6528

 Normal termination of Gaussian 09 at Sat Aug  3 04:47:03 2019.
