 Gaussian 09, Revision D.01,
 Gaussian 09:  ES64L-G09RevD.01 24-Apr-2013

 --------------------------
 # td=(NStates=1) B3LYP/SVP
 --------------------------

 --
 TD
 --
 Symbolic Z-matrix:
 Charge =  0 Multiplicity = 1

                         Standard orientation:
 ---------------------------------------------------------------------
 Center     Atomic      Atomic             Coordinates (Angstroms)
 Number     Number       Type             X           Y           Z
 ---------------------------------------------------------------------
      1          6           0       -5.101553   -1.970551    0.436832
      2          6           0       -4.716979    2.682845    1.427570
      3          6           0       -9.484082    3.272303   -0.039695
      4          6           0       -9.794220   -1.493151   -0.947187
      5          7           0       -5.140235    0.416806    0.878680
      6          6           0       -4.420237   -0.746323    0.737064
      7          6           0       -3.028980   -0.712098    1.176607
      8          6           0       -3.070433    0.788556    1.848350
      9          6           0       -4.338298    1.356775    1.289301
     10          6           0       -3.185028    0.680173    3.460964
     11          6           0       -1.982682   -0.691517   -0.018288
     12          6           0       -0.577278   -0.568952    0.424776
     13          6           0        0.353944   -0.633351   -0.741476
     14          8           0        0.103072   -0.808882   -1.939367
     15          8           0        1.664236   -0.516804   -0.312085
     16          7           0       -7.084686    2.670229    0.588859
     17          6           0       -5.956053    3.340073    1.069958
     18          6           0       -6.340396    4.785397    1.044885
     19          6           0       -7.640981    4.891333    0.596016
     20          6           0       -8.114480    3.506355    0.274036
     21          6           0       -5.364156    5.739511    1.534553
     22          6           0       -8.323526    6.191511    0.618493
     23          6           0       -9.288919    6.502833   -0.250937
     24          7           0       -9.264603    0.768982   -0.446166
     25          6           0       -9.982150    1.924438   -0.398634
     26          6           0      -11.405554    1.657320   -0.854541
     27          6           0      -11.444760    0.359366   -1.185710
     28          6           0      -10.099222   -0.218283   -0.976367
     29          6           0      -12.517474    2.674631   -0.976646
     30          6           0      -12.635775   -0.221888   -1.903908
     31          6           0      -12.574482   -0.201270   -3.484924
     32          7           0       -7.428273   -1.253538   -0.260902
     33          6           0       -8.517000   -2.104616   -0.711004
     34          6           0       -8.111303   -3.462034   -0.754597
     35          6           0       -6.795851   -3.476040   -0.339136
     36          6           0       -6.427787   -2.101820    0.022273
     37          6           0       -8.959374   -4.725615   -1.057578
     38          6           0       -5.636018   -4.387145   -0.049122
     39          8           0       -5.513590   -5.580791   -0.020560
     40          6           0       -4.409305   -3.338505    0.434121
     41          6           0       -3.944236   -3.837312    1.818780
     42          8           0       -4.153972   -3.402093    2.929393
     43          8           0       -3.203398   -4.911057    1.561310
     44          6           0       -2.684454   -5.675289    2.789865
     45          6           0        2.742493   -0.507648   -1.235890
     46          6           0        4.090658   -0.260956   -0.660101
     47          6           0        5.092321    0.522920   -1.108997
     48          6           0        5.104084    1.262662   -2.377794
     49          6           0        6.410356    0.441707   -0.388134
     50          6           0        7.591600   -0.222425   -1.049056
     51          6           0        8.837353    0.066276   -0.315487
     52          6           0       10.094281   -0.643999   -0.829015
     53          6           0        9.893794   -2.250757   -0.729276
     54          6           0       11.323416   -0.207549   -0.098388
     55          6           0       12.730104   -0.441745   -0.698253
     56          6           0       13.827700   -0.145131    0.205657
     57          6           0       15.228141   -0.366491   -0.400920
     58          6           0       15.512408   -1.852446   -0.484915
     59          6           0       16.287601    0.447022    0.412771
     60          6           0       17.704933    0.513061   -0.106577
     61          6           0       18.665583    1.343672    0.742061
     62          6           0       20.113686    1.499344    0.167721
     63          6           0       20.260485    2.231640   -1.140817
     64          6           0       20.999897    2.237041    1.178504
     65          1           0       -4.019222    3.530419    2.038832
     66          1           0      -10.331056    3.923890   -0.092197
     67          1           0      -10.701709   -1.975112   -1.350411
     68          1           0       -2.727374   -1.542549    1.921926
     69          1           0       -1.997755    1.379954    1.744973
     70          1           0       -2.186889    0.479854    3.955917
     71          1           0       -3.615831    1.548768    4.248228
     72          1           0       -3.951897   -0.363636    3.388589
     73          1           0       -2.034632   -1.557336   -0.686176
     74          1           0       -2.314460    0.203976   -0.634379
     75          1           0       -0.295770    0.429752    0.845953
     76          1           0       -0.285276   -1.469637    1.030880
     77          1           0       -4.716141    6.006308    0.443876
     78          1           0       -5.901983    6.817851    2.051081
     79          1           0       -4.614999    5.064792    2.422922
     80          1           0       -7.885469    7.102146    1.316655
     81          1           0       -9.469796    5.926920   -1.057513
     82          1           0       -9.819360    7.328340   -0.149245
     83          1           0      -12.542208    3.191465    0.214011
     84          1           0      -12.282212    3.589601   -1.808276
     85          1           0      -13.524584    2.238944   -0.745835
     86          1           0      -12.893805   -1.160060   -1.544405
     87          1           0      -13.580762    0.473812   -1.576865
     88          1           0      -12.706043    0.929081   -3.845395
     89          1           0      -11.557210   -0.550816   -3.972113
     90          1           0      -13.349238   -1.044984   -3.927955
     91          1           0       -9.795540   -4.891316   -0.255966
     92          1           0       -9.629093   -4.515447   -2.032589
     93          1           0       -8.102385   -5.444744   -1.128890
     94          1           0       -3.813825   -3.428791   -0.423321
     95          1           0       -1.777312   -6.447808    2.608740
     96          1           0       -2.148228   -4.949664    3.461505
     97          1           0       -3.641632   -6.082383    3.253845
     98          1           0        2.605482   -1.537289   -1.756248
     99          1           0        2.700761    0.195460   -2.093296
    100          1           0        4.348872   -0.777133    0.318825
    101          1           0        5.541241    2.357345   -2.341724
    102          1           0        5.821751    0.740235   -3.207488
    103          1           0        4.109876    1.376535   -2.788130
    104          1           0        6.726680    1.627488   -0.143204
    105          1           0        6.140251   -0.006768    0.586540
    106          1           0        7.455194   -1.430679   -1.032284
    107          1           0        7.745876   -0.023794   -2.175379
    108          1           0        8.894221    1.180362   -0.012657
    109          1           0        8.616030   -0.426533    0.747832
    110          1           0       10.351790   -0.503252   -1.883753
    111          1           0        9.038544   -2.487364   -1.317285
    112          1           0       10.775247   -2.716824   -1.288306
    113          1           0        9.824588   -2.612285    0.298148
    114          1           0       11.268043    0.884209    0.066253
    115          1           0       11.408318   -0.688530    0.884268
    116          1           0       12.813774   -1.612426   -0.763935
    117          1           0       12.690551   -0.226630   -1.783743
    118          1           0       13.714060    1.019202    0.398862
    119          1           0       13.531778   -0.797852    1.102584
    120          1           0       15.378131    0.063801   -1.503268
    121          1           0       14.967543   -2.488399   -1.057377
    122          1           0       16.670850   -1.983611   -0.860799
    123          1           0       15.552281   -2.434567    0.412129
    124          1           0       15.986600    1.347999    0.593284
    125          1           0       16.195578   -0.015524    1.552597
    126          1           0       18.057257   -0.679721   -0.040917
    127          1           0       17.604178    0.774740   -1.171765
    128          1           0       18.214335    2.299560    0.703702
    129          1           0       18.753742    0.922159    1.744711
    130          1           0       20.615311    0.317056    0.117940
    131          1           0       19.800517    3.433109   -1.010611
    132          1           0       21.277868    2.306966   -1.459388
    133          1           0       19.641837    1.852400   -1.874035
    134          1           0       21.011826    1.666795    2.159569
    135          1           0       22.097371    2.460569    0.797870
    136          1           0       20.627499    3.157969    1.373540
    137          1           0       -7.304983    1.739834    0.319886
    138          1           0       -7.754062   -0.199684    0.211121
 ---------------------------------------------------------------------

 SCF Done:  E(RB3LYP) =  -2732.98360915     A.U. after   17 cycles

 Excitation energies and oscillator strengths:

 Excited State   1:      Singlet-A      2.0618 eV  601.33 nm  f=0.1818  <S**2>=0.000
     235 -> 237       -0.15195
     235 -> 238        0.28335
     236 -> 237        0.62104
     236 -> 238        0.10231
 This state for optimization and/or second-order correction.
 Total Energy, E(TD-HF/TD-KS) =  -2732.90783861
 Copying the excited state density for this state as the 1-particle RhoCI density.

 The electronic state is 1-A.
 Alpha  occ. eigenvalues --  -19.17450 -19.17172 -19.13132 -19.12606 -19.12125
 Alpha  occ. eigenvalues --  -14.37865 -14.36987 -14.32192 -14.31030 -10.31856
 Alpha  occ. eigenvalues --  -10.31514 -10.28644 -10.26572 -10.25492 -10.25123
 Alpha  occ. eigenvalues --  -10.25123 -10.25032 -10.23345 -10.23088 -10.22976
 Alpha  occ. eigenvalues --  -10.22852 -10.22770 -10.22606 -10.22413 -10.21834
 Alpha  occ. eigenvalues --  -10.21630 -10.21478 -10.21471 -10.21303 -10.21249
 Alpha  occ. eigenvalues --  -10.21244 -10.21182 -10.21046 -10.20923 -10.20857
 Alpha  occ. eigenvalues --  -10.20846 -10.20831 -10.20411 -10.20399 -10.20301
 Alpha  occ. eigenvalues --  -10.20218 -10.20185 -10.20131 -10.20025 -10.19986
 Alpha  occ. eigenvalues --  -10.19961 -10.19749 -10.19382 -10.19329 -10.19291
 Alpha  occ. eigenvalues --  -10.19252 -10.19252 -10.19174 -10.19056 -10.18615
 Alpha  occ. eigenvalues --  -10.18551 -10.18277 -10.18236 -10.18067 -10.17703
 Alpha  occ. eigenvalues --  -10.17689 -10.17638 -10.17564 -10.17469  -1.08425
 Alpha  occ. eigenvalues --   -1.08071  -1.03771  -0.99484  -0.99438  -0.98343
 Alpha  occ. eigenvalues --   -0.96522  -0.95582  -0.93013  -0.83335  -0.83157
 Alpha  occ. eigenvalues --   -0.82371  -0.82297  -0.81614  -0.81007  -0.80517
 Alpha  occ. eigenvalues --   -0.79930  -0.79638  -0.79496  -0.79063  -0.77517
 Alpha  occ. eigenvalues --   -0.76690  -0.76424  -0.75194  -0.74929  -0.73631
 Alpha  occ. eigenvalues --   -0.73220  -0.72637  -0.72154  -0.71859  -0.69706
 Alpha  occ. eigenvalues --   -0.69090  -0.68520  -0.68031  -0.67886  -0.67432
 Alpha  occ. eigenvalues --   -0.67330  -0.67001  -0.66877  -0.65649  -0.64928
 Alpha  occ. eigenvalues --   -0.63175  -0.62367  -0.62141  -0.61195  -0.60903
 Alpha  occ. eigenvalues --   -0.60772  -0.58353  -0.57853  -0.57188  -0.56880
 Alpha  occ. eigenvalues --   -0.56144  -0.55930  -0.55344  -0.55257  -0.55174
 Alpha  occ. eigenvalues --   -0.54981  -0.53886  -0.53202  -0.52924  -0.52462
 Alpha  occ. eigenvalues --   -0.52143  -0.51493  -0.50943  -0.50711  -0.50453
 Alpha  occ. eigenvalues --   -0.50272  -0.49091  -0.48513  -0.48320  -0.48271
 Alpha  occ. eigenvalues --   -0.48046  -0.47780  -0.47575  -0.47436  -0.46782
 Alpha  occ. eigenvalues --   -0.46380  -0.46331  -0.46262  -0.45841  -0.45799
 Alpha  occ. eigenvalues --   -0.45539  -0.45129  -0.45049  -0.44735  -0.44685
 Alpha  occ. eigenvalues --   -0.44457  -0.44319  -0.43852  -0.43537  -0.43157
 Alpha  occ. eigenvalues --   -0.42999  -0.42691  -0.42626  -0.42425  -0.42289
 Alpha  occ. eigenvalues --   -0.42124  -0.41644  -0.41443  -0.41258  -0.41120
 Alpha  occ. eigenvalues --   -0.41042  -0.40267  -0.40068  -0.39846  -0.39781
 Alpha  occ. eigenvalues --   -0.39645  -0.39592  -0.39337  -0.39079  -0.38793
 Alpha  occ. eigenvalues --   -0.38746  -0.38695  -0.38586  -0.38467  -0.38206
 Alpha  occ. eigenvalues --   -0.37901  -0.37617  -0.37471  -0.37428  -0.37357
 Alpha  occ. eigenvalues --   -0.37242  -0.37043  -0.36880  -0.36496  -0.36401
 Alpha  occ. eigenvalues --   -0.36361  -0.36312  -0.36188  -0.36028  -0.35759
 Alpha  occ. eigenvalues --   -0.35533  -0.35274  -0.34862  -0.34669  -0.34574
 Alpha  occ. eigenvalues --   -0.34459  -0.34423  -0.34094  -0.34087  -0.33860
 Alpha  occ. eigenvalues --   -0.33322  -0.33054  -0.33008  -0.32439  -0.32355
 Alpha  occ. eigenvalues --   -0.32090  -0.31534  -0.31483  -0.31252  -0.30939
 Alpha  occ. eigenvalues --   -0.30823  -0.30555  -0.30105  -0.29968  -0.29817
 Alpha  occ. eigenvalues --   -0.29705  -0.28942  -0.28665  -0.28160  -0.28009
 Alpha  occ. eigenvalues --   -0.27669  -0.27500  -0.27126  -0.26580  -0.26254
 Alpha  occ. eigenvalues --   -0.24759  -0.24715  -0.23963  -0.23593  -0.20041
 Alpha  occ. eigenvalues --   -0.18841
 Alpha virt. eigenvalues --   -0.10251  -0.07622  -0.04531  -0.02080  -0.01062
 Alpha virt. eigenvalues --   -0.00363   0.00021   0.00674   0.01147   0.01491
 Alpha virt. eigenvalues --    0.02751   0.03694   0.03880   0.04179   0.04442

 Mulliken charges:
               1
     1  C   -0.049060
     2  C   -0.070571
     3  C   -0.039457
     4  C   -0.067285
     5  N   -0.130487
     6  C   -0.007440
     7  C   -0.074686
     8  C   -0.118013
     9  C    0.064621
    10  C   -0.085570
    11  C    0.031440
    12  C    0.080032
    13  C    0.164277
    14  O   -0.250975
    15  O   -0.335324
    16  N   -0.036826
    17  C    0.053077
    18  C   -0.048731
    19  C    0.020071
    20  C    0.122480
    21  C   -0.128394
    22  C   -0.107623
    23  C    0.072029
    24  N   -0.297315
    25  C   -0.015546
    26  C   -0.108932
    27  C   -0.067174
    28  C    0.048709
    29  C   -0.017562
    30  C    0.056815
    31  C   -0.078528
    32  N   -0.143595
    33  C    0.112350
    34  C   -0.138034
    35  C   -0.044703
    36  C    0.101224
    37  C    0.034526
    38  C    0.065826
    39  O   -0.145052
    40  C   -0.040046
    41  C    0.230803
    42  O   -0.230215
    43  O   -0.313071
    44  C    0.126060
    45  C    0.284683
    46  C   -0.100836
    47  C   -0.115702
    48  C    0.015776
    49  C    0.030508
    50  C    0.007622
    51  C   -0.019863
    52  C   -0.031168
    53  C    0.012838
    54  C    0.053255
    55  C   -0.023327
    56  C    0.036208
    57  C   -0.061443
    58  C    0.044485
    59  C    0.066847
    60  C   -0.008706
    61  C    0.098222
    62  C   -0.156402
    63  C    0.049696
    64  C    0.058871
    65  H    0.020042
    66  H   -0.028928
    67  H   -0.023025
    68  H    0.046456
    69  H    0.023674
    70  H    0.030583
    71  H    0.050034
    72  H    0.071749
    73  H    0.021602
    74  H    0.018467
    75  H    0.044473
    76  H    0.043851
    77  H    0.080805
    78  H    0.064882
    79  H    0.074099
    80  H    0.035416
    81  H   -0.003718
    82  H   -0.021029
    83  H    0.024803
    84  H    0.080419
    85  H    0.036117
    86  H   -0.013336
    87  H    0.011782
    88  H    0.041829
    89  H    0.035442
    90  H    0.037262
    91  H    0.054076
    92  H    0.038979
    93  H    0.066298
    94  H    0.040475
    95  H    0.066412
    96  H    0.044463
    97  H    0.069530
    98  H    0.024359
    99  H    0.001335
   100  H   -0.005618
   101  H    0.026308
   102  H    0.049854
   103  H    0.007380
   104  H    0.010923
   105  H    0.001395
   106  H    0.018371
   107  H    0.006843
   108  H    0.008809
   109  H   -0.002551
   110  H   -0.017791
   111  H    0.002765
   112  H    0.014325
   113  H    0.016444
   114  H   -0.015223
   115  H   -0.024814
   116  H   -0.021876
   117  H   -0.010192
   118  H    0.000710
   119  H    0.017916
   120  H    0.005754
   121  H   -0.013193
   122  H    0.006576
   123  H   -0.014650
   124  H   -0.070641
   125  H   -0.013198
   126  H    0.010968
   127  H    0.001119
   128  H   -0.022474
   129  H    0.001357
   130  H    0.007987
   131  H    0.004856
   132  H    0.014359
   133  H   -0.009567
   134  H    0.007357
   135  H    0.015425
   136  H   -0.029339
   137  H    0.119366
   138  H    0.248590
 Sum of Mulliken charges =   0.00000

 Dipole moment (field-independent basis, Debye):
    X=              0.9080    Y=              3.7918    Z=              0.7111  Tot=              3.9633
 Quadrupole moment (field-independent basis, Debye-Ang):
   XX=           -354.6827   YY=           -381.3371   ZZ=           -399.7829
   XY=            -23.4315   XZ=              4.3287   YZ=             -3.6604

 Normal termination of Gaussian 09 at Wed Jul 24 08:03:56 2019.
