 Gaussian 09, Revision D.01,
 Gaussian 09:  ES64L-G09RevD.01 24-Apr-2013

 --------------------------
 # td=(NStates=1) B3LYP/SVP
 --------------------------

 --
 TD
 --
 Symbolic Z-matrix:
 Charge =  0 Multiplicity = 1

                         Standard orientation:
 ---------------------------------------------------------------------
 Center     Atomic      Atomic             Coordinates (Angstroms)
 Number     Number       Type             X           Y           Z
 ---------------------------------------------------------------------
      1          6           0       -5.062086   -1.852436    0.521361
      2          6           0       -4.694955    2.851246    1.271910
      3          6           0       -9.360869    3.312830   -0.231269
      4          6           0       -9.810604   -1.570988   -0.858983
      5          7           0       -5.217978    0.457934    0.800633
      6          6           0       -4.472463   -0.689980    0.848239
      7          6           0       -2.987495   -0.537772    1.202556
      8          6           0       -3.015034    1.025128    1.745834
      9          6           0       -4.381617    1.488627    1.280855
     10          6           0       -2.844426    1.090748    3.340900
     11          6           0       -2.003896   -0.633964    0.010726
     12          6           0       -0.500998   -0.552423    0.494926
     13          6           0        0.376885   -1.111824   -0.707992
     14          8           0       -0.045012   -1.641116   -1.686543
     15          8           0        1.684110   -0.791963   -0.387764
     16          7           0       -6.973027    2.761896    0.445545
     17          6           0       -5.975088    3.349353    0.819672
     18          6           0       -6.197415    4.798291    0.905818
     19          6           0       -7.498009    4.931578    0.477977
     20          6           0       -8.044665    3.644487    0.045295
     21          6           0       -5.347710    5.800386    1.511749
     22          6           0       -8.240371    6.256016    0.406498
     23          6           0       -9.235379    6.540245   -0.423704
     24          7           0       -9.186748    0.832896   -0.419921
     25          6           0       -9.851931    1.960024   -0.514553
     26          6           0      -11.228493    1.802759   -0.995675
     27          6           0      -11.396762    0.468097   -1.178200
     28          6           0      -10.104757   -0.190997   -0.722632
     29          6           0      -12.319620    2.831340   -1.201944
     30          6           0      -12.630490   -0.361660   -1.660616
     31          6           0      -12.634652   -0.502862   -3.102378
     32          7           0       -7.509725   -1.285677   -0.138993
     33          6           0       -8.521669   -2.127784   -0.416491
     34          6           0       -8.133561   -3.550989   -0.547998
     35          6           0       -6.784378   -3.409898   -0.107156
     36          6           0       -6.448932   -2.088012    0.173041
     37          6           0       -8.991545   -4.695560   -0.894456
     38          6           0       -5.583636   -4.235278    0.092627
     39          8           0       -5.539857   -5.440214   -0.004979
     40          6           0       -4.457064   -3.343541    0.460256
     41          6           0       -3.974562   -3.683609    1.843415
     42          8           0       -4.298792   -3.233923    2.880904
     43          8           0       -2.969637   -4.604866    1.737456
     44          6           0       -2.455917   -5.175176    2.931061
     45          6           0        2.675107   -1.160711   -1.353092
     46          6           0        4.002032   -0.688742   -0.741638
     47          6           0        5.004763    0.113702   -1.275013
     48          6           0        5.002256    0.611563   -2.732450
     49          6           0        6.236402    0.269597   -0.451889
     50          6           0        7.450277   -0.480055   -1.028602
     51          6           0        8.720178   -0.268103   -0.174207
     52          6           0       10.066061   -0.837498   -0.871201
     53          6           0        9.965275   -2.307248   -0.989346
     54          6           0       11.303538   -0.267741   -0.082721
     55          6           0       12.673189   -0.539438   -0.653764
     56          6           0       13.861428   -0.124019    0.239793
     57          6           0       15.261168   -0.358584   -0.395775
     58          6           0       15.608203   -1.788900   -0.650670
     59          6           0       16.254815    0.493634    0.488825
     60          6           0       17.593750    0.740887   -0.115714
     61          6           0       18.483196    1.557606    0.712849
     62          6           0       19.951815    1.768919    0.290822
     63          6           0       20.015355    2.652340   -1.087455
     64          6           0       20.868613    2.364385    1.347805
     65          1           0       -3.941076    3.561117    1.527646
     66          1           0      -10.090132    4.135066   -0.483783
     67          1           0      -10.574676   -2.291726   -1.073418
     68          1           0       -2.705418   -1.071155    2.096277
     69          1           0       -2.525266    1.682172    1.082855
     70          1           0       -1.844104    0.754743    3.696948
     71          1           0       -3.060563    2.200677    3.585609
     72          1           0       -3.541199    0.358010    3.688458
     73          1           0       -2.155465   -1.508895   -0.523199
     74          1           0       -2.171036    0.397715   -0.598222
     75          1           0       -0.045639    0.527311    0.867418
     76          1           0       -0.460350   -1.390283    1.184873
     77          1           0       -4.472357    6.041342    0.893918
     78          1           0       -5.874252    6.808552    1.404051
     79          1           0       -5.026061    5.560007    2.701083
     80          1           0       -7.973030    6.967085    1.305008
     81          1           0       -9.483694    5.787998   -1.313808
     82          1           0       -9.620497    7.462810   -0.517323
     83          1           0      -12.407291    3.485409   -0.244320
     84          1           0      -11.998934    3.654645   -2.134123
     85          1           0      -13.281400    2.365915   -1.207198
     86          1           0      -12.816643   -1.214309   -0.923703
     87          1           0      -13.613629    0.505318   -1.520067
     88          1           0      -12.261111    0.254172   -3.814632
     89          1           0      -11.979488   -1.373780   -3.151432
     90          1           0      -13.863067   -0.896613   -3.319437
     91          1           0       -9.654119   -4.762578   -0.026970
     92          1           0       -9.453383   -4.445703   -1.944055
     93          1           0       -8.311394   -5.376292   -0.896040
     94          1           0       -3.671796   -3.606238   -0.209746
     95          1           0       -1.546566   -5.901102    2.512838
     96          1           0       -1.972059   -4.497644    3.743430
     97          1           0       -3.187663   -5.884599    3.570237
     98          1           0        2.643485   -2.264840   -1.576013
     99          1           0        2.542228   -0.661463   -2.306121
    100          1           0        4.223533   -1.095670    0.274557
    101          1           0        5.135738    1.776111   -2.930917
    102          1           0        5.980048    0.276224   -3.196037
    103          1           0        4.075265    0.124348   -3.366334
    104          1           0        6.507684    1.433881   -0.427521
    105          1           0        6.030358    0.013125    0.503600
    106          1           0        7.270240   -1.386301   -1.067432
    107          1           0        7.728743   -0.269719   -1.989627
    108          1           0        8.848008    0.855280   -0.076464
    109          1           0        8.536314   -0.762389    0.684285
    110          1           0       10.198336   -0.383605   -1.782124
    111          1           0        9.073717   -2.525550   -1.643438
    112          1           0       10.903714   -2.683238   -1.562068
    113          1           0        9.727351   -2.938514   -0.003624
    114          1           0       11.186081    0.683036    0.003661
    115          1           0       11.089764   -0.633776    0.937261
    116          1           0       12.935328   -1.629259   -0.778658
    117          1           0       12.672657   -0.017174   -1.700409
    118          1           0       14.002212    0.954352    0.709441
    119          1           0       13.776961   -0.913462    1.005275
    120          1           0       15.219455    0.290596   -1.372447
    121          1           0       14.909144   -2.244043   -1.291270
    122          1           0       16.677655   -1.892991   -0.971264
    123          1           0       15.494693   -2.410412    0.378282
    124          1           0       15.707307    1.538423    0.898772
    125          1           0       16.324305   -0.118088    1.632137
    126          1           0       17.983451   -0.240182   -0.427605
    127          1           0       17.519207    1.365596   -1.180045
    128          1           0       18.092741    2.659511    0.853457
    129          1           0       18.317875    0.997164    1.769332
    130          1           0       20.268949    0.659757   -0.049447
    131          1           0       19.686740    3.733327   -0.816962
    132          1           0       21.020390    2.671666   -1.444694
    133          1           0       19.466196    2.250060   -1.975408
    134          1           0       20.906117    1.480981    2.317913
    135          1           0       21.826367    2.809191    0.962092
    136          1           0       20.258356    3.400607    1.997635
    137          1           0       -7.082529    1.771174    0.201278
    138          1           0       -7.634502   -0.163532   -0.059036
 ---------------------------------------------------------------------

 SCF Done:  E(RB3LYP) =  -2733.00213338     A.U. after   16 cycles

 Excitation energies and oscillator strengths:

 Excited State   1:      Singlet-A      2.0511 eV  604.49 nm  f=0.2189  <S**2>=0.000
     235 -> 237       -0.11664
     235 -> 238       -0.25214
     236 -> 237        0.64713
 This state for optimization and/or second-order correction.
 Total Energy, E(TD-HF/TD-KS) =  -2732.92675801
 Copying the excited state density for this state as the 1-particle RhoCI density.

 The electronic state is 1-A.
 Alpha  occ. eigenvalues --  -19.17721 -19.17531 -19.13745 -19.12716 -19.11235
 Alpha  occ. eigenvalues --  -14.37872 -14.36682 -14.31935 -14.31212 -10.31884
 Alpha  occ. eigenvalues --  -10.31290 -10.26611 -10.26473 -10.25030 -10.24201
 Alpha  occ. eigenvalues --  -10.23895 -10.22887 -10.22640 -10.22633 -10.22404
 Alpha  occ. eigenvalues --  -10.22098 -10.22034 -10.21970 -10.21613 -10.21597
 Alpha  occ. eigenvalues --  -10.21593 -10.21572 -10.21550 -10.21219 -10.21137
 Alpha  occ. eigenvalues --  -10.21041 -10.20983 -10.20942 -10.20889 -10.20865
 Alpha  occ. eigenvalues --  -10.20850 -10.20817 -10.20174 -10.20167 -10.20142
 Alpha  occ. eigenvalues --  -10.19962 -10.19919 -10.19860 -10.19828 -10.19664
 Alpha  occ. eigenvalues --  -10.19544 -10.19383 -10.19371 -10.19352 -10.19223
 Alpha  occ. eigenvalues --  -10.19144 -10.19101 -10.19080 -10.19073 -10.18921
 Alpha  occ. eigenvalues --  -10.18849 -10.18839 -10.18548 -10.18455 -10.18279
 Alpha  occ. eigenvalues --  -10.18031 -10.17810 -10.16504 -10.16172  -1.09985
 Alpha  occ. eigenvalues --   -1.09032  -1.02407  -1.02173  -1.01646  -1.01592
 Alpha  occ. eigenvalues --   -0.98023  -0.93848  -0.92320  -0.84280  -0.82716
 Alpha  occ. eigenvalues --   -0.82632  -0.81819  -0.80809  -0.80709  -0.80081
 Alpha  occ. eigenvalues --   -0.79700  -0.79658  -0.79232  -0.78366  -0.77332
 Alpha  occ. eigenvalues --   -0.76916  -0.76044  -0.75390  -0.75214  -0.74464
 Alpha  occ. eigenvalues --   -0.73717  -0.73029  -0.72383  -0.71873  -0.71054
 Alpha  occ. eigenvalues --   -0.69786  -0.68678  -0.68157  -0.67742  -0.67622
 Alpha  occ. eigenvalues --   -0.67023  -0.66407  -0.65894  -0.65794  -0.64430
 Alpha  occ. eigenvalues --   -0.63899  -0.62697  -0.61975  -0.61267  -0.60647
 Alpha  occ. eigenvalues --   -0.59947  -0.59801  -0.58953  -0.57976  -0.56707
 Alpha  occ. eigenvalues --   -0.56431  -0.56203  -0.56089  -0.55603  -0.55367
 Alpha  occ. eigenvalues --   -0.54511  -0.54149  -0.53373  -0.52959  -0.52624
 Alpha  occ. eigenvalues --   -0.52198  -0.52192  -0.50826  -0.50499  -0.49858
 Alpha  occ. eigenvalues --   -0.49557  -0.49068  -0.48808  -0.48338  -0.47991
 Alpha  occ. eigenvalues --   -0.47804  -0.47495  -0.47261  -0.46959  -0.46705
 Alpha  occ. eigenvalues --   -0.46456  -0.46230  -0.46019  -0.45857  -0.45660
 Alpha  occ. eigenvalues --   -0.45444  -0.45210  -0.44883  -0.44718  -0.44399
 Alpha  occ. eigenvalues --   -0.44282  -0.43885  -0.43780  -0.43611  -0.43299
 Alpha  occ. eigenvalues --   -0.43110  -0.43075  -0.42815  -0.42577  -0.42388
 Alpha  occ. eigenvalues --   -0.42326  -0.42251  -0.41928  -0.41714  -0.41510
 Alpha  occ. eigenvalues --   -0.41331  -0.41245  -0.41152  -0.40838  -0.40534
 Alpha  occ. eigenvalues --   -0.40405  -0.40277  -0.39829  -0.39813  -0.39776
 Alpha  occ. eigenvalues --   -0.39359  -0.39248  -0.39023  -0.38717  -0.38642
 Alpha  occ. eigenvalues --   -0.38312  -0.38146  -0.38059  -0.37930  -0.37569
 Alpha  occ. eigenvalues --   -0.37444  -0.37320  -0.37234  -0.37157  -0.36804
 Alpha  occ. eigenvalues --   -0.36645  -0.36504  -0.36411  -0.35822  -0.35649
 Alpha  occ. eigenvalues --   -0.35408  -0.35069  -0.34866  -0.34668  -0.34623
 Alpha  occ. eigenvalues --   -0.34401  -0.34348  -0.34226  -0.33981  -0.33801
 Alpha  occ. eigenvalues --   -0.33441  -0.33208  -0.32753  -0.32617  -0.32540
 Alpha  occ. eigenvalues --   -0.32220  -0.31993  -0.31028  -0.30925  -0.30743
 Alpha  occ. eigenvalues --   -0.30622  -0.30462  -0.30224  -0.30085  -0.29985
 Alpha  occ. eigenvalues --   -0.29436  -0.29119  -0.28665  -0.28283  -0.28213
 Alpha  occ. eigenvalues --   -0.27573  -0.27360  -0.27075  -0.26235  -0.25402
 Alpha  occ. eigenvalues --   -0.24885  -0.24508  -0.24203  -0.23235  -0.20072
 Alpha  occ. eigenvalues --   -0.18375
 Alpha virt. eigenvalues --   -0.10091  -0.07209  -0.03537  -0.01744  -0.00773
 Alpha virt. eigenvalues --   -0.00064   0.00581   0.01087   0.01976   0.03113
 Alpha virt. eigenvalues --    0.03620   0.03657   0.04094   0.04324   0.04443

 Mulliken charges:
               1
     1  C    0.011722
     2  C   -0.106597
     3  C   -0.074703
     4  C   -0.054370
     5  N   -0.232765
     6  C   -0.076723
     7  C   -0.037774
     8  C   -0.032061
     9  C    0.016417
    10  C    0.069824
    11  C    0.074661
    12  C   -0.010370
    13  C    0.172467
    14  O   -0.197188
    15  O   -0.330839
    16  N    0.059030
    17  C    0.037642
    18  C   -0.153965
    19  C    0.001754
    20  C    0.082832
    21  C    0.060212
    22  C   -0.052375
    23  C   -0.018622
    24  N   -0.246420
    25  C    0.031423
    26  C   -0.132438
    27  C   -0.095660
    28  C    0.070079
    29  C    0.051388
    30  C   -0.029594
    31  C    0.014172
    32  N   -0.081294
    33  C    0.022726
    34  C   -0.203971
    35  C   -0.025952
    36  C    0.111007
    37  C    0.202008
    38  C    0.014161
    39  O   -0.172326
    40  C    0.044781
    41  C    0.181709
    42  O   -0.177793
    43  O   -0.298848
    44  C    0.085489
    45  C    0.294739
    46  C   -0.126565
    47  C   -0.114050
    48  C   -0.018090
    49  C    0.113553
    50  C    0.148266
    51  C    0.029000
    52  C   -0.051788
    53  C   -0.004328
    54  C    0.137029
    55  C    0.020611
    56  C    0.008146
    57  C   -0.092795
    58  C    0.052388
    59  C   -0.109314
    60  C    0.052555
    61  C   -0.011306
    62  C   -0.088789
    63  C   -0.014018
    64  C   -0.062033
    65  H   -0.035131
    66  H    0.003401
    67  H   -0.019621
    68  H   -0.000052
    69  H   -0.019811
    70  H    0.026513
    71  H    0.029897
    72  H    0.031046
    73  H    0.008024
    74  H    0.028000
    75  H    0.079469
    76  H    0.022965
    77  H    0.023935
    78  H    0.011533
    79  H    0.065231
    80  H    0.039136
    81  H    0.052090
    82  H   -0.006835
    83  H    0.027394
    84  H    0.047532
    85  H    0.003796
    86  H    0.048074
    87  H    0.003284
    88  H    0.046577
    89  H   -0.002138
    90  H    0.028567
    91  H    0.044261
    92  H    0.052417
    93  H   -0.021479
    94  H    0.033647
    95  H    0.048222
    96  H    0.043429
    97  H    0.051950
    98  H    0.030206
    99  H   -0.002147
   100  H   -0.001332
   101  H    0.037111
   102  H    0.024401
   103  H    0.043227
   104  H    0.004074
   105  H   -0.038209
   106  H   -0.086567
   107  H   -0.035572
   108  H   -0.001473
   109  H   -0.033448
   110  H   -0.043095
   111  H    0.008623
   112  H    0.021794
   113  H    0.024814
   114  H   -0.073065
   115  H   -0.026157
   116  H   -0.000001
   117  H   -0.001724
   118  H    0.011447
   119  H   -0.013032
   120  H   -0.000026
   121  H    0.011447
   122  H    0.021049
   123  H    0.011941
   124  H    0.020801
   125  H    0.006185
   126  H   -0.005348
   127  H    0.007535
   128  H    0.007613
   129  H    0.004596
   130  H    0.010849
   131  H    0.023718
   132  H    0.002154
   133  H    0.022603
   134  H    0.044668
   135  H    0.042413
   136  H    0.018556
   137  H    0.150974
   138  H    0.217000
 Sum of Mulliken charges =   0.00000

 Dipole moment (field-independent basis, Debye):
    X=              2.7269    Y=              4.6969    Z=             -0.4023  Tot=              5.4460
 Quadrupole moment (field-independent basis, Debye-Ang):
   XX=           -355.3542   YY=           -386.1000   ZZ=           -396.9031
   XY=            -30.0128   XZ=             -5.4488   YZ=             -3.0712

 Normal termination of Gaussian 09 at Thu Jul 25 19:29:27 2019.
