 Gaussian 09, Revision D.01,
 Gaussian 09:  ES64L-G09RevD.01 24-Apr-2013

 --------------------------
 # td=(NStates=1) B3LYP/SVP
 --------------------------

 --
 TD
 --
 Symbolic Z-matrix:
 Charge =  0 Multiplicity = 1

                         Standard orientation:
 ---------------------------------------------------------------------
 Center     Atomic      Atomic             Coordinates (Angstroms)
 Number     Number       Type             X           Y           Z
 ---------------------------------------------------------------------
      1          6           0       -5.063852   -1.929407    0.491809
      2          6           0       -4.976667    2.777353    1.311418
      3          6           0       -9.609654    3.183856   -0.132769
      4          6           0       -9.891103   -1.585237   -0.730898
      5          7           0       -5.216902    0.454096    0.750298
      6          6           0       -4.462011   -0.671098    0.813776
      7          6           0       -3.023517   -0.388587    1.308054
      8          6           0       -3.119404    1.071260    1.716186
      9          6           0       -4.518168    1.510541    1.200399
     10          6           0       -2.861054    1.135593    3.279402
     11          6           0       -2.096719   -0.764223    0.042315
     12          6           0       -0.633255   -0.663177    0.470954
     13          6           0        0.316970   -0.691775   -0.769854
     14          8           0        0.064640   -1.053584   -1.933405
     15          8           0        1.603080   -0.644853   -0.316395
     16          7           0       -7.165927    2.639558    0.459958
     17          6           0       -6.087698    3.435370    0.920738
     18          6           0       -6.422860    4.781248    0.913394
     19          6           0       -7.775904    4.889967    0.472516
     20          6           0       -8.300409    3.559868    0.244045
     21          6           0       -5.451997    5.928107    1.321212
     22          6           0       -8.379387    6.082858    0.148991
     23          6           0       -9.267450    6.313907   -0.762232
     24          7           0       -9.208823    0.774776   -0.495525
     25          6           0       -9.973481    1.913484   -0.457236
     26          6           0      -11.454520    1.592173   -0.832212
     27          6           0      -11.498205    0.227888   -1.108436
     28          6           0      -10.107147   -0.184783   -0.846086
     29          6           0      -12.592361    2.601397   -0.812638
     30          6           0      -12.648217   -0.548851   -1.551322
     31          6           0      -12.739882   -0.650933   -3.170904
     32          7           0       -7.486329   -1.282568   -0.185211
     33          6           0       -8.538905   -2.108978   -0.614378
     34          6           0       -8.081366   -3.499816   -0.550637
     35          6           0       -6.756457   -3.483116   -0.142862
     36          6           0       -6.408270   -2.126339    0.089893
     37          6           0       -8.918012   -4.660751   -0.955248
     38          6           0       -5.589396   -4.358566    0.178268
     39          8           0       -5.415572   -5.559481    0.083090
     40          6           0       -4.435511   -3.271078    0.507260
     41          6           0       -3.785845   -3.655525    1.772030
     42          8           0       -3.972455   -3.219939    2.893361
     43          8           0       -2.799600   -4.580219    1.567894
     44          6           0       -2.156796   -5.125138    2.771326
     45          6           0        2.648525   -0.729261   -1.300431
     46          6           0        3.978751   -0.600494   -0.631219
     47          6           0        5.000609    0.294639   -0.946813
     48          6           0        4.988995    1.072524   -2.246684
     49          6           0        6.229279    0.350512   -0.065411
     50          6           0        7.444131   -0.086340   -0.896449
     51          6           0        8.851073   -0.176628   -0.058322
     52          6           0       10.101709   -0.593589   -0.865091
     53          6           0        9.995955   -2.145215   -1.402285
     54          6           0       11.382527   -0.403651   -0.090828
     55          6           0       12.743851   -0.589094   -0.755046
     56          6           0       13.958559   -0.150221    0.207910
     57          6           0       15.200480   -0.311202   -0.456735
     58          6           0       15.691687   -1.740140   -0.749984
     59          6           0       16.314020    0.463217    0.487810
     60          6           0       17.797138    0.534254   -0.123360
     61          6           0       18.712147    1.351140    0.754585
     62          6           0       20.196023    1.594148    0.187646
     63          6           0       20.327757    2.407894   -1.100444
     64          6           0       21.027689    2.254879    1.319063
     65          1           0       -4.281199    3.479361    1.796520
     66          1           0      -10.275130    3.967768   -0.269432
     67          1           0      -10.544039   -2.355531   -1.041834
     68          1           0       -2.798674   -1.058773    2.146387
     69          1           0       -2.343576    1.828165    1.343534
     70          1           0       -1.991603    0.704407    3.602076
     71          1           0       -2.898840    2.078037    3.544069
     72          1           0       -3.508933    0.531124    3.809495
     73          1           0       -2.340869   -1.665898   -0.271540
     74          1           0       -2.204064   -0.021734   -0.697245
     75          1           0       -0.366101    0.239429    0.977458
     76          1           0       -0.391245   -1.439789    1.259126
     77          1           0       -4.687505    6.025376    0.597946
     78          1           0       -6.000505    6.854807    1.404285
     79          1           0       -5.036267    5.732233    2.286597
     80          1           0       -8.379895    7.105264    0.682997
     81          1           0       -9.688056    5.727083   -1.477688
     82          1           0       -9.661005    7.377999   -0.843237
     83          1           0      -12.736218    3.072790    0.277446
     84          1           0      -12.370649    3.275823   -1.519260
     85          1           0      -13.584308    2.135977   -1.069084
     86          1           0      -12.530253   -1.787936   -1.427068
     87          1           0      -13.721131   -0.255995   -1.079462
     88          1           0      -12.990683    0.305535   -3.765066
     89          1           0      -11.850020   -1.246641   -3.507590
     90          1           0      -13.497709   -1.548524   -3.187255
     91          1           0       -9.673594   -4.986773   -0.138558
     92          1           0       -9.503894   -4.450550   -1.862023
     93          1           0       -8.405460   -5.685266   -1.195087
     94          1           0       -3.832599   -3.376735   -0.303857
     95          1           0       -1.472252   -5.932985    2.354683
     96          1           0       -1.730840   -4.433883    3.245560
     97          1           0       -2.925383   -5.785375    3.322534
     98          1           0        2.501446   -1.783161   -1.938322
     99          1           0        2.517666    0.000855   -2.249836
    100          1           0        4.063592   -1.182377    0.332961
    101          1           0        5.551929    2.066401   -2.073338
    102          1           0        5.677647    0.467837   -2.935396
    103          1           0        4.074905    1.454157   -2.742008
    104          1           0        6.350139    1.220765    0.277231
    105          1           0        6.153305   -0.386704    0.797270
    106          1           0        7.471106   -1.008807   -1.470513
    107          1           0        7.717530    0.647336   -1.714116
    108          1           0        9.034958    0.887148    0.197534
    109          1           0        8.672173   -0.668770    0.870310
    110          1           0       10.053624   -0.064306   -1.895143
    111          1           0        9.213844   -2.370243   -2.183684
    112          1           0       10.934593   -2.481669   -2.043176
    113          1           0        9.862739   -2.882551   -0.548499
    114          1           0       11.468649    0.694706    0.399102
    115          1           0       11.337498   -0.870482    0.903482
    116          1           0       12.985472   -1.701710   -1.140937
    117          1           0       12.784697   -0.021754   -1.666025
    118          1           0       13.749533    0.891457    0.723442
    119          1           0       13.744945   -0.993204    1.193550
    120          1           0       15.149507    0.073720   -1.567174
    121          1           0       14.844833   -2.232871   -1.196424
    122          1           0       16.729941   -1.873688   -1.095399
    123          1           0       15.877421   -2.252997    0.276023
    124          1           0       15.844202    1.488975    1.008094
    125          1           0       16.359466   -0.284654    1.459788
    126          1           0       18.340508   -0.530173   -0.299818
    127          1           0       17.693580    1.032454   -1.156007
    128          1           0       18.302624    2.309112    1.227454
    129          1           0       18.819921    0.943814    1.673372
    130          1           0       20.549119    0.521378   -0.102495
    131          1           0       19.713818    3.494849   -0.844637
    132          1           0       21.192887    2.637198   -1.290367
    133          1           0       20.004892    1.899311   -1.960981
    134          1           0       20.891590    1.407910    2.301767
    135          1           0       22.080242    2.213135    0.969842
    136          1           0       20.532864    3.276305    1.525891
    137          1           0       -7.356329    1.565181    0.422631
    138          1           0       -7.259803   -0.258280   -0.328973
 ---------------------------------------------------------------------

 SCF Done:  E(RB3LYP) =  -2733.04840838     A.U. after   17 cycles

 Excitation energies and oscillator strengths:

 Excited State   1:      Singlet-A      1.9964 eV  621.03 nm  f=0.1878  <S**2>=0.000
     235 -> 238        0.29970
     236 -> 237        0.63817
 This state for optimization and/or second-order correction.
 Total Energy, E(TD-HF/TD-KS) =  -2732.97504056
 Copying the excited state density for this state as the 1-particle RhoCI density.

 The electronic state is 1-A.
 Alpha  occ. eigenvalues --  -19.17865 -19.16661 -19.13486 -19.12724 -19.11938
 Alpha  occ. eigenvalues --  -14.37050 -14.36198 -14.32326 -14.30769 -10.31913
 Alpha  occ. eigenvalues --  -10.31161 -10.29184 -10.26079 -10.24035 -10.23850
 Alpha  occ. eigenvalues --  -10.23800 -10.23383 -10.23280 -10.22962 -10.22441
 Alpha  occ. eigenvalues --  -10.22137 -10.22130 -10.21946 -10.21785 -10.21252
 Alpha  occ. eigenvalues --  -10.20934 -10.20808 -10.20803 -10.20722 -10.20683
 Alpha  occ. eigenvalues --  -10.20680 -10.20595 -10.20550 -10.20494 -10.20366
 Alpha  occ. eigenvalues --  -10.20351 -10.20346 -10.20310 -10.20295 -10.20258
 Alpha  occ. eigenvalues --  -10.19992 -10.19842 -10.19671 -10.19588 -10.19555
 Alpha  occ. eigenvalues --  -10.19542 -10.19481 -10.19463 -10.19445 -10.19304
 Alpha  occ. eigenvalues --  -10.19273 -10.19220 -10.19148 -10.19110 -10.18823
 Alpha  occ. eigenvalues --  -10.18679 -10.18591 -10.18583 -10.18424 -10.18267
 Alpha  occ. eigenvalues --  -10.18240 -10.17404 -10.17028 -10.16402  -1.08414
 Alpha  occ. eigenvalues --   -1.08069  -1.03259  -0.99060  -0.99028  -0.96915
 Alpha  occ. eigenvalues --   -0.94993  -0.94048  -0.92947  -0.85244  -0.82557
 Alpha  occ. eigenvalues --   -0.82142  -0.81428  -0.81050  -0.80908  -0.80110
 Alpha  occ. eigenvalues --   -0.79868  -0.79311  -0.79188  -0.78521  -0.77534
 Alpha  occ. eigenvalues --   -0.76888  -0.76009  -0.75617  -0.74351  -0.73946
 Alpha  occ. eigenvalues --   -0.73353  -0.73074  -0.72397  -0.71205  -0.70805
 Alpha  occ. eigenvalues --   -0.70087  -0.69552  -0.68889  -0.67917  -0.67844
 Alpha  occ. eigenvalues --   -0.67724  -0.66636  -0.66097  -0.65694  -0.64927
 Alpha  occ. eigenvalues --   -0.64042  -0.63035  -0.62322  -0.61254  -0.60997
 Alpha  occ. eigenvalues --   -0.60710  -0.58849  -0.58792  -0.57620  -0.57424
 Alpha  occ. eigenvalues --   -0.56282  -0.55787  -0.55621  -0.55414  -0.55366
 Alpha  occ. eigenvalues --   -0.55080  -0.54748  -0.53820  -0.53603  -0.52779
 Alpha  occ. eigenvalues --   -0.52615  -0.52259  -0.51870  -0.51096  -0.50330
 Alpha  occ. eigenvalues --   -0.49375  -0.49094  -0.48694  -0.48457  -0.47937
 Alpha  occ. eigenvalues --   -0.47851  -0.47417  -0.46943  -0.46881  -0.46584
 Alpha  occ. eigenvalues --   -0.46406  -0.46029  -0.45959  -0.45852  -0.45651
 Alpha  occ. eigenvalues --   -0.45060  -0.44903  -0.44640  -0.44578  -0.44375
 Alpha  occ. eigenvalues --   -0.44251  -0.44152  -0.43927  -0.43813  -0.43502
 Alpha  occ. eigenvalues --   -0.43431  -0.43252  -0.42977  -0.42850  -0.42456
 Alpha  occ. eigenvalues --   -0.42168  -0.42058  -0.42028  -0.41990  -0.41310
 Alpha  occ. eigenvalues --   -0.41279  -0.40678  -0.40621  -0.40603  -0.40326
 Alpha  occ. eigenvalues --   -0.40169  -0.40023  -0.39739  -0.39616  -0.39482
 Alpha  occ. eigenvalues --   -0.39227  -0.38987  -0.38869  -0.38752  -0.38716
 Alpha  occ. eigenvalues --   -0.38445  -0.38281  -0.38106  -0.37964  -0.37778
 Alpha  occ. eigenvalues --   -0.37645  -0.37275  -0.37122  -0.37013  -0.36771
 Alpha  occ. eigenvalues --   -0.36338  -0.36136  -0.36096  -0.35817  -0.35371
 Alpha  occ. eigenvalues --   -0.35229  -0.35037  -0.34943  -0.34783  -0.34691
 Alpha  occ. eigenvalues --   -0.34443  -0.34290  -0.33958  -0.33864  -0.33467
 Alpha  occ. eigenvalues --   -0.33465  -0.33355  -0.33006  -0.32950  -0.32940
 Alpha  occ. eigenvalues --   -0.32672  -0.32364  -0.32082  -0.31637  -0.30869
 Alpha  occ. eigenvalues --   -0.30843  -0.30402  -0.30352  -0.30074  -0.29649
 Alpha  occ. eigenvalues --   -0.29607  -0.29177  -0.28207  -0.28009  -0.27935
 Alpha  occ. eigenvalues --   -0.27543  -0.27335  -0.27001  -0.26451  -0.26120
 Alpha  occ. eigenvalues --   -0.25663  -0.23796  -0.23761  -0.22747  -0.19750
 Alpha  occ. eigenvalues --   -0.18915
 Alpha virt. eigenvalues --   -0.10610  -0.07472  -0.04574  -0.01788  -0.01231
 Alpha virt. eigenvalues --   -0.00463  -0.00167   0.00403   0.01816   0.03109
 Alpha virt. eigenvalues --    0.03726   0.03950   0.04360   0.04573   0.04715

 Mulliken charges:
               1
     1  C    0.047766
     2  C   -0.067550
     3  C   -0.077017
     4  C   -0.008996
     5  N   -0.171488
     6  C   -0.092494
     7  C   -0.020729
     8  C   -0.072819
     9  C    0.032046
    10  C    0.174644
    11  C    0.171399
    12  C    0.017910
    13  C    0.211362
    14  O   -0.258780
    15  O   -0.304722
    16  N   -0.212793
    17  C    0.142030
    18  C   -0.139099
    19  C    0.131881
    20  C    0.106472
    21  C    0.173422
    22  C   -0.083981
    23  C   -0.082474
    24  N   -0.238130
    25  C    0.118588
    26  C   -0.186453
    27  C    0.010735
    28  C    0.073997
    29  C    0.123834
    30  C   -0.101750
    31  C   -0.029035
    32  N   -0.092206
    33  C    0.041031
    34  C   -0.127954
    35  C    0.016986
    36  C    0.037178
    37  C    0.019298
    38  C    0.086167
    39  O   -0.151045
    40  C   -0.014763
    41  C    0.200926
    42  O   -0.237508
    43  O   -0.342607
    44  C    0.247375
    45  C    0.168613
    46  C   -0.070694
    47  C   -0.162238
    48  C    0.019804
    49  C    0.248472
    50  C   -0.063649
    51  C    0.032309
    52  C   -0.037274
    53  C   -0.060841
    54  C    0.034846
    55  C    0.010001
    56  C   -0.064049
    57  C   -0.049710
    58  C    0.037157
    59  C   -0.084185
    60  C    0.027861
    61  C    0.074211
    62  C   -0.154321
    63  C    0.147241
    64  C   -0.029517
    65  H   -0.044214
    66  H   -0.060121
    67  H   -0.039537
    68  H    0.017242
    69  H    0.006880
    70  H   -0.020543
    71  H   -0.037006
    72  H   -0.005232
    73  H   -0.033896
    74  H   -0.002319
    75  H    0.006990
    76  H    0.041170
    77  H    0.018882
    78  H    0.002619
    79  H    0.018554
    80  H    0.022628
    81  H   -0.018060
    82  H    0.017448
    83  H    0.045009
    84  H   -0.002052
    85  H    0.010382
    86  H    0.020775
    87  H    0.046157
    88  H    0.051738
    89  H    0.019936
    90  H    0.014614
    91  H    0.042688
    92  H    0.029338
    93  H    0.048409
    94  H    0.033125
    95  H    0.034538
    96  H   -0.019488
    97  H    0.043635
    98  H    0.041009
    99  H    0.032486
   100  H    0.002690
   101  H    0.011274
   102  H    0.051537
   103  H    0.036771
   104  H   -0.062874
   105  H    0.007513
   106  H   -0.002097
   107  H   -0.002407
   108  H   -0.009508
   109  H   -0.010800
   110  H    0.002604
   111  H    0.019218
   112  H    0.019682
   113  H    0.020397
   114  H   -0.010289
   115  H   -0.015534
   116  H    0.022547
   117  H   -0.012785
   118  H    0.025522
   119  H    0.010759
   120  H    0.012179
   121  H    0.004758
   122  H    0.020357
   123  H   -0.011230
   124  H    0.030321
   125  H    0.013261
   126  H    0.025317
   127  H    0.017147
   128  H   -0.024830
   129  H   -0.058665
   130  H   -0.003970
   131  H    0.007891
   132  H   -0.077193
   133  H   -0.004325
   134  H    0.028755
   135  H    0.026752
   136  H    0.039448
   137  H    0.187007
   138  H    0.184323
 Sum of Mulliken charges =   0.00000

 Dipole moment (field-independent basis, Debye):
    X=              1.9876    Y=              4.1927    Z=              0.2996  Tot=              4.6496
 Quadrupole moment (field-independent basis, Debye-Ang):
   XX=           -336.5748   YY=           -381.3416   ZZ=           -397.2163
   XY=            -19.1519   XZ=              6.0969   YZ=              0.8858

 Normal termination of Gaussian 09 at Fri Aug  2 14:00:00 2019.
