 Gaussian 09, Revision D.01,
 Gaussian 09:  ES64L-G09RevD.01 24-Apr-2013

 --------------------------
 # td=(NStates=1) B3LYP/SVP
 --------------------------

 --
 TD
 --
 Symbolic Z-matrix:
 Charge =  0 Multiplicity = 1

                         Standard orientation:
 ---------------------------------------------------------------------
 Center     Atomic      Atomic             Coordinates (Angstroms)
 Number     Number       Type             X           Y           Z
 ---------------------------------------------------------------------
      1          6           0       -5.130677   -1.855990    0.448936
      2          6           0       -4.916671    2.762010    1.469520
      3          6           0       -9.400099    3.190322   -0.317302
      4          6           0       -9.798694   -1.559417   -1.062527
      5          7           0       -5.191359    0.496145    0.627908
      6          6           0       -4.530047   -0.675771    0.727511
      7          6           0       -3.045941   -0.452323    1.241163
      8          6           0       -3.185515    0.912795    1.939407
      9          6           0       -4.462391    1.433263    1.229859
     10          6           0       -3.171381    1.071902    3.413801
     11          6           0       -2.096842   -0.651717    0.131654
     12          6           0       -0.517617   -0.685581    0.549385
     13          6           0        0.477485   -0.736077   -0.634397
     14          8           0        0.084747   -0.962175   -1.801222
     15          8           0        1.722554   -0.763832   -0.168380
     16          7           0       -7.126858    2.710928    0.371869
     17          6           0       -6.155253    3.380133    0.911660
     18          6           0       -6.508988    4.755582    1.083547
     19          6           0       -7.813166    4.926523    0.507407
     20          6           0       -8.194967    3.585776    0.083067
     21          6           0       -5.574622    5.803141    1.605601
     22          6           0       -8.526841    6.305201    0.425138
     23          6           0       -9.182065    6.617938   -0.607905
     24          7           0       -9.248633    0.762989   -0.526212
     25          6           0      -10.000951    1.885678   -0.415921
     26          6           0      -11.388094    1.606071   -0.881896
     27          6           0      -11.477356    0.303915   -1.191182
     28          6           0      -10.121499   -0.278917   -0.940135
     29          6           0      -12.501819    2.621215   -1.035391
     30          6           0      -12.666357   -0.474552   -1.841592
     31          6           0      -12.525811   -0.632588   -3.403304
     32          7           0       -7.451855   -1.244167   -0.307464
     33          6           0       -8.471298   -2.086427   -0.656889
     34          6           0       -8.022983   -3.519440   -0.706727
     35          6           0       -6.729466   -3.503550   -0.370336
     36          6           0       -6.359182   -2.080170   -0.059661
     37          6           0       -8.878931   -4.667544   -1.061325
     38          6           0       -5.545033   -4.269801    0.034044
     39          8           0       -5.363793   -5.439054    0.001564
     40          6           0       -4.347795   -3.247518    0.532045
     41          6           0       -3.877302   -3.627685    1.855855
     42          8           0       -4.199850   -3.284786    2.939711
     43          8           0       -3.008376   -4.633989    1.632139
     44          6           0       -2.442627   -5.183450    2.847056
     45          6           0        2.674170   -0.928648   -1.263261
     46          6           0        4.028761   -0.776750   -0.602730
     47          6           0        5.095075    0.037447   -0.974633
     48          6           0        5.171554    0.689895   -2.267629
     49          6           0        6.270329    0.233116   -0.118622
     50          6           0        7.590337   -0.438505   -0.686376
     51          6           0        8.860918   -0.366236    0.217065
     52          6           0       10.117554   -0.833641   -0.529801
     53          6           0       10.069735   -2.336300   -0.623360
     54          6           0       11.289753   -0.165375    0.138478
     55          6           0       12.697017   -0.509884   -0.425475
     56          6           0       13.926835    0.052368    0.337179
     57          6           0       15.270820   -0.117874   -0.380955
     58          6           0       15.632037   -1.555750   -0.412174
     59          6           0       16.276952    0.802625    0.351211
     60          6           0       17.681733    0.769278   -0.215736
     61          6           0       18.709632    1.610483    0.523015
     62          6           0       20.072453    1.487336   -0.096204
     63          6           0       20.211620    2.011477   -1.568956
     64          6           0       21.123059    2.278735    0.711040
     65          1           0       -4.156393    3.665172    1.822257
     66          1           0      -10.113929    4.201713   -0.358270
     67          1           0      -10.545645   -2.427673   -1.214951
     68          1           0       -2.716542   -1.272821    2.241338
     69          1           0       -2.487468    1.537317    1.274227
     70          1           0       -2.122844    0.824328    3.880964
     71          1           0       -3.474807    2.127776    3.773471
     72          1           0       -4.032392    0.187956    3.811639
     73          1           0       -2.349607   -1.559982   -0.367064
     74          1           0       -2.197668   -0.020282   -0.720339
     75          1           0       -0.424164    0.365371    1.078656
     76          1           0       -0.463003   -1.606020    1.257929
     77          1           0       -4.537484    5.783198    0.829287
     78          1           0       -6.095303    6.811597    1.597647
     79          1           0       -5.278302    5.600973    2.405616
     80          1           0       -8.458514    7.064534    1.341299
     81          1           0       -9.391244    5.997696   -1.518934
     82          1           0       -9.825360    7.738966   -0.593624
     83          1           0      -12.639996    3.126654   -0.235834
     84          1           0      -12.366852    3.548966   -1.758117
     85          1           0      -13.438953    2.121034   -1.474799
     86          1           0      -12.943795   -1.628714   -1.501318
     87          1           0      -13.524224    0.171816   -1.426599
     88          1           0      -12.493470    0.305931   -3.971217
     89          1           0      -11.531923   -1.137333   -3.572369
     90          1           0      -13.491727   -1.101341   -3.701395
     91          1           0       -9.810326   -4.793924   -0.521158
     92          1           0       -9.045640   -4.881239   -2.346477
     93          1           0       -8.283908   -5.623303   -0.814456
     94          1           0       -3.727425   -3.350974   -0.311902
     95          1           0       -2.087198   -6.351880    2.447306
     96          1           0       -1.414468   -4.555265    3.231643
     97          1           0       -3.306996   -5.050204    3.691807
     98          1           0        2.358140   -1.874755   -1.629044
     99          1           0        2.337513   -0.279435   -2.026530
    100          1           0        4.290964   -0.961184    0.288040
    101          1           0        5.614701    1.765352   -2.018158
    102          1           0        5.866386    0.223980   -3.120881
    103          1           0        4.256610    0.664103   -2.710380
    104          1           0        6.367543    1.444138   -0.029257
    105          1           0        6.079323   -0.205568    0.902204
    106          1           0        7.249659   -1.576057   -0.962401
    107          1           0        7.763137    0.148769   -1.590416
    108          1           0        8.974754    0.737835    0.359319
    109          1           0        8.628092   -0.864611    1.168408
    110          1           0       10.130553   -0.231804   -1.669341
    111          1           0        9.113187   -2.680762   -1.023030
    112          1           0       10.849378   -2.668169   -1.561832
    113          1           0       10.240124   -2.680069    0.320296
    114          1           0       11.312257    1.045794    0.173446
    115          1           0       11.461784   -0.382357    1.184721
    116          1           0       12.648793   -1.715255   -0.423441
    117          1           0       12.743301   -0.009316   -1.243712
    118          1           0       13.667553    1.197367    0.232269
    119          1           0       13.969372   -0.302457    1.385681
    120          1           0       15.293367    0.305505   -1.501822
    121          1           0       15.005601   -2.233666   -0.977868
    122          1           0       16.608091   -1.616372   -0.764563
    123          1           0       15.768044   -1.976925    0.450307
    124          1           0       16.063684    1.881788    0.039005
    125          1           0       16.277007    0.360706    1.416581
    126          1           0       18.005297   -0.230049   -0.355682
    127          1           0       17.412361    1.059293   -1.352648
    128          1           0       18.329296    2.727420    0.571056
    129          1           0       18.681785    1.465745    1.603537
    130          1           0       20.289466    0.546323   -0.188358
    131          1           0       19.957331    3.181501   -1.500754
    132          1           0       21.223935    1.897304   -1.960056
    133          1           0       19.508217    1.409077   -2.220958
    134          1           0       21.105435    1.981810    1.720170
    135          1           0       22.138523    1.975770    0.371272
    136          1           0       21.142421    3.412912    0.523617
    137          1           0       -7.263057    1.601332    0.030188
    138          1           0       -7.520958   -0.276115    0.048094
 ---------------------------------------------------------------------

 SCF Done:  E(RB3LYP) =  -2732.88825899     A.U. after   17 cycles

 Excitation energies and oscillator strengths:

 Excited State   1:      Singlet-A      2.0394 eV  607.94 nm  f=0.2328  <S**2>=0.000
     235 -> 237       -0.10764
     235 -> 238       -0.25970
     236 -> 237        0.64611
 This state for optimization and/or second-order correction.
 Total Energy, E(TD-HF/TD-KS) =  -2732.81331206
 Copying the excited state density for this state as the 1-particle RhoCI density.

 The electronic state is 1-A.
 Alpha  occ. eigenvalues --  -19.18742 -19.16943 -19.12727 -19.12681 -19.12413
 Alpha  occ. eigenvalues --  -14.37794 -14.37502 -14.32177 -14.30981 -10.32092
 Alpha  occ. eigenvalues --  -10.30843 -10.28306 -10.27037 -10.25014 -10.24133
 Alpha  occ. eigenvalues --  -10.24053 -10.23430 -10.23383 -10.22948 -10.22490
 Alpha  occ. eigenvalues --  -10.22356 -10.21943 -10.21913 -10.21760 -10.21741
 Alpha  occ. eigenvalues --  -10.21738 -10.21540 -10.21527 -10.21456 -10.21168
 Alpha  occ. eigenvalues --  -10.21043 -10.20922 -10.20760 -10.20746 -10.20662
 Alpha  occ. eigenvalues --  -10.20612 -10.20554 -10.20371 -10.20221 -10.20078
 Alpha  occ. eigenvalues --  -10.20056 -10.19978 -10.19681 -10.19366 -10.19341
 Alpha  occ. eigenvalues --  -10.19232 -10.19082 -10.19035 -10.18969 -10.18922
 Alpha  occ. eigenvalues --  -10.18842 -10.18759 -10.18661 -10.18623 -10.18622
 Alpha  occ. eigenvalues --  -10.18592 -10.18558 -10.18523 -10.18119 -10.18037
 Alpha  occ. eigenvalues --  -10.17541 -10.17534 -10.17169 -10.15305  -1.10008
 Alpha  occ. eigenvalues --   -1.09998  -1.04731  -1.01087  -0.99611  -0.98713
 Alpha  occ. eigenvalues --   -0.97821  -0.94915  -0.92596  -0.84269  -0.83342
 Alpha  occ. eigenvalues --   -0.82497  -0.81695  -0.81604  -0.81278  -0.80516
 Alpha  occ. eigenvalues --   -0.80454  -0.80282  -0.78733  -0.78410  -0.77514
 Alpha  occ. eigenvalues --   -0.77051  -0.76448  -0.75922  -0.74764  -0.74075
 Alpha  occ. eigenvalues --   -0.73575  -0.72978  -0.72354  -0.71959  -0.70916
 Alpha  occ. eigenvalues --   -0.69779  -0.69074  -0.68491  -0.68414  -0.67799
 Alpha  occ. eigenvalues --   -0.66959  -0.66749  -0.66409  -0.65745  -0.65238
 Alpha  occ. eigenvalues --   -0.63697  -0.62617  -0.61741  -0.61551  -0.60984
 Alpha  occ. eigenvalues --   -0.60006  -0.58548  -0.58473  -0.57538  -0.56715
 Alpha  occ. eigenvalues --   -0.56654  -0.56370  -0.56009  -0.55543  -0.55261
 Alpha  occ. eigenvalues --   -0.54983  -0.54001  -0.53961  -0.53073  -0.52462
 Alpha  occ. eigenvalues --   -0.52155  -0.52043  -0.51334  -0.50564  -0.50410
 Alpha  occ. eigenvalues --   -0.50325  -0.49446  -0.48756  -0.48584  -0.48456
 Alpha  occ. eigenvalues --   -0.47826  -0.47719  -0.47547  -0.47030  -0.46818
 Alpha  occ. eigenvalues --   -0.46537  -0.46461  -0.46437  -0.46050  -0.45656
 Alpha  occ. eigenvalues --   -0.45525  -0.45306  -0.45104  -0.45000  -0.44639
 Alpha  occ. eigenvalues --   -0.44319  -0.44223  -0.44133  -0.43910  -0.43475
 Alpha  occ. eigenvalues --   -0.43268  -0.43057  -0.42958  -0.42515  -0.42350
 Alpha  occ. eigenvalues --   -0.42344  -0.41907  -0.41770  -0.41514  -0.41374
 Alpha  occ. eigenvalues --   -0.41172  -0.40970  -0.40586  -0.40386  -0.40129
 Alpha  occ. eigenvalues --   -0.40045  -0.39729  -0.39539  -0.39407  -0.39221
 Alpha  occ. eigenvalues --   -0.38931  -0.38729  -0.38536  -0.38485  -0.38264
 Alpha  occ. eigenvalues --   -0.38098  -0.37740  -0.37698  -0.37519  -0.37258
 Alpha  occ. eigenvalues --   -0.37133  -0.37031  -0.36587  -0.36501  -0.36453
 Alpha  occ. eigenvalues --   -0.36291  -0.36218  -0.36145  -0.35875  -0.35564
 Alpha  occ. eigenvalues --   -0.35268  -0.35136  -0.34813  -0.34593  -0.34499
 Alpha  occ. eigenvalues --   -0.34320  -0.34192  -0.33829  -0.33823  -0.33719
 Alpha  occ. eigenvalues --   -0.33614  -0.33335  -0.33156  -0.32587  -0.32207
 Alpha  occ. eigenvalues --   -0.32204  -0.31818  -0.31533  -0.31483  -0.31208
 Alpha  occ. eigenvalues --   -0.30811  -0.30729  -0.30670  -0.30471  -0.29852
 Alpha  occ. eigenvalues --   -0.29709  -0.29240  -0.28461  -0.28448  -0.28195
 Alpha  occ. eigenvalues --   -0.27761  -0.27486  -0.27178  -0.26972  -0.26502
 Alpha  occ. eigenvalues --   -0.24884  -0.24814  -0.24360  -0.23349  -0.20224
 Alpha  occ. eigenvalues --   -0.18320
 Alpha virt. eigenvalues --   -0.10046  -0.07361  -0.04356  -0.01573  -0.01139
 Alpha virt. eigenvalues --   -0.00931   0.00009   0.00912   0.01344   0.02941
 Alpha virt. eigenvalues --    0.03134   0.03274   0.03944   0.04119   0.04713

 Mulliken charges:
               1
     1  C    0.046663
     2  C   -0.105211
     3  C   -0.111059
     4  C   -0.102940
     5  N   -0.171196
     6  C   -0.103287
     7  C   -0.161141
     8  C    0.037587
     9  C   -0.035525
    10  C    0.014883
    11  C    0.121578
    12  C   -0.028866
    13  C    0.204174
    14  O   -0.283279
    15  O   -0.297073
    16  N   -0.099580
    17  C    0.038349
    18  C   -0.176075
    19  C    0.012807
    20  C    0.067398
    21  C    0.192431
    22  C   -0.014620
    23  C   -0.095002
    24  N   -0.297892
    25  C    0.072730
    26  C   -0.125357
    27  C   -0.051919
    28  C    0.122763
    29  C    0.128817
    30  C   -0.047186
    31  C    0.015078
    32  N   -0.040736
    33  C    0.003490
    34  C   -0.139629
    35  C    0.081972
    36  C    0.028598
    37  C   -0.006153
    38  C    0.018576
    39  O   -0.125268
    40  C   -0.026763
    41  C    0.224842
    42  O   -0.196822
    43  O   -0.299009
    44  C    0.031405
    45  C    0.329491
    46  C    0.092502
    47  C   -0.228862
    48  C    0.074004
    49  C    0.037036
    50  C   -0.050890
    51  C    0.072251
    52  C   -0.110052
    53  C    0.079875
    54  C   -0.012878
    55  C    0.082059
    56  C    0.018992
    57  C   -0.136540
    58  C    0.180368
    59  C    0.026266
    60  C   -0.028887
    61  C    0.080806
    62  C   -0.018277
    63  C   -0.026076
    64  C    0.053691
    65  H    0.019990
    66  H    0.024693
    67  H    0.016956
    68  H    0.043324
    69  H   -0.003424
    70  H    0.036950
    71  H    0.040039
    72  H    0.058451
    73  H   -0.015215
    74  H   -0.011456
    75  H    0.044896
    76  H    0.059903
    77  H    0.049473
    78  H    0.024138
    79  H   -0.074556
    80  H    0.052794
    81  H    0.051596
    82  H    0.041562
    83  H   -0.036968
    84  H    0.011382
    85  H    0.021282
    86  H    0.028155
    87  H    0.023662
    88  H    0.010039
    89  H    0.034588
    90  H    0.024558
    91  H    0.038072
    92  H    0.056683
    93  H    0.042319
    94  H    0.050636
    95  H    0.071171
    96  H    0.050965
    97  H    0.089447
    98  H    0.002570
    99  H    0.013533
   100  H   -0.107786
   101  H    0.021776
   102  H    0.048274
   103  H   -0.029866
   104  H    0.025478
   105  H   -0.000808
   106  H    0.027919
   107  H    0.001408
   108  H   -0.006094
   109  H    0.002053
   110  H    0.007234
   111  H    0.006951
   112  H    0.035258
   113  H   -0.006048
   114  H   -0.002272
   115  H   -0.025547
   116  H    0.016345
   117  H   -0.064750
   118  H   -0.007960
   119  H   -0.001633
   120  H   -0.006481
   121  H    0.006852
   122  H   -0.039536
   123  H   -0.065046
   124  H    0.014926
   125  H    0.001713
   126  H   -0.024502
   127  H    0.000898
   128  H   -0.016299
   129  H   -0.015831
   130  H   -0.058357
   131  H    0.019391
   132  H    0.009712
   133  H    0.018291
   134  H   -0.010592
   135  H   -0.009867
   136  H    0.018545
   137  H    0.229560
   138  H    0.157054
 Sum of Mulliken charges =   0.00000

 Dipole moment (field-independent basis, Debye):
    X=              1.9656    Y=              3.8492    Z=              0.4870  Tot=              4.3494
 Quadrupole moment (field-independent basis, Debye-Ang):
   XX=           -334.5070   YY=           -383.3735   ZZ=           -399.2532
   XY=            -32.8611   XZ=             12.0586   YZ=              3.9785

 Normal termination of Gaussian 09 at Sat Jul 27 07:14:37 2019.
