 Gaussian 09, Revision D.01,
 Gaussian 09:  ES64L-G09RevD.01 24-Apr-2013

 --------------------------
 # td=(NStates=1) B3LYP/SVP
 --------------------------

 --
 TD
 --
 Symbolic Z-matrix:
 Charge =  0 Multiplicity = 1

                         Standard orientation:
 ---------------------------------------------------------------------
 Center     Atomic      Atomic             Coordinates (Angstroms)
 Number     Number       Type             X           Y           Z
 ---------------------------------------------------------------------
      1          6           0       -4.976298   -1.927820    0.458399
      2          6           0       -4.806602    2.825864    1.232306
      3          6           0       -9.463958    3.174630   -0.221742
      4          6           0       -9.800157   -1.643091   -0.924109
      5          7           0       -5.083976    0.414627    0.660660
      6          6           0       -4.382154   -0.713507    0.841480
      7          6           0       -2.944061   -0.468656    1.224648
      8          6           0       -3.027306    0.916061    1.823750
      9          6           0       -4.311425    1.520977    1.226786
     10          6           0       -3.046977    1.092010    3.403642
     11          6           0       -2.000564   -0.767325    0.080845
     12          6           0       -0.546133   -0.648663    0.588207
     13          6           0        0.461088   -0.941826   -0.575829
     14          8           0        0.213043   -1.365504   -1.702781
     15          8           0        1.659182   -0.626151   -0.064636
     16          7           0       -7.186566    2.640180    0.506989
     17          6           0       -6.045339    3.307935    0.909901
     18          6           0       -6.385713    4.774128    1.003588
     19          6           0       -7.733210    4.903139    0.525452
     20          6           0       -8.237269    3.530822    0.266704
     21          6           0       -5.423662    5.779435    1.449664
     22          6           0       -8.499820    6.224148    0.570929
     23          6           0       -9.389195    6.566953   -0.380699
     24          7           0       -9.258661    0.790745   -0.491859
     25          6           0      -10.009765    1.973820   -0.498610
     26          6           0      -11.364197    1.638758   -1.077642
     27          6           0      -11.410032    0.333672   -1.299056
     28          6           0      -10.090248   -0.172179   -0.926787
     29          6           0      -12.380511    2.778072   -1.364377
     30          6           0      -12.612754   -0.469686   -1.821235
     31          6           0      -12.629064   -0.615051   -3.380828
     32          7           0       -7.474623   -1.304292   -0.126060
     33          6           0       -8.545610   -2.105750   -0.478232
     34          6           0       -8.010914   -3.405385   -0.616900
     35          6           0       -6.693700   -3.334845   -0.283498
     36          6           0       -6.363748   -2.051531    0.069371
     37          6           0       -8.873929   -4.658573   -0.950470
     38          6           0       -5.619443   -4.270789    0.004506
     39          8           0       -5.406544   -5.459180    0.003565
     40          6           0       -4.328355   -3.294286    0.369347
     41          6           0       -3.813962   -3.864922    1.782422
     42          8           0       -4.255096   -3.490622    2.857960
     43          8           0       -2.803175   -4.627172    1.643283
     44          6           0       -2.394515   -5.280444    2.792980
     45          6           0        2.725076   -0.867218   -1.020226
     46          6           0        4.005624   -0.519172   -0.422015
     47          6           0        4.913470    0.298189   -0.851637
     48          6           0        4.851624    1.036049   -2.289474
     49          6           0        6.227848    0.436630   -0.043366
     50          6           0        7.530855   -0.209104   -0.819977
     51          6           0        8.740338   -0.057685   -0.126736
     52          6           0       10.029721   -0.640805   -0.705119
     53          6           0        9.861326   -2.155535   -0.959590
     54          6           0       11.251832   -0.180045    0.150829
     55          6           0       12.602223   -0.453934   -0.689207
     56          6           0       13.869736   -0.040661    0.190639
     57          6           0       15.179602   -0.104020   -0.546322
     58          6           0       15.598520   -1.653665   -0.816239
     59          6           0       16.303597    0.600728    0.300356
     60          6           0       17.687840    0.646693   -0.174836
     61          6           0       18.669212    1.511611    0.679935
     62          6           0       20.014977    1.379109    0.096262
     63          6           0       20.019528    2.071344   -1.340168
     64          6           0       21.044536    2.186989    0.968905
     65          1           0       -4.102467    3.474624    1.731813
     66          1           0      -10.036541    4.096378   -0.368708
     67          1           0      -10.541296   -2.304389   -1.198382
     68          1           0       -2.623903   -1.181059    2.141774
     69          1           0       -2.154641    1.358905    1.347436
     70          1           0       -2.013325    0.629664    3.742959
     71          1           0       -3.213547    2.244308    3.548132
     72          1           0       -3.884343    0.466082    3.989430
     73          1           0       -2.248939   -1.819816   -0.249993
     74          1           0       -2.380314   -0.001651   -0.725338
     75          1           0       -0.289423    0.295795    0.974262
     76          1           0       -0.206979   -1.482358    1.230067
     77          1           0       -4.572330    5.926108    0.750923
     78          1           0       -5.745948    6.908668    1.278541
     79          1           0       -5.072700    5.610242    2.442043
     80          1           0       -8.161510    6.616803    1.511745
     81          1           0       -9.962892    5.792179   -0.988150
     82          1           0       -9.698473    7.626405   -0.181114
     83          1           0      -12.331062    3.362771   -0.515549
     84          1           0      -11.994458    3.230390   -2.413228
     85          1           0      -13.428904    2.497889   -1.495143
     86          1           0      -12.311357   -1.460480   -1.258733
     87          1           0      -13.504642   -0.018498   -1.405177
     88          1           0      -12.358727    0.251212   -4.088206
     89          1           0      -11.762340   -1.411154   -3.725139
     90          1           0      -13.701820   -1.128691   -3.819060
     91          1           0       -9.756966   -4.664109   -0.049251
     92          1           0       -9.584238   -4.903424   -1.836924
     93          1           0       -8.097954   -5.502501   -1.045929
     94          1           0       -3.471280   -3.401860   -0.287740
     95          1           0       -1.826700   -6.201124    2.526129
     96          1           0       -1.850770   -4.520798    3.473858
     97          1           0       -3.284250   -5.705342    3.140778
     98          1           0        2.746041   -1.906817   -1.400308
     99          1           0        2.679423   -0.251715   -2.068666
    100          1           0        4.263373   -0.953251    0.670843
    101          1           0        5.361678    1.972079   -2.321352
    102          1           0        5.498797    0.668021   -3.124635
    103          1           0        3.712610    1.075135   -2.506133
    104          1           0        6.637941    1.395141   -0.027765
    105          1           0        6.264295   -0.005723    0.933192
    106          1           0        7.430930   -1.354341   -0.998912
    107          1           0        7.486928    0.305261   -1.835263
    108          1           0        8.844134    0.830638    0.188538
    109          1           0        8.525643   -0.665337    0.794514
    110          1           0       10.265822   -0.142476   -1.626140
    111          1           0        8.887238   -2.747014   -1.449241
    112          1           0       10.790500   -2.471641   -1.497375
    113          1           0        9.984987   -2.709832   -0.055699
    114          1           0       11.281895    0.723314    0.673018
    115          1           0       11.365168   -1.000379    1.111057
    116          1           0       12.681914   -1.542521   -1.017538
    117          1           0       12.573934    0.231996   -1.478707
    118          1           0       13.817905    1.028884    0.415373
    119          1           0       13.654024   -0.653013    1.273905
    120          1           0       15.200344    0.260564   -1.691533
    121          1           0       14.866696   -2.325870   -1.547412
    122          1           0       16.444250   -1.427306   -1.448568
    123          1           0       15.681334   -2.189350    0.187892
    124          1           0       15.890216    1.814513    0.493106
    125          1           0       16.208549    0.281364    1.202047
    126          1           0       18.101448   -0.308029   -0.175809
    127          1           0       17.608915    1.109049   -1.131191
    128          1           0       18.169785    2.681779    0.945665
    129          1           0       18.791812    1.023292    1.723530
    130          1           0       20.284192    0.192881   -0.135719
    131          1           0       19.707191    3.183036   -1.084086
    132          1           0       21.059527    1.990309   -1.757147
    133          1           0       19.282882    1.463433   -2.046691
    134          1           0       21.197739    1.722797    2.060874
    135          1           0       22.202319    2.368736    0.617269
    136          1           0       20.578431    3.147681    0.843230
    137          1           0       -7.082455    1.569905    0.019859
    138          1           0       -7.573721   -0.255713   -0.094951
 ---------------------------------------------------------------------

 SCF Done:  E(RB3LYP) =  -2732.99233594     A.U. after   17 cycles

 Excitation energies and oscillator strengths:

 Excited State   1:      Singlet-A      2.0288 eV  611.11 nm  f=0.1349  <S**2>=0.000
     235 -> 238       -0.32932
     236 -> 237        0.61844
 This state for optimization and/or second-order correction.
 Total Energy, E(TD-HF/TD-KS) =  -2732.91777731
 Copying the excited state density for this state as the 1-particle RhoCI density.

 The electronic state is 1-A.
 Alpha  occ. eigenvalues --  -19.19226 -19.18500 -19.13049 -19.12715 -19.10818
 Alpha  occ. eigenvalues --  -14.37527 -14.36913 -14.32171 -14.30237 -10.31900
 Alpha  occ. eigenvalues --  -10.30701 -10.28136 -10.25719 -10.24506 -10.23860
 Alpha  occ. eigenvalues --  -10.23413 -10.23349 -10.23131 -10.22931 -10.22181
 Alpha  occ. eigenvalues --  -10.21987 -10.21844 -10.21806 -10.21565 -10.21191
 Alpha  occ. eigenvalues --  -10.21152 -10.21120 -10.20902 -10.20843 -10.20795
 Alpha  occ. eigenvalues --  -10.20792 -10.20754 -10.20675 -10.20671 -10.20653
 Alpha  occ. eigenvalues --  -10.20622 -10.20608 -10.20436 -10.20389 -10.20384
 Alpha  occ. eigenvalues --  -10.20360 -10.20252 -10.20207 -10.20194 -10.19874
 Alpha  occ. eigenvalues --  -10.19859 -10.19700 -10.19541 -10.19493 -10.19484
 Alpha  occ. eigenvalues --  -10.19417 -10.19358 -10.19271 -10.19137 -10.18868
 Alpha  occ. eigenvalues --  -10.18857 -10.18806 -10.18566 -10.18555 -10.18498
 Alpha  occ. eigenvalues --  -10.18232 -10.17618 -10.17433 -10.15994  -1.12873
 Alpha  occ. eigenvalues --   -1.10083  -1.03245  -1.00586  -0.99638  -0.98948
 Alpha  occ. eigenvalues --   -0.95934  -0.92961  -0.92643  -0.83946  -0.82938
 Alpha  occ. eigenvalues --   -0.82226  -0.81748  -0.81218  -0.80879  -0.80654
 Alpha  occ. eigenvalues --   -0.79821  -0.79712  -0.78857  -0.78536  -0.77372
 Alpha  occ. eigenvalues --   -0.76642  -0.76095  -0.75938  -0.74737  -0.74309
 Alpha  occ. eigenvalues --   -0.73745  -0.73022  -0.71635  -0.70919  -0.70035
 Alpha  occ. eigenvalues --   -0.69468  -0.68538  -0.68438  -0.67939  -0.67192
 Alpha  occ. eigenvalues --   -0.66518  -0.66290  -0.65684  -0.65578  -0.65419
 Alpha  occ. eigenvalues --   -0.63908  -0.62658  -0.62117  -0.61694  -0.61063
 Alpha  occ. eigenvalues --   -0.60463  -0.58787  -0.58404  -0.57890  -0.57328
 Alpha  occ. eigenvalues --   -0.56886  -0.56567  -0.56494  -0.55791  -0.55166
 Alpha  occ. eigenvalues --   -0.54232  -0.54196  -0.52880  -0.52815  -0.52422
 Alpha  occ. eigenvalues --   -0.52123  -0.51700  -0.51412  -0.50686  -0.50547
 Alpha  occ. eigenvalues --   -0.50294  -0.49712  -0.49265  -0.48891  -0.48362
 Alpha  occ. eigenvalues --   -0.48143  -0.48105  -0.47734  -0.47486  -0.47068
 Alpha  occ. eigenvalues --   -0.46747  -0.46273  -0.45676  -0.45547  -0.45477
 Alpha  occ. eigenvalues --   -0.45306  -0.45116  -0.44912  -0.44840  -0.44721
 Alpha  occ. eigenvalues --   -0.44209  -0.44144  -0.43841  -0.43722  -0.43430
 Alpha  occ. eigenvalues --   -0.43380  -0.43320  -0.43051  -0.42455  -0.42382
 Alpha  occ. eigenvalues --   -0.42154  -0.41805  -0.41767  -0.41345  -0.41039
 Alpha  occ. eigenvalues --   -0.40889  -0.40723  -0.40411  -0.40275  -0.40135
 Alpha  occ. eigenvalues --   -0.40061  -0.39895  -0.39726  -0.39405  -0.39324
 Alpha  occ. eigenvalues --   -0.38993  -0.38823  -0.38744  -0.38474  -0.38333
 Alpha  occ. eigenvalues --   -0.38255  -0.38045  -0.37926  -0.37577  -0.37507
 Alpha  occ. eigenvalues --   -0.37393  -0.37195  -0.37127  -0.37026  -0.36692
 Alpha  occ. eigenvalues --   -0.36261  -0.36056  -0.35974  -0.35938  -0.35656
 Alpha  occ. eigenvalues --   -0.34979  -0.34807  -0.34739  -0.34612  -0.34521
 Alpha  occ. eigenvalues --   -0.34098  -0.34020  -0.33924  -0.33655  -0.33449
 Alpha  occ. eigenvalues --   -0.33215  -0.32885  -0.32677  -0.32469  -0.32226
 Alpha  occ. eigenvalues --   -0.32062  -0.32001  -0.31748  -0.31576  -0.31498
 Alpha  occ. eigenvalues --   -0.31174  -0.30565  -0.30387  -0.30217  -0.29833
 Alpha  occ. eigenvalues --   -0.29441  -0.29304  -0.28400  -0.28170  -0.28068
 Alpha  occ. eigenvalues --   -0.26998  -0.26883  -0.26638  -0.26213  -0.26096
 Alpha  occ. eigenvalues --   -0.25295  -0.24331  -0.24046  -0.23178  -0.19464
 Alpha  occ. eigenvalues --   -0.18752
 Alpha virt. eigenvalues --   -0.10050  -0.07634  -0.03910  -0.02505  -0.00421
 Alpha virt. eigenvalues --    0.00217   0.00943   0.01534   0.02161   0.03387
 Alpha virt. eigenvalues --    0.03507   0.03894   0.03920   0.04177   0.04302

 Mulliken charges:
               1
     1  C   -0.008648
     2  C   -0.078160
     3  C   -0.061557
     4  C   -0.034381
     5  N   -0.235796
     6  C   -0.031243
     7  C   -0.108126
     8  C    0.046235
     9  C   -0.036752
    10  C    0.002892
    11  C    0.061382
    12  C    0.061564
    13  C    0.172945
    14  O   -0.243689
    15  O   -0.293922
    16  N   -0.150655
    17  C    0.156574
    18  C   -0.144425
    19  C   -0.039583
    20  C    0.072577
    21  C    0.074113
    22  C   -0.024473
    23  C   -0.026987
    24  N   -0.265628
    25  C    0.089056
    26  C   -0.128811
    27  C   -0.119316
    28  C    0.034440
    29  C    0.102659
    30  C    0.081675
    31  C   -0.087597
    32  N   -0.053934
    33  C    0.092921
    34  C   -0.096846
    35  C   -0.014616
    36  C    0.123945
    37  C   -0.040883
    38  C    0.098852
    39  O   -0.161242
    40  C   -0.101793
    41  C    0.161737
    42  O   -0.255330
    43  O   -0.217044
    44  C    0.185524
    45  C    0.238123
    46  C   -0.117601
    47  C   -0.094958
    48  C    0.029898
    49  C    0.108146
    50  C   -0.053464
    51  C    0.157179
    52  C    0.009845
    53  C   -0.008419
    54  C   -0.035925
    55  C    0.028139
    56  C    0.005802
    57  C   -0.107728
    58  C   -0.046874
    59  C    0.059120
    60  C    0.105534
    61  C   -0.046052
    62  C   -0.136186
    63  C   -0.046221
    64  C   -0.011893
    65  H   -0.037101
    66  H   -0.054961
    67  H   -0.049825
    68  H    0.011921
    69  H   -0.021190
    70  H    0.034956
    71  H    0.038180
    72  H    0.060616
    73  H    0.023891
    74  H    0.034025
    75  H    0.021511
    76  H    0.034120
    77  H    0.025502
    78  H    0.019725
    79  H    0.031724
    80  H    0.021337
    81  H    0.071150
    82  H    0.037250
    83  H    0.013664
    84  H    0.049212
    85  H    0.005201
    86  H    0.027036
    87  H    0.010755
    88  H    0.041899
    89  H    0.025289
    90  H    0.034544
    91  H    0.053141
    92  H    0.048349
    93  H    0.059860
    94  H    0.047234
    95  H    0.027649
    96  H    0.049294
    97  H    0.013068
    98  H    0.033562
    99  H    0.032825
   100  H    0.012491
   101  H   -0.006910
   102  H    0.035047
   103  H    0.043588
   104  H   -0.024049
   105  H   -0.011569
   106  H    0.000940
   107  H   -0.016220
   108  H   -0.094393
   109  H   -0.025134
   110  H   -0.020948
   111  H    0.053419
   112  H    0.002347
   113  H   -0.008773
   114  H   -0.007210
   115  H   -0.006382
   116  H    0.026359
   117  H   -0.014116
   118  H   -0.011964
   119  H    0.023272
   120  H    0.012023
   121  H    0.029154
   122  H    0.015345
   123  H    0.029194
   124  H   -0.011222
   125  H   -0.066793
   126  H   -0.011687
   127  H   -0.002776
   128  H    0.028461
   129  H    0.003296
   130  H    0.022557
   131  H    0.026707
   132  H    0.022730
   133  H    0.038290
   134  H    0.034897
   135  H    0.022828
   136  H    0.005955
   137  H    0.233427
   138  H    0.148285
 Sum of Mulliken charges =   0.00000

 Dipole moment (field-independent basis, Debye):
    X=              3.5428    Y=              4.1479    Z=              0.5226  Tot=              5.4799
 Quadrupole moment (field-independent basis, Debye-Ang):
   XX=           -349.6592   YY=           -382.4516   ZZ=           -399.0115
   XY=            -24.7327   XZ=              8.9373   YZ=              0.8863

 Normal termination of Gaussian 09 at Tue Jul 30 01:47:29 2019.
