 Gaussian 09, Revision D.01,
 Gaussian 09:  ES64L-G09RevD.01 24-Apr-2013

 --------------------------
 # td=(NStates=1) B3LYP/SVP
 --------------------------

 --
 TD
 --
 Symbolic Z-matrix:
 Charge =  0 Multiplicity = 1

                         Standard orientation:
 ---------------------------------------------------------------------
 Center     Atomic      Atomic             Coordinates (Angstroms)
 Number     Number       Type             X           Y           Z
 ---------------------------------------------------------------------
      1          6           0       -5.068975   -1.939995    0.457329
      2          6           0       -4.782614    2.722128    1.327140
      3          6           0       -9.321595    3.299568   -0.130098
      4          6           0       -9.796284   -1.457384   -0.842649
      5          7           0       -5.237719    0.489792    0.724761
      6          6           0       -4.512791   -0.779789    0.850474
      7          6           0       -3.110787   -0.536997    1.309742
      8          6           0       -3.091026    0.935582    1.836518
      9          6           0       -4.331514    1.405159    1.235642
     10          6           0       -2.881877    1.128096    3.439266
     11          6           0       -2.149459   -0.800006    0.100257
     12          6           0       -0.635026   -0.852164    0.567236
     13          6           0        0.346782   -1.001880   -0.692312
     14          8           0       -0.000661   -1.579058   -1.649749
     15          8           0        1.652405   -0.752920   -0.295028
     16          7           0       -7.050723    2.757794    0.438587
     17          6           0       -5.953485    3.420843    0.939668
     18          6           0       -6.256361    4.846203    1.052941
     19          6           0       -7.537463    5.006137    0.595525
     20          6           0       -8.050452    3.697607    0.216414
     21          6           0       -5.206459    5.833982    1.394793
     22          6           0       -8.217803    6.301520    0.367206
     23          6           0       -9.147622    6.699407   -0.557547
     24          7           0       -9.188614    0.855568   -0.397877
     25          6           0       -9.875470    1.999116   -0.544098
     26          6           0      -11.184192    1.818515   -1.033372
     27          6           0      -11.316821    0.480603   -1.211984
     28          6           0      -10.109451   -0.098316   -0.844678
     29          6           0      -12.134599    3.035185   -1.185700
     30          6           0      -12.519182   -0.293120   -1.695770
     31          6           0      -12.407629   -0.754470   -3.196016
     32          7           0       -7.510833   -1.261232   -0.116959
     33          6           0       -8.681932   -2.056719   -0.468656
     34          6           0       -8.273381   -3.527229   -0.370295
     35          6           0       -6.882452   -3.453918   -0.002036
     36          6           0       -6.445897   -2.074562    0.106202
     37          6           0       -9.155683   -4.611096   -0.808229
     38          6           0       -5.780075   -4.354175    0.156394
     39          8           0       -5.634781   -5.514953    0.095529
     40          6           0       -4.509120   -3.355993    0.500730
     41          6           0       -3.810922   -3.890189    1.678709
     42          8           0       -3.981097   -3.428317    2.795752
     43          8           0       -2.911733   -4.874048    1.443673
     44          6           0       -2.293078   -5.462555    2.557876
     45          6           0        2.627985   -1.031125   -1.289969
     46          6           0        4.014778   -0.769649   -0.699851
     47          6           0        4.912120    0.008057   -1.157208
     48          6           0        4.809371    0.741828   -2.552915
     49          6           0        6.240973    0.233815   -0.308401
     50          6           0        7.518233   -0.208648   -1.043878
     51          6           0        8.734820   -0.086497   -0.223075
     52          6           0       10.081699   -0.427971   -0.942885
     53          6           0       10.101982   -1.902041   -1.420777
     54          6           0       11.202772   -0.020478   -0.096035
     55          6           0       12.624657   -0.211742   -0.717321
     56          6           0       13.770814    0.083536    0.273964
     57          6           0       15.150318   -0.140220   -0.303113
     58          6           0       15.525288   -1.589746   -0.594110
     59          6           0       16.269992    0.527163    0.701553
     60          6           0       17.599448    0.532998    0.073972
     61          6           0       18.528386    1.402961    0.739036
     62          6           0       19.940976    1.457824    0.250265
     63          6           0       20.191996    1.885906   -1.147584
     64          6           0       20.912126    2.292650    1.215834
     65          1           0       -4.175921    3.481872    1.793671
     66          1           0      -10.043971    4.256851    0.026538
     67          1           0      -10.622541   -2.087506   -1.061474
     68          1           0       -2.927223   -1.169572    2.191431
     69          1           0       -2.279430    1.454926    1.354151
     70          1           0       -2.088071    0.616156    3.604759
     71          1           0       -2.929165    2.118822    3.734095
     72          1           0       -3.816039    0.881834    3.904755
     73          1           0       -2.241260   -1.840742   -0.501082
     74          1           0       -2.244184    0.070776   -0.560234
     75          1           0       -0.380194    0.024066    1.068218
     76          1           0       -0.320633   -1.749267    1.339578
     77          1           0       -4.396042    5.800379    0.596767
     78          1           0       -5.551353    6.917001    1.404538
     79          1           0       -4.617516    5.516644    2.180315
     80          1           0       -7.926280    7.025373    1.025692
     81          1           0       -9.297602    6.114869   -1.556427
     82          1           0       -9.751851    7.616464   -0.363842
     83          1           0      -12.420928    3.431060   -0.362756
     84          1           0      -11.631248    3.956577   -1.674077
     85          1           0      -13.189025    3.038650   -1.832781
     86          1           0      -12.637743   -1.229637   -1.027162
     87          1           0      -13.587102    0.086930   -1.558712
     88          1           0      -12.534115   -0.026505   -3.951192
     89          1           0      -11.511031   -1.454581   -3.214441
     90          1           0      -13.342289   -1.389936   -3.482317
     91          1           0       -9.967614   -4.775581    0.089501
     92          1           0       -9.587355   -4.566311   -1.862121
     93          1           0       -8.687009   -5.458342   -0.931179
     94          1           0       -3.738449   -3.451208   -0.186739
     95          1           0       -1.719678   -6.193801    2.140546
     96          1           0       -1.665330   -4.689474    3.046936
     97          1           0       -3.069373   -5.827024    3.282001
     98          1           0        2.532602   -2.129965   -1.357091
     99          1           0        2.534186   -0.472908   -2.395574
    100          1           0        4.288313   -1.573860    0.016268
    101          1           0        5.086244    1.775843   -2.359287
    102          1           0        5.491349    0.264607   -3.124864
    103          1           0        3.741922    0.671238   -2.816566
    104          1           0        6.034336    1.267934   -0.077123
    105          1           0        6.130926   -0.430514    0.689664
    106          1           0        7.225621   -1.223818   -1.418681
    107          1           0        7.667659    0.479466   -2.072974
    108          1           0        8.828335    1.037800    0.160068
    109          1           0        8.852392   -0.820148    0.700726
    110          1           0       10.452441    0.120484   -1.876108
    111          1           0        9.393589   -2.217981   -2.147355
    112          1           0       10.930506   -2.169084   -1.935414
    113          1           0        9.987047   -2.510280   -0.573311
    114          1           0       11.137574    1.125653    0.164161
    115          1           0       10.962091   -0.377595    0.896787
    116          1           0       12.601962   -1.306525   -0.852040
    117          1           0       12.813937    0.291567   -1.677299
    118          1           0       13.578161    1.202828    0.526169
    119          1           0       13.796416   -0.346170    1.239468
    120          1           0       15.279835    0.347155   -1.228661
    121          1           0       14.886131   -1.984248   -1.169044
    122          1           0       16.611570   -1.549945   -0.879408
    123          1           0       15.413410   -2.290971    0.309306
    124          1           0       15.835964    1.525225    0.759553
    125          1           0       16.248395   -0.247178    1.503727
    126          1           0       17.973312   -0.478602   -0.071439
    127          1           0       17.455468    0.788197   -1.117215
    128          1           0       18.065771    2.362819    0.732216
    129          1           0       18.519881    1.240455    1.745417
    130          1           0       20.226341    0.288970    0.226023
    131          1           0       20.118350    3.098511   -1.379890
    132          1           0       21.294000    1.870860   -1.413656
    133          1           0       19.783594    1.346831   -1.880728
    134          1           0       20.962588    1.693849    2.174724
    135          1           0       21.929654    2.552803    0.746732
    136          1           0       20.589514    3.363329    1.478791
    137          1           0       -7.049491    1.851870    0.333938
    138          1           0       -7.436377   -0.283653   -0.082710
 ---------------------------------------------------------------------

 SCF Done:  E(RB3LYP) =  -2733.06903032     A.U. after   17 cycles

 Excitation energies and oscillator strengths:

 Excited State   1:      Singlet-A      2.0902 eV  593.16 nm  f=0.0821  <S**2>=0.000
     235 -> 237       -0.35385
     235 -> 238       -0.26733
     236 -> 237        0.45954
     236 -> 238       -0.29200
 This state for optimization and/or second-order correction.
 Total Energy, E(TD-HF/TD-KS) =  -2732.99221541
 Copying the excited state density for this state as the 1-particle RhoCI density.

 The electronic state is 1-A.
 Alpha  occ. eigenvalues --  -19.17634 -19.17053 -19.13571 -19.12489 -19.10908
 Alpha  occ. eigenvalues --  -14.36781 -14.35722 -14.32456 -14.28921 -10.31702
 Alpha  occ. eigenvalues --  -10.30432 -10.27686 -10.25355 -10.24116 -10.24014
 Alpha  occ. eigenvalues --  -10.23487 -10.23465 -10.23407 -10.23329 -10.22885
 Alpha  occ. eigenvalues --  -10.22540 -10.21214 -10.21188 -10.21132 -10.21107
 Alpha  occ. eigenvalues --  -10.21034 -10.20702 -10.20592 -10.20553 -10.20546
 Alpha  occ. eigenvalues --  -10.20523 -10.20510 -10.20404 -10.20341 -10.20260
 Alpha  occ. eigenvalues --  -10.20187 -10.19893 -10.19792 -10.19789 -10.19733
 Alpha  occ. eigenvalues --  -10.19658 -10.19594 -10.19500 -10.19257 -10.19243
 Alpha  occ. eigenvalues --  -10.18911 -10.18883 -10.18839 -10.18776 -10.18559
 Alpha  occ. eigenvalues --  -10.18351 -10.18205 -10.18053 -10.17945 -10.17943
 Alpha  occ. eigenvalues --  -10.17891 -10.17846 -10.17820 -10.17715 -10.17639
 Alpha  occ. eigenvalues --  -10.17439 -10.16668 -10.16340 -10.16092  -1.09789
 Alpha  occ. eigenvalues --   -1.08986  -1.05163  -1.02599  -0.99352  -0.98219
 Alpha  occ. eigenvalues --   -0.96546  -0.93405  -0.92288  -0.84266  -0.82941
 Alpha  occ. eigenvalues --   -0.82848  -0.82546  -0.81607  -0.81078  -0.80340
 Alpha  occ. eigenvalues --   -0.79983  -0.79611  -0.79234  -0.78150  -0.77281
 Alpha  occ. eigenvalues --   -0.76968  -0.75842  -0.75592  -0.75267  -0.74403
 Alpha  occ. eigenvalues --   -0.73709  -0.72958  -0.72541  -0.72221  -0.71980
 Alpha  occ. eigenvalues --   -0.70513  -0.69553  -0.69265  -0.69017  -0.68279
 Alpha  occ. eigenvalues --   -0.67922  -0.67695  -0.66653  -0.66108  -0.65468
 Alpha  occ. eigenvalues --   -0.64753  -0.63678  -0.62634  -0.62114  -0.61411
 Alpha  occ. eigenvalues --   -0.60913  -0.58942  -0.58384  -0.57792  -0.56977
 Alpha  occ. eigenvalues --   -0.56732  -0.56379  -0.56218  -0.55824  -0.55655
 Alpha  occ. eigenvalues --   -0.55157  -0.55002  -0.54761  -0.54203  -0.53089
 Alpha  occ. eigenvalues --   -0.52262  -0.51702  -0.51254  -0.51003  -0.50100
 Alpha  occ. eigenvalues --   -0.49835  -0.49039  -0.48795  -0.48755  -0.48642
 Alpha  occ. eigenvalues --   -0.48553  -0.47701  -0.47442  -0.47286  -0.46965
 Alpha  occ. eigenvalues --   -0.46767  -0.46627  -0.46342  -0.46264  -0.46040
 Alpha  occ. eigenvalues --   -0.45901  -0.45736  -0.45211  -0.45122  -0.44976
 Alpha  occ. eigenvalues --   -0.44709  -0.44317  -0.44264  -0.44008  -0.43792
 Alpha  occ. eigenvalues --   -0.43581  -0.43330  -0.43105  -0.42786  -0.42689
 Alpha  occ. eigenvalues --   -0.42490  -0.42326  -0.42071  -0.41910  -0.41791
 Alpha  occ. eigenvalues --   -0.41514  -0.41419  -0.41120  -0.40954  -0.40615
 Alpha  occ. eigenvalues --   -0.40430  -0.40293  -0.39873  -0.39744  -0.39680
 Alpha  occ. eigenvalues --   -0.39487  -0.39423  -0.39031  -0.38778  -0.38553
 Alpha  occ. eigenvalues --   -0.38344  -0.38244  -0.38050  -0.37821  -0.37806
 Alpha  occ. eigenvalues --   -0.37433  -0.37183  -0.37038  -0.36871  -0.36762
 Alpha  occ. eigenvalues --   -0.36598  -0.36519  -0.36350  -0.36126  -0.35973
 Alpha  occ. eigenvalues --   -0.35890  -0.35623  -0.35412  -0.35082  -0.35035
 Alpha  occ. eigenvalues --   -0.34667  -0.34651  -0.34390  -0.34147  -0.33574
 Alpha  occ. eigenvalues --   -0.33371  -0.33190  -0.33010  -0.32906  -0.32716
 Alpha  occ. eigenvalues --   -0.32028  -0.31939  -0.31673  -0.31484  -0.31150
 Alpha  occ. eigenvalues --   -0.30694  -0.30628  -0.30501  -0.30082  -0.29616
 Alpha  occ. eigenvalues --   -0.29610  -0.28837  -0.28556  -0.27947  -0.27797
 Alpha  occ. eigenvalues --   -0.27548  -0.26828  -0.26642  -0.26207  -0.25845
 Alpha  occ. eigenvalues --   -0.25533  -0.24627  -0.24158  -0.22245  -0.19473
 Alpha  occ. eigenvalues --   -0.18926
 Alpha virt. eigenvalues --   -0.09792  -0.08220  -0.04195  -0.02431  -0.00933
 Alpha virt. eigenvalues --    0.00267   0.00622   0.01815   0.02364   0.04097
 Alpha virt. eigenvalues --    0.04391   0.04607   0.04716   0.04866   0.05054

 Mulliken charges:
               1
     1  C    0.061773
     2  C   -0.031720
     3  C   -0.108493
     4  C   -0.071771
     5  N   -0.269447
     6  C   -0.048078
     7  C    0.013109
     8  C   -0.015929
     9  C    0.026545
    10  C    0.202831
    11  C    0.012309
    12  C   -0.008815
    13  C    0.180298
    14  O   -0.182492
    15  O   -0.322426
    16  N    0.027273
    17  C    0.010368
    18  C   -0.093597
    19  C    0.039796
    20  C    0.054987
    21  C    0.119257
    22  C   -0.029243
    23  C   -0.062539
    24  N   -0.237850
    25  C    0.049558
    26  C   -0.093118
    27  C   -0.050213
    28  C    0.064183
    29  C    0.115490
    30  C    0.003739
    31  C   -0.000965
    32  N   -0.047890
    33  C    0.110758
    34  C   -0.078093
    35  C   -0.040004
    36  C    0.065239
    37  C    0.117781
    38  C    0.052615
    39  O   -0.111729
    40  C   -0.010535
    41  C    0.160891
    42  O   -0.252057
    43  O   -0.300467
    44  C    0.222869
    45  C    0.215531
    46  C   -0.082978
    47  C   -0.214348
    48  C    0.156351
    49  C    0.044583
    50  C   -0.005942
    51  C    0.008291
    52  C   -0.082883
    53  C    0.114095
    54  C    0.011185
    55  C    0.054399
    56  C    0.052714
    57  C   -0.116863
    58  C    0.109189
    59  C    0.063935
    60  C   -0.045326
    61  C    0.189986
    62  C   -0.098620
    63  C    0.041383
    64  C   -0.015568
    65  H   -0.074084
    66  H    0.024363
    67  H   -0.043111
    68  H    0.011385
    69  H   -0.012848
    70  H   -0.012830
    71  H   -0.013857
    72  H    0.007243
    73  H    0.070992
    74  H    0.012752
    75  H   -0.008204
    76  H    0.059992
    77  H    0.025982
    78  H    0.031888
    79  H    0.006241
    80  H   -0.025405
    81  H    0.060026
    82  H    0.038786
    83  H   -0.038366
    84  H    0.007318
    85  H    0.020892
    86  H    0.007183
    87  H    0.005480
    88  H    0.013492
    89  H    0.022502
    90  H   -0.000226
    91  H    0.058972
    92  H    0.044399
    93  H   -0.029639
    94  H    0.003019
    95  H    0.007418
    96  H    0.017348
    97  H    0.036616
    98  H    0.000926
    99  H    0.048714
   100  H   -0.001916
   101  H    0.006678
   102  H    0.012416
   103  H    0.008566
   104  H    0.013002
   105  H    0.015215
   106  H    0.017099
   107  H    0.019943
   108  H    0.016933
   109  H    0.018222
   110  H   -0.017701
   111  H   -0.012453
   112  H   -0.028151
   113  H   -0.021612
   114  H   -0.012845
   115  H   -0.034090
   116  H    0.002180
   117  H    0.008248
   118  H   -0.015170
   119  H   -0.024693
   120  H   -0.034838
   121  H   -0.058898
   122  H    0.016525
   123  H   -0.010883
   124  H   -0.000865
   125  H    0.006631
   126  H   -0.017335
   127  H   -0.005491
   128  H   -0.042397
   129  H   -0.053309
   130  H   -0.000622
   131  H    0.001891
   132  H   -0.003193
   133  H   -0.021238
   134  H    0.022845
   135  H    0.017982
   136  H    0.016705
   137  H    0.045939
   138  H    0.122008
 Sum of Mulliken charges =   0.00000

 Dipole moment (field-independent basis, Debye):
    X=              3.0829    Y=              4.0586    Z=              0.2499  Tot=              5.1029
 Quadrupole moment (field-independent basis, Debye-Ang):
   XX=           -369.7982   YY=           -373.5184   ZZ=           -395.3783
   XY=            -23.6207   XZ=              4.0768   YZ=              3.6149

 Normal termination of Gaussian 09 at Wed Jul 24 14:52:29 2019.
