 Gaussian 09, Revision D.01,
 Gaussian 09:  ES64L-G09RevD.01 24-Apr-2013

 --------------------------
 # td=(NStates=1) B3LYP/SVP
 --------------------------

 --
 TD
 --
 Symbolic Z-matrix:
 Charge =  0 Multiplicity = 1

                         Standard orientation:
 ---------------------------------------------------------------------
 Center     Atomic      Atomic             Coordinates (Angstroms)
 Number     Number       Type             X           Y           Z
 ---------------------------------------------------------------------
      1          6           0       -5.107623   -1.853624    0.379621
      2          6           0       -4.682854    2.785457    1.104224
      3          6           0       -9.327549    3.333810   -0.194228
      4          6           0       -9.779885   -1.488633   -0.887467
      5          7           0       -5.169461    0.495822    0.543105
      6          6           0       -4.450380   -0.640629    0.670546
      7          6           0       -2.983785   -0.416768    1.116393
      8          6           0       -2.966371    1.089539    1.564943
      9          6           0       -4.325274    1.409408    1.118688
     10          6           0       -2.741093    1.290157    3.134053
     11          6           0       -2.078820   -0.912988   -0.064229
     12          6           0       -0.559531   -0.832232    0.542076
     13          6           0        0.460051   -1.327338   -0.557769
     14          8           0        0.093455   -1.694291   -1.637916
     15          8           0        1.742434   -1.021282   -0.231559
     16          7           0       -7.013852    2.812058    0.374155
     17          6           0       -5.833316    3.471908    0.811511
     18          6           0       -6.133992    4.837741    0.830957
     19          6           0       -7.506108    4.956381    0.441886
     20          6           0       -8.020771    3.654726    0.100166
     21          6           0       -5.388474    5.923161    1.411454
     22          6           0       -8.167086    6.267673    0.175161
     23          6           0       -9.109769    6.546930   -0.729102
     24          7           0       -9.282692    0.893969   -0.489561
     25          6           0       -9.949597    2.053643   -0.414950
     26          6           0      -11.359353    1.837765   -0.743450
     27          6           0      -11.479471    0.422703   -0.963210
     28          6           0      -10.138614   -0.070947   -0.675077
     29          6           0      -12.486007    2.796151   -0.757051
     30          6           0      -12.748802   -0.384324   -1.320165
     31          6           0      -13.012862   -0.537346   -2.833240
     32          7           0       -7.454007   -1.208860   -0.218911
     33          6           0       -8.564778   -1.951046   -0.540088
     34          6           0       -8.215321   -3.390357   -0.640460
     35          6           0       -6.814527   -3.381032   -0.182467
     36          6           0       -6.431789   -2.036403    0.013877
     37          6           0       -9.087794   -4.569791   -0.840535
     38          6           0       -5.710108   -4.295383    0.147058
     39          8           0       -5.744999   -5.444894    0.238107
     40          6           0       -4.469656   -3.355761    0.504737
     41          6           0       -3.853213   -3.659097    1.761955
     42          8           0       -4.130919   -3.162333    2.866824
     43          8           0       -2.941503   -4.674211    1.703625
     44          6           0       -2.366505   -5.136999    2.921644
     45          6           0        2.798568   -1.498446   -1.209755
     46          6           0        4.032070   -0.983442   -0.690894
     47          6           0        4.934382   -0.320542   -1.267245
     48          6           0        4.759266    0.363237   -2.604318
     49          6           0        6.282476    0.060430   -0.668135
     50          6           0        7.498012   -0.537597   -1.287280
     51          6           0        8.721602   -0.306106   -0.314105
     52          6           0       10.143131   -0.761837   -0.931104
     53          6           0       10.142779   -2.183430   -0.958393
     54          6           0       11.372772   -0.067211   -0.219498
     55          6           0       12.662316   -0.464222   -0.771807
     56          6           0       13.713194   -0.071673    0.206875
     57          6           0       15.213419   -0.184251   -0.372841
     58          6           0       15.623941   -1.690051   -0.421890
     59          6           0       16.245684    0.648023    0.435471
     60          6           0       17.733719    0.629789   -0.018727
     61          6           0       18.561996    1.637503    0.803594
     62          6           0       20.040169    1.757351    0.308657
     63          6           0       20.097567    2.540697   -0.959738
     64          6           0       20.876563    2.550499    1.371896
     65          1           0       -3.924311    3.368597    1.806772
     66          1           0      -10.081409    4.016899   -0.238217
     67          1           0      -10.640207   -2.144008   -1.175982
     68          1           0       -2.690106   -0.808847    1.960070
     69          1           0       -2.121688    1.489758    1.240146
     70          1           0       -1.823551    0.837816    3.176911
     71          1           0       -2.696025    2.256649    3.320175
     72          1           0       -3.470180    0.773953    3.808537
     73          1           0       -2.108377   -1.666521   -0.572554
     74          1           0       -2.101777    0.033976   -0.757857
     75          1           0       -0.359353    0.238368    0.903194
     76          1           0       -0.427328   -1.610336    1.364706
     77          1           0       -4.633949    6.261630    0.631788
     78          1           0       -6.065324    6.785601    1.492842
     79          1           0       -4.914716    5.726395    2.450206
     80          1           0       -7.896707    6.982148    0.814992
     81          1           0       -9.464878    5.856357   -1.467441
     82          1           0       -9.727211    7.586940   -0.771523
     83          1           0      -12.681305    3.114223    0.381216
     84          1           0      -12.317376    3.962140   -1.228882
     85          1           0      -13.513510    2.365397   -1.148010
     86          1           0      -12.705999   -1.331793   -0.654295
     87          1           0      -13.559187    0.011219   -0.815295
     88          1           0      -13.075714    0.614582   -3.280026
     89          1           0      -12.095461   -1.138053   -3.304726
     90          1           0      -13.865014   -1.119377   -2.994440
     91          1           0      -10.008501   -4.604012   -0.201407
     92          1           0       -9.516073   -4.583486   -1.703023
     93          1           0       -8.247290   -5.373752   -1.107406
     94          1           0       -3.935141   -3.536906   -0.416426
     95          1           0       -1.719089   -5.858249    2.914570
     96          1           0       -2.136602   -4.043336    3.516834
     97          1           0       -3.270649   -5.419715    3.387979
     98          1           0        2.909467   -2.565542   -0.998259
     99          1           0        2.419195   -1.309438   -2.219277
    100          1           0        4.205323   -1.291972    0.378938
    101          1           0        4.890888    1.561175   -2.656506
    102          1           0        5.479690    0.012405   -3.278798
    103          1           0        3.771963    0.127778   -3.000001
    104          1           0        6.286864    1.174598   -0.701810
    105          1           0        6.364234   -0.053007    0.488355
    106          1           0        7.169056   -1.616716   -1.325110
    107          1           0        7.810052   -0.162140   -2.270029
    108          1           0        8.646681    0.810187   -0.141102
    109          1           0        8.740019   -0.677230    0.803144
    110          1           0       10.143760   -0.143613   -1.953531
    111          1           0        9.304801   -2.497098   -1.657697
    112          1           0       11.126787   -2.866965   -1.341534
    113          1           0        9.984478   -2.667297    0.000803
    114          1           0       11.183604    0.936596   -0.425398
    115          1           0       11.270920   -0.218777    0.942673
    116          1           0       12.724684   -1.580583   -0.664597
    117          1           0       13.045693   -0.304367   -1.813976
    118          1           0       13.599840    1.069899    0.192999
    119          1           0       13.573282   -0.698454    1.131125
    120          1           0       15.116817    0.192191   -1.392848
    121          1           0       14.923382   -2.287865   -0.848474
    122          1           0       16.495495   -1.659038   -0.666815
    123          1           0       15.635243   -1.921033    0.798014
    124          1           0       15.797812    1.671712    0.483007
    125          1           0       16.348106    0.147754    1.671454
    126          1           0       18.209461   -0.382064    0.146061
    127          1           0       17.930941    0.755173   -1.102812
    128          1           0       18.145381    2.673962    0.967793
    129          1           0       18.623623    1.109522    1.771783
    130          1           0       20.573027    0.857828    0.259680
    131          1           0       19.711480    3.576563   -0.699746
    132          1           0       21.164369    2.747856   -1.328859
    133          1           0       19.495580    2.094622   -1.724556
    134          1           0       20.834691    2.244276    2.383673
    135          1           0       21.841140    2.526392    0.824438
    136          1           0       20.485424    3.484285    1.349030
    137          1           0       -6.761622    1.892641    0.409707
    138          1           0       -7.510893   -0.114366   -0.127892
 ---------------------------------------------------------------------

 SCF Done:  E(RB3LYP) =  -2732.95749750     A.U. after   17 cycles

 Excitation energies and oscillator strengths:

 Excited State   1:      Singlet-A      2.0477 eV  605.49 nm  f=0.1115  <S**2>=0.000
     235 -> 237       -0.18293
     235 -> 238       -0.31604
     236 -> 237        0.58112
     236 -> 238       -0.15520
 This state for optimization and/or second-order correction.
 Total Energy, E(TD-HF/TD-KS) =  -2732.88224693
 Copying the excited state density for this state as the 1-particle RhoCI density.

 The electronic state is 1-A.
 Alpha  occ. eigenvalues --  -19.17433 -19.16971 -19.13138 -19.12743 -19.11740
 Alpha  occ. eigenvalues --  -14.37019 -14.35595 -14.33239 -14.28684 -10.31583
 Alpha  occ. eigenvalues --  -10.31405 -10.28228 -10.25061 -10.23654 -10.23500
 Alpha  occ. eigenvalues --  -10.23499 -10.23183 -10.23104 -10.23043 -10.22728
 Alpha  occ. eigenvalues --  -10.22584 -10.21812 -10.21482 -10.21414 -10.20769
 Alpha  occ. eigenvalues --  -10.20519 -10.20488 -10.20410 -10.20210 -10.20149
 Alpha  occ. eigenvalues --  -10.20104 -10.20090 -10.20036 -10.19999 -10.19828
 Alpha  occ. eigenvalues --  -10.19812 -10.19785 -10.19753 -10.19633 -10.19553
 Alpha  occ. eigenvalues --  -10.19517 -10.19457 -10.19397 -10.19353 -10.19347
 Alpha  occ. eigenvalues --  -10.19335 -10.19303 -10.19214 -10.19187 -10.18868
 Alpha  occ. eigenvalues --  -10.18861 -10.18785 -10.18560 -10.18370 -10.18275
 Alpha  occ. eigenvalues --  -10.18234 -10.18223 -10.18198 -10.18008 -10.17933
 Alpha  occ. eigenvalues --  -10.17871 -10.17602 -10.16223 -10.16206  -1.08488
 Alpha  occ. eigenvalues --   -1.08419  -1.06924  -1.00557  -0.98640  -0.98442
 Alpha  occ. eigenvalues --   -0.98078  -0.95373  -0.94063  -0.84273  -0.83930
 Alpha  occ. eigenvalues --   -0.82393  -0.82084  -0.81771  -0.81131  -0.81045
 Alpha  occ. eigenvalues --   -0.80161  -0.79907  -0.78827  -0.78125  -0.78041
 Alpha  occ. eigenvalues --   -0.77474  -0.76184  -0.75978  -0.75594  -0.74081
 Alpha  occ. eigenvalues --   -0.73637  -0.73518  -0.72914  -0.72477  -0.71028
 Alpha  occ. eigenvalues --   -0.70600  -0.69727  -0.68951  -0.67754  -0.67525
 Alpha  occ. eigenvalues --   -0.67354  -0.66664  -0.66323  -0.65751  -0.65438
 Alpha  occ. eigenvalues --   -0.64460  -0.63485  -0.62434  -0.62088  -0.61196
 Alpha  occ. eigenvalues --   -0.61109  -0.59538  -0.58996  -0.57990  -0.57558
 Alpha  occ. eigenvalues --   -0.56502  -0.56422  -0.55876  -0.55734  -0.55479
 Alpha  occ. eigenvalues --   -0.55047  -0.55017  -0.54234  -0.53808  -0.53645
 Alpha  occ. eigenvalues --   -0.52990  -0.52742  -0.52023  -0.51134  -0.50451
 Alpha  occ. eigenvalues --   -0.50165  -0.49636  -0.49395  -0.48742  -0.48455
 Alpha  occ. eigenvalues --   -0.48434  -0.47854  -0.47568  -0.47474  -0.47289
 Alpha  occ. eigenvalues --   -0.47119  -0.47049  -0.46915  -0.46728  -0.46258
 Alpha  occ. eigenvalues --   -0.45985  -0.45465  -0.45321  -0.45164  -0.45012
 Alpha  occ. eigenvalues --   -0.44939  -0.44352  -0.44224  -0.44044  -0.43943
 Alpha  occ. eigenvalues --   -0.43627  -0.43533  -0.43221  -0.42920  -0.42890
 Alpha  occ. eigenvalues --   -0.42777  -0.42547  -0.42380  -0.42317  -0.41951
 Alpha  occ. eigenvalues --   -0.41755  -0.41445  -0.41198  -0.40995  -0.40570
 Alpha  occ. eigenvalues --   -0.40240  -0.40201  -0.39921  -0.39912  -0.39626
 Alpha  occ. eigenvalues --   -0.39332  -0.38883  -0.38815  -0.38555  -0.38386
 Alpha  occ. eigenvalues --   -0.38034  -0.37897  -0.37674  -0.37568  -0.37453
 Alpha  occ. eigenvalues --   -0.37267  -0.37225  -0.37187  -0.36830  -0.36761
 Alpha  occ. eigenvalues --   -0.36537  -0.36432  -0.36247  -0.35964  -0.35783
 Alpha  occ. eigenvalues --   -0.35574  -0.35545  -0.35367  -0.34610  -0.34386
 Alpha  occ. eigenvalues --   -0.34185  -0.34151  -0.34062  -0.33993  -0.33671
 Alpha  occ. eigenvalues --   -0.33460  -0.33454  -0.32817  -0.32618  -0.32346
 Alpha  occ. eigenvalues --   -0.32257  -0.32102  -0.31958  -0.31675  -0.31500
 Alpha  occ. eigenvalues --   -0.30836  -0.30315  -0.30214  -0.30053  -0.29600
 Alpha  occ. eigenvalues --   -0.29504  -0.28940  -0.28748  -0.28540  -0.28157
 Alpha  occ. eigenvalues --   -0.27995  -0.27410  -0.26398  -0.26148  -0.25748
 Alpha  occ. eigenvalues --   -0.25489  -0.25320  -0.23388  -0.21409  -0.19669
 Alpha  occ. eigenvalues --   -0.18677
 Alpha virt. eigenvalues --   -0.09871  -0.08152  -0.03989  -0.01366  -0.00886
 Alpha virt. eigenvalues --   -0.00147   0.00560   0.00767   0.02848   0.03761
 Alpha virt. eigenvalues --    0.03851   0.03909   0.04110   0.04783   0.04952

 Mulliken charges:
               1
     1  C   -0.042616
     2  C   -0.082464
     3  C   -0.014547
     4  C   -0.113213
     5  N   -0.195573
     6  C   -0.054392
     7  C    0.103847
     8  C   -0.069214
     9  C    0.027931
    10  C    0.144439
    11  C    0.166314
    12  C   -0.064546
    13  C    0.186546
    14  O   -0.227006
    15  O   -0.349080
    16  N   -0.009087
    17  C    0.036826
    18  C   -0.090244
    19  C   -0.010536
    20  C    0.179503
    21  C    0.088037
    22  C    0.036429
    23  C   -0.064353
    24  N   -0.176433
    25  C   -0.026684
    26  C   -0.074588
    27  C   -0.124137
    28  C    0.003706
    29  C   -0.051348
    30  C    0.057721
    31  C    0.001456
    32  N   -0.048855
    33  C    0.145612
    34  C   -0.171454
    35  C   -0.055544
    36  C    0.109569
    37  C    0.198762
    38  C    0.010218
    39  O   -0.091956
    40  C   -0.009102
    41  C    0.248826
    42  O   -0.266917
    43  O   -0.324787
    44  C    0.234007
    45  C    0.303376
    46  C   -0.103856
    47  C   -0.116044
    48  C    0.078404
    49  C    0.032277
    50  C    0.054069
    51  C   -0.061136
    52  C   -0.096711
    53  C    0.029024
    54  C    0.062771
    55  C    0.048532
    56  C   -0.010502
    57  C   -0.100745
    58  C    0.178068
    59  C   -0.019096
    60  C    0.027240
    61  C    0.020317
    62  C   -0.099028
    63  C    0.026828
    64  C    0.098227
    65  H   -0.001879
    66  H   -0.080969
    67  H   -0.003939
    68  H   -0.070422
    69  H   -0.050769
    70  H   -0.013852
    71  H   -0.022137
    72  H    0.037975
    73  H   -0.075431
    74  H    0.021057
    75  H    0.052377
    76  H    0.045020
    77  H    0.028373
    78  H   -0.002811
    79  H    0.046215
    80  H   -0.046258
    81  H    0.021065
    82  H    0.042019
    83  H    0.037045
    84  H    0.037591
    85  H    0.041706
    86  H   -0.001734
    87  H   -0.027972
    88  H    0.046778
    89  H    0.027888
    90  H    0.008303
    91  H    0.043614
    92  H   -0.051607
    93  H    0.053793
    94  H    0.047167
    95  H   -0.004583
    96  H    0.045980
    97  H    0.009060
    98  H    0.019005
    99  H    0.041183
   100  H   -0.004128
   101  H    0.037700
   102  H   -0.002436
   103  H   -0.002379
   104  H   -0.004746
   105  H    0.003434
   106  H    0.015707
   107  H    0.011567
   108  H   -0.006382
   109  H    0.013019
   110  H   -0.002419
   111  H    0.014049
   112  H    0.025121
   113  H    0.000449
   114  H   -0.029238
   115  H    0.005250
   116  H   -0.018954
   117  H    0.001165
   118  H   -0.009283
   119  H    0.012912
   120  H   -0.018065
   121  H   -0.008544
   122  H   -0.084085
   123  H   -0.003776
   124  H    0.006715
   125  H    0.008506
   126  H    0.005743
   127  H   -0.009763
   128  H    0.004162
   129  H   -0.009739
   130  H   -0.023464
   131  H    0.001315
   132  H    0.010959
   133  H    0.003777
   134  H   -0.003586
   135  H    0.002388
   136  H   -0.038702
   137  H    0.077892
   138  H    0.195915
 Sum of Mulliken charges =   0.00000

 Dipole moment (field-independent basis, Debye):
    X=              3.0655    Y=              2.4478    Z=              0.1392  Tot=              3.9253
 Quadrupole moment (field-independent basis, Debye-Ang):
   XX=           -365.0425   YY=           -384.9612   ZZ=           -396.3512
   XY=            -12.0955   XZ=             -0.9268   YZ=              5.5255

 Normal termination of Gaussian 09 at Fri Aug  2 00:55:24 2019.
