 Gaussian 09, Revision D.01,
 Gaussian 09:  ES64L-G09RevD.01 24-Apr-2013

 --------------------------
 # td=(NStates=1) B3LYP/SVP
 --------------------------

 --
 TD
 --
 Symbolic Z-matrix:
 Charge =  0 Multiplicity = 1

                         Standard orientation:
 ---------------------------------------------------------------------
 Center     Atomic      Atomic             Coordinates (Angstroms)
 Number     Number       Type             X           Y           Z
 ---------------------------------------------------------------------
      1          6           0       -5.062619   -1.956975    0.489938
      2          6           0       -4.787988    2.698094    1.479620
      3          6           0       -9.315990    3.341998   -0.209527
      4          6           0       -9.842540   -1.479115   -0.874734
      5          7           0       -5.131962    0.430827    0.867212
      6          6           0       -4.475747   -0.759324    0.847602
      7          6           0       -3.101443   -0.618165    1.248893
      8          6           0       -3.089838    0.902598    1.814514
      9          6           0       -4.351494    1.393892    1.385468
     10          6           0       -2.910006    0.893462    3.455023
     11          6           0       -2.058755   -0.718691    0.003561
     12          6           0       -0.606892   -0.809992    0.401718
     13          6           0        0.377071   -1.009263   -0.699750
     14          8           0        0.115214   -1.453772   -1.842981
     15          8           0        1.647602   -0.902918   -0.295766
     16          7           0       -7.060846    2.653049    0.557911
     17          6           0       -5.937574    3.271874    1.076250
     18          6           0       -6.225596    4.748442    0.921732
     19          6           0       -7.511432    4.943915    0.525101
     20          6           0       -8.051944    3.625385    0.300776
     21          6           0       -5.269338    5.782907    1.465236
     22          6           0       -8.115193    6.221501    0.205354
     23          6           0       -8.997341    6.580190   -0.683392
     24          7           0       -9.184907    0.887229   -0.421445
     25          6           0       -9.889408    2.095363   -0.528274
     26          6           0      -11.162978    1.933441   -0.962399
     27          6           0      -11.294448    0.560643   -1.158137
     28          6           0      -10.078035   -0.059421   -0.809067
     29          6           0      -12.245487    3.008965   -1.110634
     30          6           0      -12.600922   -0.263120   -1.622530
     31          6           0      -12.637909   -0.535170   -3.137029
     32          7           0       -7.483156   -1.311090   -0.069167
     33          6           0       -8.610190   -2.043005   -0.544076
     34          6           0       -8.192654   -3.390837   -0.607927
     35          6           0       -6.861528   -3.473914   -0.220917
     36          6           0       -6.436347   -2.092390    0.106098
     37          6           0       -9.096505   -4.510620   -1.120323
     38          6           0       -5.670731   -4.286852   -0.006827
     39          8           0       -5.542708   -5.496847   -0.186904
     40          6           0       -4.479363   -3.365213    0.465575
     41          6           0       -3.905226   -3.744130    1.748273
     42          8           0       -4.297185   -3.349007    2.856537
     43          8           0       -2.855891   -4.608555    1.567268
     44          6           0       -2.427795   -5.227592    2.822257
     45          6           0        2.765974   -1.128112   -1.238671
     46          6           0        4.041174   -0.732104   -0.663229
     47          6           0        4.939501   -0.011597   -1.148943
     48          6           0        4.855857    0.843272   -2.412190
     49          6           0        6.160228    0.265719   -0.338686
     50          6           0        7.519818   -0.440168   -0.939567
     51          6           0        8.681893   -0.158239   -0.199726
     52          6           0       10.047297   -0.697210   -0.856356
     53          6           0       10.009928   -2.207863   -1.131593
     54          6           0       11.284843   -0.314740    0.037677
     55          6           0       12.540448   -0.542014   -0.594864
     56          6           0       13.797879   -0.033181    0.276825
     57          6           0       15.191003   -0.256239   -0.312993
     58          6           0       15.568088   -1.737405   -0.514251
     59          6           0       16.201625    0.559310    0.502473
     60          6           0       17.468409    0.688752   -0.104262
     61          6           0       18.546883    1.567566    0.601514
     62          6           0       19.978362    1.700420    0.153226
     63          6           0       20.154879    2.491222   -1.191964
     64          6           0       21.017959    2.370116    1.219856
     65          1           0       -4.113581    3.358958    1.906765
     66          1           0       -9.898422    4.189403   -0.367413
     67          1           0      -10.560478   -2.132903   -1.049097
     68          1           0       -2.646966   -1.464845    1.919006
     69          1           0       -2.346756    1.691101    1.678483
     70          1           0       -2.053304    0.372771    3.660826
     71          1           0       -3.217233    1.873501    3.785051
     72          1           0       -3.708056    0.208220    4.073682
     73          1           0       -2.329417   -1.725303   -0.585037
     74          1           0       -2.344262    0.344125   -0.730869
     75          1           0       -0.043870    0.077670    0.992201
     76          1           0       -0.478014   -1.869670    0.953360
     77          1           0       -4.445565    5.970964    0.862831
     78          1           0       -5.804683    6.824189    1.564222
     79          1           0       -4.950518    5.474650    2.513391
     80          1           0       -7.903871    6.933215    0.858801
     81          1           0       -9.250641    5.807991   -1.431819
     82          1           0       -9.738016    7.423448   -0.574484
     83          1           0      -12.475060    3.673332   -0.163259
     84          1           0      -12.069875    3.826708   -1.834547
     85          1           0      -13.127166    2.711118   -1.653775
     86          1           0      -12.604825   -1.101390   -0.957677
     87          1           0      -13.690975    0.247213   -1.305432
     88          1           0      -12.522315    0.535243   -3.511494
     89          1           0      -11.892766   -1.094407   -3.541845
     90          1           0      -13.686203   -0.885238   -3.287777
     91          1           0      -10.035823   -4.678025   -0.366295
     92          1           0       -9.514731   -4.266533   -2.124909
     93          1           0       -8.538014   -5.568242   -0.891905
     94          1           0       -3.527162   -3.495917   -0.330684
     95          1           0       -1.671526   -6.003547    2.392585
     96          1           0       -1.962415   -4.486157    3.582152
     97          1           0       -3.371664   -5.569599    3.311515
     98          1           0        2.860784   -2.196572   -1.298657
     99          1           0        2.666520   -0.645497   -1.980032
    100          1           0        4.381446   -1.262917    0.171359
    101          1           0        5.044262    1.812406   -2.337759
    102          1           0        5.429361    0.424162   -3.212118
    103          1           0        3.810664    0.580109   -2.955440
    104          1           0        6.556175    1.294465   -0.450780
    105          1           0        5.833928   -0.270198    0.701066
    106          1           0        7.445107   -1.476729   -1.093544
    107          1           0        7.697128   -0.036430   -2.112700
    108          1           0        8.928737    1.047257   -0.059985
    109          1           0        8.682732   -0.439640    0.720318
    110          1           0       10.305925   -0.091546   -1.906791
    111          1           0        9.338560   -2.453424   -2.057365
    112          1           0       11.147872   -2.352706   -1.441198
    113          1           0        9.613167   -2.997177   -0.294153
    114          1           0       11.418521    0.707964    0.460752
    115          1           0       11.161671   -1.130628    1.016283
    116          1           0       12.720098   -1.727153   -0.603185
    117          1           0       12.510022    0.095757   -1.653904
    118          1           0       13.761503    1.137349    0.275853
    119          1           0       13.911743   -0.489846    1.252206
    120          1           0       15.264613    0.245663   -1.298881
    121          1           0       14.755359   -2.223569   -1.099842
    122          1           0       16.460437   -1.943935   -1.026675
    123          1           0       15.502061   -2.334482    0.513682
    124          1           0       15.726770    1.542072    0.757313
    125          1           0       16.249917   -0.167891    1.383088
    126          1           0       17.925579   -0.347087   -0.290384
    127          1           0       17.402308    1.173109   -1.324052
    128          1           0       18.140625    2.475565    0.755832
    129          1           0       18.388687    1.236405    1.858654
    130          1           0       20.288285    0.632124   -0.167727
    131          1           0       19.819675    3.518654   -1.153442
    132          1           0       21.146674    2.410974   -1.523675
    133          1           0       19.644269    2.274966   -1.987445
    134          1           0       21.093132    1.771448    2.224753
    135          1           0       22.006041    2.608762    0.664702
    136          1           0       20.597586    3.354319    1.599604
    137          1           0       -7.121942    1.742462    0.607499
    138          1           0       -7.589174   -0.150241    0.023075
 ---------------------------------------------------------------------

 SCF Done:  E(RB3LYP) =  -2732.93968050     A.U. after   17 cycles

 Excitation energies and oscillator strengths:

 Excited State   1:      Singlet-A      2.1016 eV  589.96 nm  f=0.1264  <S**2>=0.000
     235 -> 237       -0.17344
     235 -> 238        0.29021
     236 -> 237        0.59273
     236 -> 238        0.17178
 This state for optimization and/or second-order correction.
 Total Energy, E(TD-HF/TD-KS) =  -2732.86244903
 Copying the excited state density for this state as the 1-particle RhoCI density.

 The electronic state is 1-A.
 Alpha  occ. eigenvalues --  -19.18210 -19.17208 -19.12689 -19.11857 -19.10803
 Alpha  occ. eigenvalues --  -14.37105 -14.36478 -14.31825 -14.29336 -10.31629
 Alpha  occ. eigenvalues --  -10.31190 -10.28199 -10.25751 -10.24163 -10.23892
 Alpha  occ. eigenvalues --  -10.23760 -10.23106 -10.23095 -10.23027 -10.22812
 Alpha  occ. eigenvalues --  -10.22794 -10.22589 -10.22440 -10.21948 -10.21756
 Alpha  occ. eigenvalues --  -10.21743 -10.21313 -10.21085 -10.20978 -10.20690
 Alpha  occ. eigenvalues --  -10.20679 -10.20671 -10.20660 -10.20603 -10.20572
 Alpha  occ. eigenvalues --  -10.20558 -10.20371 -10.20247 -10.20182 -10.20143
 Alpha  occ. eigenvalues --  -10.20090 -10.20086 -10.19956 -10.19686 -10.19628
 Alpha  occ. eigenvalues --  -10.19461 -10.19430 -10.19397 -10.19380 -10.19286
 Alpha  occ. eigenvalues --  -10.19268 -10.19264 -10.19049 -10.18879 -10.18702
 Alpha  occ. eigenvalues --  -10.18518 -10.18378 -10.18213 -10.18075 -10.17985
 Alpha  occ. eigenvalues --  -10.17966 -10.17786 -10.17010 -10.15970  -1.08402
 Alpha  occ. eigenvalues --   -1.08020  -1.01582  -0.99542  -0.97981  -0.97576
 Alpha  occ. eigenvalues --   -0.97427  -0.95419  -0.93171  -0.84681  -0.84537
 Alpha  occ. eigenvalues --   -0.83500  -0.82838  -0.81680  -0.81341  -0.80470
 Alpha  occ. eigenvalues --   -0.80027  -0.79567  -0.79307  -0.78307  -0.77808
 Alpha  occ. eigenvalues --   -0.77395  -0.77188  -0.76366  -0.75506  -0.74695
 Alpha  occ. eigenvalues --   -0.74136  -0.73645  -0.72968  -0.71597  -0.71387
 Alpha  occ. eigenvalues --   -0.70296  -0.69570  -0.68795  -0.68345  -0.68090
 Alpha  occ. eigenvalues --   -0.67538  -0.67252  -0.66249  -0.66232  -0.65732
 Alpha  occ. eigenvalues --   -0.65383  -0.63978  -0.62651  -0.61862  -0.61262
 Alpha  occ. eigenvalues --   -0.60588  -0.59083  -0.58682  -0.58578  -0.58145
 Alpha  occ. eigenvalues --   -0.56670  -0.56521  -0.56240  -0.55900  -0.55278
 Alpha  occ. eigenvalues --   -0.54806  -0.54451  -0.53894  -0.53812  -0.53391
 Alpha  occ. eigenvalues --   -0.53346  -0.51908  -0.51725  -0.50895  -0.50212
 Alpha  occ. eigenvalues --   -0.49875  -0.49360  -0.49259  -0.48971  -0.48886
 Alpha  occ. eigenvalues --   -0.48224  -0.47879  -0.47594  -0.47373  -0.46995
 Alpha  occ. eigenvalues --   -0.46820  -0.46457  -0.46141  -0.45809  -0.45704
 Alpha  occ. eigenvalues --   -0.45614  -0.45367  -0.45284  -0.45046  -0.44975
 Alpha  occ. eigenvalues --   -0.44776  -0.44680  -0.44308  -0.44172  -0.43748
 Alpha  occ. eigenvalues --   -0.43645  -0.43524  -0.43189  -0.43097  -0.42797
 Alpha  occ. eigenvalues --   -0.42446  -0.42221  -0.42152  -0.41718  -0.41612
 Alpha  occ. eigenvalues --   -0.41440  -0.41148  -0.41070  -0.40619  -0.40516
 Alpha  occ. eigenvalues --   -0.40106  -0.39840  -0.39669  -0.39506  -0.39326
 Alpha  occ. eigenvalues --   -0.39067  -0.38796  -0.38755  -0.38691  -0.38509
 Alpha  occ. eigenvalues --   -0.38206  -0.38019  -0.37894  -0.37488  -0.37402
 Alpha  occ. eigenvalues --   -0.36958  -0.36841  -0.36721  -0.36682  -0.36457
 Alpha  occ. eigenvalues --   -0.36424  -0.36329  -0.36254  -0.36236  -0.35919
 Alpha  occ. eigenvalues --   -0.35879  -0.35769  -0.35299  -0.35239  -0.34989
 Alpha  occ. eigenvalues --   -0.34542  -0.34364  -0.33984  -0.33927  -0.33883
 Alpha  occ. eigenvalues --   -0.33290  -0.33168  -0.32579  -0.32363  -0.32173
 Alpha  occ. eigenvalues --   -0.32115  -0.32078  -0.31759  -0.31496  -0.31375
 Alpha  occ. eigenvalues --   -0.30984  -0.30897  -0.30544  -0.30297  -0.29763
 Alpha  occ. eigenvalues --   -0.29523  -0.29223  -0.28236  -0.28066  -0.27913
 Alpha  occ. eigenvalues --   -0.27318  -0.26673  -0.26538  -0.26263  -0.26059
 Alpha  occ. eigenvalues --   -0.25564  -0.25055  -0.25006  -0.22000  -0.20161
 Alpha  occ. eigenvalues --   -0.19049
 Alpha virt. eigenvalues --   -0.10144  -0.08329  -0.04484  -0.02367  -0.01201
 Alpha virt. eigenvalues --   -0.00693   0.00168   0.00690   0.01520   0.03134
 Alpha virt. eigenvalues --    0.03897   0.03915   0.04257   0.04350   0.04609

 Mulliken charges:
               1
     1  C    0.047743
     2  C   -0.037863
     3  C   -0.077508
     4  C   -0.017568
     5  N   -0.169857
     6  C    0.004629
     7  C   -0.077870
     8  C   -0.017617
     9  C    0.027781
    10  C    0.036590
    11  C   -0.052373
    12  C   -0.003736
    13  C    0.177612
    14  O   -0.285949
    15  O   -0.348579
    16  N    0.009585
    17  C    0.096746
    18  C   -0.134346
    19  C    0.078280
    20  C    0.112153
    21  C    0.084460
    22  C   -0.013357
    23  C   -0.041390
    24  N   -0.284749
    25  C    0.100228
    26  C   -0.098439
    27  C   -0.113336
    28  C    0.101846
    29  C    0.088259
    30  C   -0.011426
    31  C    0.062557
    32  N   -0.112421
    33  C    0.099542
    34  C   -0.152652
    35  C    0.047688
    36  C    0.014917
    37  C    0.008624
    38  C    0.070424
    39  O   -0.183422
    40  C   -0.075433
    41  C    0.210425
    42  O   -0.252638
    43  O   -0.321900
    44  C    0.140577
    45  C    0.609494
    46  C   -0.169194
    47  C   -0.114575
    48  C    0.117316
    49  C    0.062073
    50  C   -0.015222
    51  C    0.126756
    52  C   -0.115738
    53  C   -0.061015
    54  C   -0.010934
    55  C   -0.026119
    56  C    0.015801
    57  C   -0.091544
    58  C    0.026830
    59  C    0.057932
    60  C   -0.036215
    61  C    0.042472
    62  C   -0.057640
    63  C    0.102892
    64  C   -0.022318
    65  H   -0.077907
    66  H   -0.075586
    67  H   -0.089107
    68  H    0.036151
    69  H   -0.000444
    70  H    0.010457
    71  H    0.015911
    72  H    0.026155
    73  H    0.052449
    74  H    0.043833
    75  H    0.058212
    76  H    0.064048
    77  H    0.010476
    78  H    0.022588
    79  H    0.043773
    80  H   -0.044124
    81  H    0.027765
    82  H    0.040899
    83  H    0.032794
    84  H   -0.006406
    85  H   -0.003204
    86  H   -0.001259
    87  H    0.016028
    88  H    0.016839
    89  H   -0.002104
    90  H    0.020408
    91  H    0.040816
    92  H    0.051911
    93  H    0.068444
    94  H    0.094190
    95  H    0.061627
    96  H    0.043728
    97  H    0.048913
    98  H    0.007476
    99  H   -0.145416
   100  H   -0.048491
   101  H   -0.000570
   102  H    0.008559
   103  H    0.007296
   104  H    0.007928
   105  H    0.024780
   106  H   -0.019074
   107  H    0.005311
   108  H   -0.010393
   109  H   -0.064231
   110  H    0.009684
   111  H    0.032412
   112  H    0.029506
   113  H    0.041156
   114  H    0.002407
   115  H    0.002366
   116  H    0.039159
   117  H    0.021765
   118  H    0.007861
   119  H   -0.005947
   120  H   -0.027450
   121  H    0.006609
   122  H    0.008808
   123  H    0.007621
   124  H   -0.002891
   125  H   -0.002030
   126  H    0.005163
   127  H   -0.001288
   128  H   -0.046664
   129  H   -0.018147
   130  H    0.004174
   131  H   -0.015168
   132  H   -0.008073
   133  H   -0.052723
   134  H    0.030778
   135  H    0.032797
   136  H    0.014812
   137  H    0.052938
   138  H    0.231631
 Sum of Mulliken charges =   0.00000

 Dipole moment (field-independent basis, Debye):
    X=              3.2162    Y=              4.7957    Z=              1.4148  Tot=              5.9451
 Quadrupole moment (field-independent basis, Debye-Ang):
   XX=           -362.2108   YY=           -381.7007   ZZ=           -398.9086
   XY=            -26.4280   XZ=             -2.4818   YZ=             -2.4234

 Normal termination of Gaussian 09 at Sat Aug  3 10:52:42 2019.
