 Gaussian 09, Revision D.01,
 Gaussian 09:  ES64L-G09RevD.01 24-Apr-2013

 --------------------------
 # td=(NStates=1) B3LYP/SVP
 --------------------------

 --
 TD
 --
 Symbolic Z-matrix:
 Charge =  0 Multiplicity = 1

                         Standard orientation:
 ---------------------------------------------------------------------
 Center     Atomic      Atomic             Coordinates (Angstroms)
 Number     Number       Type             X           Y           Z
 ---------------------------------------------------------------------
      1          6           0       -5.144151   -1.981793    0.498370
      2          6           0       -4.521208    2.723960    1.206921
      3          6           0       -9.196399    3.401538   -0.205572
      4          6           0       -9.826641   -1.243909   -0.869896
      5          7           0       -5.129158    0.400766    0.841838
      6          6           0       -4.464176   -0.897903    0.876767
      7          6           0       -3.054535   -0.670237    1.257539
      8          6           0       -2.965433    0.743096    1.678500
      9          6           0       -4.271616    1.298812    1.225434
     10          6           0       -2.925990    0.880739    3.291857
     11          6           0       -2.040998   -0.973230    0.054984
     12          6           0       -0.594770   -0.774795    0.591451
     13          6           0        0.358798   -0.998486   -0.674853
     14          8           0       -0.048665   -1.321614   -1.753185
     15          8           0        1.588054   -0.732818   -0.332710
     16          7           0       -7.042192    2.767730    0.585327
     17          6           0       -5.783646    3.391569    0.918129
     18          6           0       -6.020772    4.782369    1.067844
     19          6           0       -7.390569    5.007576    0.591767
     20          6           0       -7.977100    3.685549    0.324398
     21          6           0       -5.109576    5.896116    1.503935
     22          6           0       -8.084292    6.263693    0.471259
     23          6           0       -8.911238    6.658858   -0.418424
     24          7           0       -9.125104    0.965620   -0.424910
     25          6           0       -9.829846    2.227807   -0.473252
     26          6           0      -11.264062    1.989372   -0.887521
     27          6           0      -11.438927    0.622050   -1.087776
     28          6           0      -10.104908    0.077083   -0.772823
     29          6           0      -12.188948    3.144985   -0.979548
     30          6           0      -12.590647    0.037009   -1.630494
     31          6           0      -12.441285   -0.458554   -3.228819
     32          7           0       -7.447374   -1.286712   -0.256614
     33          6           0       -8.568885   -1.913398   -0.678229
     34          6           0       -8.304619   -3.240286   -0.677707
     35          6           0       -6.918396   -3.330413   -0.224171
     36          6           0       -6.474498   -2.097857   -0.044489
     37          6           0       -9.228498   -4.465519   -1.073829
     38          6           0       -5.856634   -4.384563    0.145270
     39          8           0       -5.866187   -5.607626    0.149799
     40          6           0       -4.634244   -3.402531    0.517604
     41          6           0       -4.027711   -3.904807    1.816218
     42          8           0       -4.255826   -3.407221    2.869943
     43          8           0       -3.242281   -4.884023    1.522438
     44          6           0       -2.573273   -5.676825    2.603879
     45          6           0        2.684162   -1.010677   -1.307785
     46          6           0        3.867323   -0.741653   -0.756173
     47          6           0        4.956209   -0.104515   -1.277047
     48          6           0        4.846277    0.598501   -2.660932
     49          6           0        6.204205   -0.038949   -0.503955
     50          6           0        7.451657   -0.614401   -1.095887
     51          6           0        8.709847   -0.291328   -0.283007
     52          6           0       10.106014   -0.846027   -0.898008
     53          6           0       10.084558   -2.368825   -0.961057
     54          6           0       11.172707   -0.355434    0.023219
     55          6           0       12.651935   -0.616969   -0.573138
     56          6           0       13.890741    0.069617    0.227621
     57          6           0       15.223766   -0.128099   -0.310923
     58          6           0       15.597461   -1.671271   -0.296777
     59          6           0       16.219245    0.729173    0.395388
     60          6           0       17.594992    0.861657   -0.115766
     61          6           0       18.459863    1.729195    0.645105
     62          6           0       19.981317    1.728787    0.247785
     63          6           0       20.357300    2.176717   -1.160840
     64          6           0       20.786666    2.505902    1.284916
     65          1           0       -3.613501    3.196721    1.747159
     66          1           0       -9.958290    4.154494   -0.074967
     67          1           0      -10.769830   -1.762590   -1.053885
     68          1           0       -2.633788   -1.484566    2.087555
     69          1           0       -2.110077    1.376819    1.279087
     70          1           0       -1.938686    0.154983    3.651246
     71          1           0       -2.737681    2.104462    3.600021
     72          1           0       -3.820092    0.539090    3.697699
     73          1           0       -2.295788   -1.909174   -0.355241
     74          1           0       -2.536832   -0.269390   -0.609933
     75          1           0       -0.431274    0.181683    0.945906
     76          1           0       -0.287547   -1.586906    1.290206
     77          1           0       -4.202422    5.601679    1.227118
     78          1           0       -5.294069    6.916978    1.359038
     79          1           0       -4.795419    5.657570    2.490875
     80          1           0       -7.771465    6.977694    1.438669
     81          1           0       -9.011290    6.086769   -1.330138
     82          1           0       -9.269213    7.636978   -0.651151
     83          1           0      -12.353673    3.698298    0.040588
     84          1           0      -11.976528    3.991896   -1.686590
     85          1           0      -13.107594    2.703689   -1.544328
     86          1           0      -12.670493   -1.041318   -1.175953
     87          1           0      -13.477864    0.686843   -1.516502
     88          1           0      -12.279488    0.427773   -3.773141
     89          1           0      -11.517063   -1.146944   -3.382928
     90          1           0      -13.425605   -0.723654   -3.634167
     91          1           0      -10.026543   -4.515772   -0.231689
     92          1           0       -9.564272   -4.381576   -2.150392
     93          1           0       -8.713256   -5.266497   -1.138121
     94          1           0       -4.072842   -3.609133   -0.310293
     95          1           0       -1.827665   -6.452097    2.342765
     96          1           0       -2.240026   -5.118069    3.489209
     97          1           0       -3.477356   -6.195770    3.190609
     98          1           0        2.373529   -2.051171   -1.560759
     99          1           0        2.532627   -0.407614   -2.138223
    100          1           0        4.045003   -1.152530    0.375604
    101          1           0        5.485294    1.628417   -2.767969
    102          1           0        5.441451   -0.063387   -3.272574
    103          1           0        3.825524    0.883364   -3.054543
    104          1           0        6.326302    1.069997   -0.403686
    105          1           0        6.110837   -0.226123    0.613229
    106          1           0        7.194252   -1.684838   -1.348166
    107          1           0        7.550195   -0.204099   -2.210390
    108          1           0        8.963793    0.916645   -0.108112
    109          1           0        8.466539   -0.728733    0.714213
    110          1           0       10.076797   -0.551465   -1.992769
    111          1           0        9.208435   -2.934414   -1.300837
    112          1           0       11.050146   -2.808148   -1.324384
    113          1           0       10.079513   -2.694656    0.125932
    114          1           0       11.228134    0.747989    0.242108
    115          1           0       11.390011   -0.881606    1.076400
    116          1           0       12.693748   -1.802028   -0.612266
    117          1           0       12.757996    0.029477   -1.660172
    118          1           0       13.676392    1.279810    0.091372
    119          1           0       13.861923   -0.083271    1.217322
    120          1           0       14.990608    0.334633   -1.468404
    121          1           0       15.129353   -2.252078   -0.928539
    122          1           0       16.790567   -1.691390   -0.624702
    123          1           0       15.624711   -2.300788    0.521525
    124          1           0       15.817871    1.755260    0.489328
    125          1           0       16.204744    0.336829    1.483085
    126          1           0       18.120015   -0.304213    0.026540
    127          1           0       17.801349    0.850706   -1.310514
    128          1           0       18.050154    2.780659    0.479214
    129          1           0       18.175166    1.583660    1.751090
    130          1           0       20.510851    0.728566    0.540562
    131          1           0       20.050010    3.163552   -1.239665
    132          1           0       21.412084    1.899728   -1.429767
    133          1           0       19.690394    1.753639   -2.016087
    134          1           0       20.578742    2.069273    2.363046
    135          1           0       21.907299    2.571799    1.105269
    136          1           0       20.496118    3.692007    1.266244
    137          1           0       -7.100740    1.922970    0.395605
    138          1           0       -7.433467   -0.283649   -0.258008
 ---------------------------------------------------------------------

 SCF Done:  E(RB3LYP) =  -2732.95970774     A.U. after   18 cycles

 Excitation energies and oscillator strengths:

 Excited State   1:      Singlet-A      2.0864 eV  594.25 nm  f=0.1952  <S**2>=0.000
     235 -> 237       -0.27819
     235 -> 238       -0.18182
     236 -> 237        0.60324
     236 -> 238       -0.15322
 This state for optimization and/or second-order correction.
 Total Energy, E(TD-HF/TD-KS) =  -2732.88303465
 Copying the excited state density for this state as the 1-particle RhoCI density.

 The electronic state is 1-A.
 Alpha  occ. eigenvalues --  -19.18423 -19.17175 -19.12297 -19.11543 -19.11136
 Alpha  occ. eigenvalues --  -14.35565 -14.35515 -14.31401 -14.29861 -10.30560
 Alpha  occ. eigenvalues --  -10.30543 -10.27952 -10.26212 -10.25024 -10.23879
 Alpha  occ. eigenvalues --  -10.23449 -10.22126 -10.21710 -10.21689 -10.21667
 Alpha  occ. eigenvalues --  -10.21519 -10.21406 -10.21405 -10.21291 -10.21283
 Alpha  occ. eigenvalues --  -10.21227 -10.20966 -10.20880 -10.20777 -10.20723
 Alpha  occ. eigenvalues --  -10.20654 -10.20538 -10.20512 -10.20478 -10.20420
 Alpha  occ. eigenvalues --  -10.20387 -10.20240 -10.20126 -10.20114 -10.20011
 Alpha  occ. eigenvalues --  -10.20007 -10.19746 -10.19735 -10.19674 -10.19657
 Alpha  occ. eigenvalues --  -10.19564 -10.19502 -10.19272 -10.19257 -10.19248
 Alpha  occ. eigenvalues --  -10.19213 -10.19061 -10.18804 -10.18799 -10.18618
 Alpha  occ. eigenvalues --  -10.18611 -10.18610 -10.18586 -10.18546 -10.18526
 Alpha  occ. eigenvalues --  -10.18353 -10.18177 -10.17362 -10.17298  -1.10199
 Alpha  occ. eigenvalues --   -1.09561  -1.01709  -1.01048  -1.00651  -1.00646
 Alpha  occ. eigenvalues --   -0.98250  -0.93890  -0.91500  -0.84419  -0.84142
 Alpha  occ. eigenvalues --   -0.82881  -0.82345  -0.81462  -0.81104  -0.80411
 Alpha  occ. eigenvalues --   -0.80186  -0.79854  -0.79197  -0.78909  -0.78702
 Alpha  occ. eigenvalues --   -0.76856  -0.76000  -0.75848  -0.75068  -0.74463
 Alpha  occ. eigenvalues --   -0.73545  -0.73234  -0.72869  -0.72127  -0.71432
 Alpha  occ. eigenvalues --   -0.69855  -0.69585  -0.68602  -0.68389  -0.68155
 Alpha  occ. eigenvalues --   -0.67658  -0.67392  -0.66690  -0.66401  -0.65084
 Alpha  occ. eigenvalues --   -0.63879  -0.63066  -0.62580  -0.62275  -0.61735
 Alpha  occ. eigenvalues --   -0.60934  -0.58490  -0.57921  -0.57547  -0.57138
 Alpha  occ. eigenvalues --   -0.56655  -0.56521  -0.56267  -0.55519  -0.55270
 Alpha  occ. eigenvalues --   -0.54961  -0.54628  -0.54342  -0.53857  -0.53674
 Alpha  occ. eigenvalues --   -0.52548  -0.51713  -0.51163  -0.51055  -0.50710
 Alpha  occ. eigenvalues --   -0.50411  -0.49510  -0.48757  -0.48503  -0.48345
 Alpha  occ. eigenvalues --   -0.47933  -0.47839  -0.47411  -0.47193  -0.47178
 Alpha  occ. eigenvalues --   -0.46998  -0.46559  -0.45740  -0.45662  -0.45587
 Alpha  occ. eigenvalues --   -0.45550  -0.45124  -0.44992  -0.44780  -0.44616
 Alpha  occ. eigenvalues --   -0.44137  -0.44079  -0.44047  -0.43694  -0.43595
 Alpha  occ. eigenvalues --   -0.43384  -0.43196  -0.42739  -0.42694  -0.42515
 Alpha  occ. eigenvalues --   -0.42458  -0.42258  -0.42069  -0.41888  -0.41637
 Alpha  occ. eigenvalues --   -0.41561  -0.41354  -0.41113  -0.40480  -0.40078
 Alpha  occ. eigenvalues --   -0.39920  -0.39797  -0.39584  -0.39452  -0.39416
 Alpha  occ. eigenvalues --   -0.39302  -0.38873  -0.38718  -0.38679  -0.38485
 Alpha  occ. eigenvalues --   -0.38264  -0.38094  -0.37896  -0.37774  -0.37711
 Alpha  occ. eigenvalues --   -0.37325  -0.37177  -0.36840  -0.36790  -0.36616
 Alpha  occ. eigenvalues --   -0.36425  -0.36187  -0.35762  -0.35589  -0.35576
 Alpha  occ. eigenvalues --   -0.35548  -0.35390  -0.35070  -0.34633  -0.34522
 Alpha  occ. eigenvalues --   -0.34091  -0.34034  -0.33965  -0.33888  -0.33856
 Alpha  occ. eigenvalues --   -0.33640  -0.33374  -0.33285  -0.33045  -0.32750
 Alpha  occ. eigenvalues --   -0.32170  -0.32029  -0.31487  -0.31231  -0.30958
 Alpha  occ. eigenvalues --   -0.30868  -0.30752  -0.30654  -0.30318  -0.29916
 Alpha  occ. eigenvalues --   -0.29712  -0.29195  -0.27864  -0.27543  -0.27378
 Alpha  occ. eigenvalues --   -0.27194  -0.27018  -0.26351  -0.26042  -0.24783
 Alpha  occ. eigenvalues --   -0.24556  -0.24231  -0.23629  -0.22180  -0.19887
 Alpha  occ. eigenvalues --   -0.18484
 Alpha virt. eigenvalues --   -0.10484  -0.06601  -0.03333  -0.01747  -0.00718
 Alpha virt. eigenvalues --    0.00710   0.02091   0.02420   0.02727   0.02787
 Alpha virt. eigenvalues --    0.03296   0.03953   0.04013   0.04188   0.04586

 Mulliken charges:
               1
     1  C    0.075500
     2  C   -0.070123
     3  C   -0.052619
     4  C   -0.076105
     5  N   -0.185403
     6  C   -0.064806
     7  C   -0.078878
     8  C   -0.038150
     9  C   -0.077535
    10  C   -0.010911
    11  C    0.077302
    12  C    0.083655
    13  C    0.138679
    14  O   -0.232793
    15  O   -0.313073
    16  N    0.058345
    17  C    0.143589
    18  C   -0.171261
    19  C   -0.020079
    20  C    0.097939
    21  C    0.304241
    22  C   -0.060613
    23  C   -0.023474
    24  N   -0.291377
    25  C    0.026813
    26  C   -0.082240
    27  C   -0.018854
    28  C    0.054428
    29  C    0.021917
    30  C   -0.030870
    31  C   -0.001585
    32  N    0.102378
    33  C    0.079062
    34  C   -0.191768
    35  C   -0.079987
    36  C    0.023500
    37  C    0.186691
    38  C    0.083853
    39  O   -0.170844
    40  C   -0.049973
    41  C    0.181403
    42  O   -0.203707
    43  O   -0.272430
    44  C    0.150456
    45  C    0.375912
    46  C   -0.152312
    47  C   -0.128278
    48  C    0.013421
    49  C    0.076860
    50  C   -0.010433
    51  C   -0.021659
    52  C   -0.014470
    53  C   -0.001447
    54  C   -0.001905
    55  C   -0.084160
    56  C    0.031442
    57  C   -0.055426
    58  C    0.073763
    59  C    0.039599
    60  C   -0.033242
    61  C    0.033235
    62  C   -0.081489
    63  C    0.050475
    64  C   -0.049088
    65  H   -0.002530
    66  H   -0.017192
    67  H   -0.038839
    68  H    0.031011
    69  H    0.015773
    70  H    0.041701
    71  H    0.031528
    72  H    0.031419
    73  H   -0.005066
    74  H    0.002799
    75  H    0.005117
    76  H    0.033064
    77  H   -0.055393
    78  H    0.021821
    79  H   -0.024695
    80  H    0.031375
    81  H    0.017635
    82  H    0.014910
    83  H    0.053285
    84  H    0.024027
    85  H    0.009991
    86  H    0.024358
    87  H    0.020210
    88  H   -0.007717
    89  H    0.046692
    90  H    0.017415
    91  H    0.047157
    92  H    0.021642
    93  H   -0.042828
    94  H    0.023853
    95  H    0.062769
    96  H    0.035449
    97  H    0.041415
    98  H    0.025624
    99  H   -0.026833
   100  H    0.010186
   101  H    0.030024
   102  H    0.029967
   103  H    0.053158
   104  H   -0.004425
   105  H    0.000926
   106  H    0.014030
   107  H   -0.001023
   108  H    0.026947
   109  H    0.004961
   110  H    0.014766
   111  H    0.014881
   112  H    0.023273
   113  H   -0.011377
   114  H    0.004639
   115  H    0.026518
   116  H    0.032821
   117  H    0.018172
   118  H   -0.001571
   119  H   -0.049379
   120  H    0.003204
   121  H   -0.032948
   122  H    0.007318
   123  H   -0.014079
   124  H   -0.017605
   125  H    0.002685
   126  H   -0.008321
   127  H    0.021278
   128  H   -0.011250
   129  H    0.001503
   130  H    0.007915
   131  H   -0.010939
   132  H    0.031018
   133  H    0.008106
   134  H    0.027729
   135  H    0.017519
   136  H    0.001455
   137  H    0.008104
   138  H    0.127782
 Sum of Mulliken charges =   0.00000

 Dipole moment (field-independent basis, Debye):
    X=              4.7737    Y=              4.0649    Z=             -0.0461  Tot=              6.2700
 Quadrupole moment (field-independent basis, Debye-Ang):
   XX=           -356.2359   YY=           -379.4087   ZZ=           -394.8749
   XY=            -34.5856   XZ=             16.8462   YZ=             -4.7145

 Normal termination of Gaussian 09 at Sun Jul 28 21:51:29 2019.
