 Gaussian 09, Revision D.01,
 Gaussian 09:  ES64L-G09RevD.01 24-Apr-2013

 --------------------------
 # td=(NStates=1) B3LYP/SVP
 --------------------------

 --
 TD
 --
 Symbolic Z-matrix:
 Charge =  0 Multiplicity = 1

                         Standard orientation:
 ---------------------------------------------------------------------
 Center     Atomic      Atomic             Coordinates (Angstroms)
 Number     Number       Type             X           Y           Z
 ---------------------------------------------------------------------
      1          6           0       -5.087656   -1.958907    0.430046
      2          6           0       -4.788707    2.703429    1.418424
      3          6           0       -9.304306    3.377150   -0.206719
      4          6           0       -9.931921   -1.503327   -0.732792
      5          7           0       -5.256036    0.400197    0.770174
      6          6           0       -4.602220   -0.682167    0.725738
      7          6           0       -3.058263   -0.543387    1.158370
      8          6           0       -3.118026    0.798164    1.656072
      9          6           0       -4.405797    1.374256    1.154514
     10          6           0       -2.958039    1.027217    3.237205
     11          6           0       -2.020305   -0.813177    0.035836
     12          6           0       -0.611887   -0.820849    0.488449
     13          6           0        0.345721   -1.027777   -0.728170
     14          8           0        0.050754   -1.206318   -1.926861
     15          8           0        1.646861   -0.907829   -0.274277
     16          7           0       -7.066245    2.796994    0.374038
     17          6           0       -5.952492    3.349670    0.896281
     18          6           0       -6.255901    4.753309    1.120214
     19          6           0       -7.607773    4.957545    0.566349
     20          6           0       -8.042672    3.688515    0.265825
     21          6           0       -5.405374    5.947281    1.512476
     22          6           0       -8.176165    6.177602    0.476952
     23          6           0       -9.072945    6.733676   -0.554831
     24          7           0       -9.295899    0.828359   -0.418816
     25          6           0       -9.847624    2.031363   -0.590919
     26          6           0      -11.280910    1.795625   -0.917378
     27          6           0      -11.492230    0.495124   -1.079735
     28          6           0      -10.133055   -0.120110   -0.728514
     29          6           0      -12.292199    2.831451   -1.134849
     30          6           0      -12.668534   -0.266169   -1.467315
     31          6           0      -12.767376   -0.571104   -3.012658
     32          7           0       -7.480529   -1.282396   -0.157507
     33          6           0       -8.640635   -2.043391   -0.558193
     34          6           0       -8.180682   -3.431483   -0.524541
     35          6           0       -6.770679   -3.455491   -0.132432
     36          6           0       -6.408279   -2.087375   -0.002429
     37          6           0       -9.075910   -4.517212   -0.787942
     38          6           0       -5.714148   -4.332703    0.061150
     39          8           0       -5.660172   -5.471357    0.004251
     40          6           0       -4.460761   -3.333238    0.366193
     41          6           0       -3.799086   -3.835195    1.708214
     42          8           0       -4.010454   -3.422924    2.763304
     43          8           0       -2.899577   -4.841219    1.425410
     44          6           0       -2.298463   -5.498962    2.576090
     45          6           0        2.592769   -0.819111   -1.376959
     46          6           0        3.931387   -0.678953   -0.660064
     47          6           0        4.978335    0.078522   -1.088554
     48          6           0        4.822422    0.843175   -2.392018
     49          6           0        6.256524    0.193881   -0.249176
     50          6           0        7.547582   -0.297849   -0.818269
     51          6           0        8.799399   -0.118857   -0.099184
     52          6           0       10.086135   -0.662551   -0.752874
     53          6           0        9.966030   -2.181010   -0.916256
     54          6           0       11.382258   -0.135225    0.048432
     55          6           0       12.645389   -0.463342   -0.553017
     56          6           0       13.830105    0.011983    0.265482
     57          6           0       15.260937   -0.251892   -0.418742
     58          6           0       15.746587   -1.570613   -0.522568
     59          6           0       16.337951    0.526687    0.303220
     60          6           0       17.824433    0.505149   -0.137364
     61          6           0       18.607336    1.547901    0.620539
     62          6           0       20.100777    1.697530    0.196537
     63          6           0       20.257103    2.087598   -1.155341
     64          6           0       20.902995    2.482539    1.184484
     65          1           0       -4.042712    3.310664    1.826637
     66          1           0      -10.023189    4.111662   -0.166630
     67          1           0      -10.664110   -2.066053   -1.149910
     68          1           0       -2.728968   -1.207708    2.021555
     69          1           0       -2.418699    1.513332    1.346912
     70          1           0       -1.942219    0.503245    3.514555
     71          1           0       -2.599379    2.163559    3.386355
     72          1           0       -3.789576    0.506267    3.847572
     73          1           0       -2.281096   -1.733506   -0.424400
     74          1           0       -2.202491   -0.134839   -0.765346
     75          1           0       -0.369361    0.126881    0.996377
     76          1           0       -0.462109   -1.730606    1.092867
     77          1           0       -4.531406    6.225877    0.681034
     78          1           0       -5.828217    6.879408    1.653382
     79          1           0       -4.671963    5.572174    2.321279
     80          1           0       -8.228907    6.795650    1.404849
     81          1           0       -9.360159    6.221462   -1.565410
     82          1           0       -9.634410    7.542783   -0.565802
     83          1           0      -12.136437    3.932005   -0.500706
     84          1           0      -12.092409    3.139694   -2.239466
     85          1           0      -13.207690    2.506348   -1.121610
     86          1           0      -12.707182   -1.318759   -1.088721
     87          1           0      -13.658590    0.159286   -1.318747
     88          1           0      -12.517292    0.369069   -3.884476
     89          1           0      -11.959680   -1.426564   -3.454962
     90          1           0      -13.810263   -0.950772   -3.194528
     91          1           0       -9.928330   -4.717557    0.109578
     92          1           0       -9.981508   -4.420534   -1.721103
     93          1           0       -8.528125   -5.653303   -0.651114
     94          1           0       -3.702423   -3.431781   -0.493795
     95          1           0       -1.515781   -6.253327    2.178079
     96          1           0       -1.964719   -4.755390    3.300197
     97          1           0       -2.883355   -6.120750    3.202036
     98          1           0        2.407785   -1.946523   -2.023113
     99          1           0        2.273716    0.085681   -2.091362
    100          1           0        4.049595   -1.234563    0.269635
    101          1           0        5.168441    1.903374   -2.193107
    102          1           0        5.295275    0.444873   -3.189484
    103          1           0        3.779396    0.981675   -2.683715
    104          1           0        6.287731    1.196950    0.121244
    105          1           0        5.947764   -0.271173    0.885119
    106          1           0        7.390549   -1.584111   -1.011985
    107          1           0        7.525098    0.082894   -1.798486
    108          1           0        8.824341    1.045744    0.007759
    109          1           0        8.643488   -0.327969    0.900670
    110          1           0       10.099601   -0.257777   -1.846574
    111          1           0        8.935410   -2.551516   -1.476084
    112          1           0       11.039094   -2.674772   -1.288640
    113          1           0        9.879408   -2.756841    0.107558
    114          1           0       11.216510    1.070518    0.263744
    115          1           0       11.461729   -0.726455    0.910142
    116          1           0       12.672598   -1.448998   -0.836562
    117          1           0       12.814945   -0.066294   -1.656812
    118          1           0       13.809983    0.996982    0.430295
    119          1           0       13.818043   -0.479126    1.274149
    120          1           0       15.407438    0.326656   -1.457090
    121          1           0       15.018536   -2.160150   -1.206832
    122          1           0       16.576056   -1.806849   -0.784174
    123          1           0       15.739795   -2.123636    0.635782
    124          1           0       15.960433    1.575213    0.606360
    125          1           0       16.129817   -0.106895    1.159428
    126          1           0       18.394326   -0.589482   -0.243365
    127          1           0       17.725116    0.616333   -1.254590
    128          1           0       17.976101    2.508917    0.470107
    129          1           0       18.582996    1.318022    1.609848
    130          1           0       20.506480    0.723325    0.287151
    131          1           0       19.740726    2.932658   -1.431011
    132          1           0       21.234759    2.365517   -1.534886
    133          1           0       20.013675    1.181917   -1.950565
    134          1           0       20.853002    2.011874    2.297911
    135          1           0       21.876652    2.565629    0.757925
    136          1           0       20.668982    3.496011    1.445394
    137          1           0       -7.105944    1.914918    0.220382
    138          1           0       -7.541943   -0.264881   -0.228264
 ---------------------------------------------------------------------

 SCF Done:  E(RB3LYP) =  -2732.90400267     A.U. after   16 cycles

 Excitation energies and oscillator strengths:

 Excited State   1:      Singlet-A      1.9845 eV  624.77 nm  f=0.1937  <S**2>=0.000
     235 -> 237       -0.11109
     235 -> 238       -0.29597
     236 -> 237        0.62462
 This state for optimization and/or second-order correction.
 Total Energy, E(TD-HF/TD-KS) =  -2732.83107504
 Copying the excited state density for this state as the 1-particle RhoCI density.

 The electronic state is 1-A.
 Alpha  occ. eigenvalues --  -19.17904 -19.16983 -19.13319 -19.12967 -19.12157
 Alpha  occ. eigenvalues --  -14.36808 -14.36766 -14.32338 -14.30095 -10.32173
 Alpha  occ. eigenvalues --  -10.31202 -10.26982 -10.26837 -10.24596 -10.24188
 Alpha  occ. eigenvalues --  -10.23894 -10.23310 -10.23190 -10.23136 -10.22758
 Alpha  occ. eigenvalues --  -10.22721 -10.22392 -10.22322 -10.21860 -10.21740
 Alpha  occ. eigenvalues --  -10.21477 -10.21411 -10.21361 -10.21340 -10.21277
 Alpha  occ. eigenvalues --  -10.20959 -10.20931 -10.20853 -10.20663 -10.20367
 Alpha  occ. eigenvalues --  -10.20282 -10.20272 -10.20138 -10.19884 -10.19867
 Alpha  occ. eigenvalues --  -10.19628 -10.19590 -10.19551 -10.19542 -10.19444
 Alpha  occ. eigenvalues --  -10.19404 -10.19252 -10.19048 -10.18914 -10.18860
 Alpha  occ. eigenvalues --  -10.18647 -10.18508 -10.18305 -10.18259 -10.18205
 Alpha  occ. eigenvalues --  -10.18029 -10.17810 -10.17788 -10.17755 -10.17673
 Alpha  occ. eigenvalues --  -10.17660 -10.17519 -10.17426 -10.17241  -1.09888
 Alpha  occ. eigenvalues --   -1.08006  -1.06848  -1.01497  -1.01332  -0.99430
 Alpha  occ. eigenvalues --   -0.97748  -0.96726  -0.95001  -0.84793  -0.83446
 Alpha  occ. eigenvalues --   -0.83367  -0.82604  -0.82308  -0.81775  -0.81241
 Alpha  occ. eigenvalues --   -0.80765  -0.80319  -0.80086  -0.79260  -0.78581
 Alpha  occ. eigenvalues --   -0.77727  -0.75747  -0.75071  -0.74764  -0.74469
 Alpha  occ. eigenvalues --   -0.73800  -0.72995  -0.72581  -0.71974  -0.71401
 Alpha  occ. eigenvalues --   -0.69366  -0.68899  -0.68823  -0.68200  -0.68183
 Alpha  occ. eigenvalues --   -0.67776  -0.67364  -0.66347  -0.65942  -0.65316
 Alpha  occ. eigenvalues --   -0.65019  -0.64067  -0.62592  -0.62280  -0.61121
 Alpha  occ. eigenvalues --   -0.60396  -0.59363  -0.59260  -0.58289  -0.57713
 Alpha  occ. eigenvalues --   -0.57490  -0.57192  -0.56505  -0.56307  -0.55975
 Alpha  occ. eigenvalues --   -0.55417  -0.54943  -0.54489  -0.53990  -0.53422
 Alpha  occ. eigenvalues --   -0.52579  -0.51992  -0.51771  -0.50995  -0.50395
 Alpha  occ. eigenvalues --   -0.50088  -0.49583  -0.49197  -0.48644  -0.48397
 Alpha  occ. eigenvalues --   -0.47831  -0.47655  -0.47551  -0.47244  -0.47219
 Alpha  occ. eigenvalues --   -0.47049  -0.46920  -0.46795  -0.46361  -0.46113
 Alpha  occ. eigenvalues --   -0.46035  -0.45722  -0.45432  -0.45331  -0.45262
 Alpha  occ. eigenvalues --   -0.44963  -0.44769  -0.44570  -0.44552  -0.44155
 Alpha  occ. eigenvalues --   -0.44091  -0.43372  -0.43247  -0.43128  -0.42989
 Alpha  occ. eigenvalues --   -0.42913  -0.42433  -0.42290  -0.42103  -0.42073
 Alpha  occ. eigenvalues --   -0.41713  -0.41489  -0.41119  -0.40701  -0.40489
 Alpha  occ. eigenvalues --   -0.40349  -0.40136  -0.39932  -0.39659  -0.39488
 Alpha  occ. eigenvalues --   -0.39424  -0.39074  -0.38966  -0.38787  -0.38653
 Alpha  occ. eigenvalues --   -0.38319  -0.38113  -0.38026  -0.37930  -0.37455
 Alpha  occ. eigenvalues --   -0.37282  -0.37066  -0.37005  -0.36932  -0.36635
 Alpha  occ. eigenvalues --   -0.36547  -0.36254  -0.36205  -0.36106  -0.35878
 Alpha  occ. eigenvalues --   -0.35768  -0.35734  -0.35607  -0.35469  -0.35198
 Alpha  occ. eigenvalues --   -0.34775  -0.34594  -0.34175  -0.33960  -0.33705
 Alpha  occ. eigenvalues --   -0.33444  -0.33366  -0.32920  -0.32769  -0.32475
 Alpha  occ. eigenvalues --   -0.32078  -0.32057  -0.31527  -0.31371  -0.31069
 Alpha  occ. eigenvalues --   -0.30716  -0.30513  -0.30238  -0.30161  -0.29791
 Alpha  occ. eigenvalues --   -0.29642  -0.28613  -0.28536  -0.28447  -0.28036
 Alpha  occ. eigenvalues --   -0.27547  -0.26924  -0.26216  -0.25904  -0.25245
 Alpha  occ. eigenvalues --   -0.24810  -0.24613  -0.23196  -0.22937  -0.19868
 Alpha  occ. eigenvalues --   -0.19083
 Alpha virt. eigenvalues --   -0.10819  -0.08034  -0.04694  -0.03017  -0.01297
 Alpha virt. eigenvalues --   -0.00171   0.00222   0.01556   0.01794   0.03023
 Alpha virt. eigenvalues --    0.03208   0.03426   0.04126   0.04206   0.04517

 Mulliken charges:
               1
     1  C    0.008477
     2  C   -0.015000
     3  C   -0.043087
     4  C   -0.000356
     5  N   -0.090042
     6  C   -0.098080
     7  C   -0.042145
     8  C    0.011530
     9  C   -0.015977
    10  C   -0.011418
    11  C    0.106088
    12  C    0.062212
    13  C    0.194919
    14  O   -0.258252
    15  O   -0.328443
    16  N    0.125654
    17  C    0.060424
    18  C   -0.128329
    19  C    0.120776
    20  C    0.095677
    21  C    0.056216
    22  C   -0.159095
    23  C   -0.037560
    24  N   -0.161487
    25  C    0.029984
    26  C   -0.155353
    27  C   -0.017260
    28  C    0.007416
    29  C    0.100672
    30  C    0.075914
    31  C   -0.142148
    32  N   -0.070881
    33  C    0.093050
    34  C   -0.024671
    35  C    0.009611
    36  C    0.092393
    37  C   -0.132366
    38  C   -0.001480
    39  O   -0.080288
    40  C   -0.122265
    41  C    0.192283
    42  O   -0.155227
    43  O   -0.331813
    44  C    0.185210
    45  C    0.152493
    46  C   -0.056890
    47  C   -0.159042
    48  C    0.127648
    49  C    0.044148
    50  C    0.005390
    51  C    0.092714
    52  C   -0.046766
    53  C   -0.094081
    54  C    0.065348
    55  C    0.060380
    56  C    0.117616
    57  C   -0.098368
    58  C    0.136462
    59  C   -0.030434
    60  C   -0.009401
    61  C    0.082550
    62  C   -0.004081
    63  C    0.036231
    64  C    0.025156
    65  H   -0.053369
    66  H   -0.064188
    67  H   -0.067857
    68  H    0.010542
    69  H   -0.042506
    70  H    0.016505
    71  H    0.031083
    72  H    0.059791
    73  H   -0.019623
    74  H   -0.016807
    75  H    0.037428
    76  H    0.034616
    77  H    0.033848
    78  H    0.009451
    79  H    0.029682
    80  H    0.040366
    81  H    0.037107
    82  H   -0.013309
    83  H    0.038670
    84  H    0.029979
    85  H   -0.040028
    86  H    0.011905
    87  H    0.001754
    88  H    0.035388
    89  H    0.032276
    90  H    0.028975
    91  H    0.049726
    92  H    0.062946
    93  H    0.073290
    94  H    0.076704
    95  H    0.044534
    96  H    0.021416
    97  H    0.012919
    98  H    0.064675
    99  H    0.060492
   100  H   -0.005985
   101  H    0.009991
   102  H    0.009269
   103  H   -0.012757
   104  H   -0.008790
   105  H   -0.004849
   106  H    0.003922
   107  H   -0.017464
   108  H   -0.019155
   109  H   -0.034859
   110  H    0.006368
   111  H    0.054694
   112  H    0.037448
   113  H    0.012609
   114  H    0.022534
   115  H   -0.022171
   116  H   -0.048687
   117  H   -0.020278
   118  H   -0.047612
   119  H   -0.007070
   120  H   -0.006802
   121  H    0.005639
   122  H   -0.090759
   123  H   -0.003484
   124  H    0.000158
   125  H   -0.035241
   126  H    0.010925
   127  H   -0.008387
   128  H    0.002388
   129  H   -0.034451
   130  H   -0.025433
   131  H   -0.022056
   132  H   -0.015107
   133  H    0.015406
   134  H    0.013050
   135  H   -0.005195
   136  H   -0.010500
   137  H    0.033369
   138  H    0.148390
 Sum of Mulliken charges =   0.00000

 Dipole moment (field-independent basis, Debye):
    X=              1.7295    Y=              4.6002    Z=              0.8760  Tot=              4.9920
 Quadrupole moment (field-independent basis, Debye-Ang):
   XX=           -342.0709   YY=           -383.2068   ZZ=           -399.3351
   XY=            -16.2921   XZ=              7.1788   YZ=             -2.2446

 Normal termination of Gaussian 09 at Thu Jul 25 08:03:47 2019.
