 Gaussian 09, Revision D.01,
 Gaussian 09:  ES64L-G09RevD.01 24-Apr-2013

 --------------------------
 # td=(NStates=1) B3LYP/SVP
 --------------------------

 --
 TD
 --
 Symbolic Z-matrix:
 Charge =  0 Multiplicity = 1

                         Standard orientation:
 ---------------------------------------------------------------------
 Center     Atomic      Atomic             Coordinates (Angstroms)
 Number     Number       Type             X           Y           Z
 ---------------------------------------------------------------------
      1          6           0       -5.102231   -1.914968    0.519536
      2          6           0       -4.729233    2.762926    1.214604
      3          6           0       -9.331553    3.265155   -0.163868
      4          6           0       -9.874219   -1.480996   -0.761805
      5          7           0       -5.206455    0.459255    0.690310
      6          6           0       -4.482256   -0.664010    0.697435
      7          6           0       -2.929801   -0.542336    1.132164
      8          6           0       -2.962308    0.946181    1.554303
      9          6           0       -4.376586    1.382086    1.160405
     10          6           0       -2.927727    0.917624    3.155442
     11          6           0       -1.929583   -0.674267   -0.040759
     12          6           0       -0.583526   -0.757248    0.333416
     13          6           0        0.464516   -1.052653   -0.744686
     14          8           0        0.107809   -1.354969   -1.839234
     15          8           0        1.729128   -0.819849   -0.366831
     16          7           0       -6.995454    2.802274    0.412292
     17          6           0       -5.974038    3.460397    0.872006
     18          6           0       -6.225908    4.846335    0.881559
     19          6           0       -7.601422    4.994914    0.536444
     20          6           0       -8.067601    3.660038    0.185187
     21          6           0       -5.058751    5.889733    1.238932
     22          6           0       -8.205775    6.329042    0.334556
     23          6           0       -9.095477    6.654618   -0.564861
     24          7           0       -9.235028    0.848894   -0.512404
     25          6           0       -9.880992    2.011663   -0.487564
     26          6           0      -11.333862    1.815404   -0.730801
     27          6           0      -11.561005    0.496957   -1.104328
     28          6           0      -10.232265   -0.084331   -0.793547
     29          6           0      -12.398404    2.871032   -0.932048
     30          6           0      -12.812284   -0.167481   -1.351602
     31          6           0      -13.112949   -0.678490   -2.902060
     32          7           0       -7.508948   -1.263761   -0.092105
     33          6           0       -8.640263   -2.032178   -0.506948
     34          6           0       -8.281601   -3.448209   -0.465985
     35          6           0       -6.901343   -3.300410   -0.113722
     36          6           0       -6.448416   -2.026837    0.097880
     37          6           0       -9.105320   -4.583031   -0.913696
     38          6           0       -5.739110   -4.229794    0.077098
     39          8           0       -5.596312   -5.449996    0.103942
     40          6           0       -4.543616   -3.244489    0.444443
     41          6           0       -3.923694   -3.747001    1.752703
     42          8           0       -4.250824   -3.435673    2.813996
     43          8           0       -2.907372   -4.608127    1.487976
     44          6           0       -2.241878   -5.141741    2.644580
     45          6           0        2.775339   -1.251938   -1.246354
     46          6           0        4.107378   -0.913959   -0.703023
     47          6           0        4.998195   -0.099523   -1.200513
     48          6           0        4.988026    0.585546   -2.564217
     49          6           0        6.336237    0.225437   -0.422641
     50          6           0        7.584282   -0.609426   -0.981200
     51          6           0        8.889774   -0.242981   -0.191730
     52          6           0       10.156000   -0.844959   -0.690201
     53          6           0       10.120573   -2.347910   -0.822969
     54          6           0       11.216802   -0.326529    0.147788
     55          6           0       12.672974   -0.667621   -0.465387
     56          6           0       13.825661   -0.125783    0.289327
     57          6           0       15.224655   -0.242130   -0.354760
     58          6           0       15.776575   -1.653715   -0.747643
     59          6           0       16.235267    0.502849    0.488633
     60          6           0       17.677145    0.808746   -0.002712
     61          6           0       18.493582    1.790842    0.778663
     62          6           0       19.915421    1.911951    0.202272
     63          6           0       20.172241    2.479615   -1.181785
     64          6           0       20.916868    2.437048    1.231057
     65          1           0       -4.132425    3.368615    1.595612
     66          1           0      -10.043931    4.147824   -0.207165
     67          1           0      -10.652280   -1.947740   -1.336486
     68          1           0       -2.795132   -1.157042    2.004451
     69          1           0       -2.154408    1.509569    1.275002
     70          1           0       -2.117442    0.481554    3.679605
     71          1           0       -3.409377    1.890415    3.469332
     72          1           0       -3.667822    0.209876    3.527367
     73          1           0       -2.217648   -1.552194   -0.588813
     74          1           0       -2.001603    0.276878   -0.665038
     75          1           0       -0.273082    0.223825    0.825654
     76          1           0       -0.547649   -1.402402    1.208577
     77          1           0       -4.351227    5.779801    0.423051
     78          1           0       -5.587769    6.737811    1.361376
     79          1           0       -4.721304    5.493411    2.243528
     80          1           0       -7.825039    7.064409    1.098381
     81          1           0       -9.668379    5.855314   -1.264559
     82          1           0       -9.545027    7.772144   -0.339704
     83          1           0      -12.308441    3.638650    0.021114
     84          1           0      -12.016576    3.277277   -1.946147
     85          1           0      -13.453820    2.426380   -1.012229
     86          1           0      -12.861681   -1.067423   -0.516114
     87          1           0      -13.734130    0.228941   -1.115070
     88          1           0      -13.366605    0.110756   -3.617469
     89          1           0      -12.202713   -1.225504   -3.336466
     90          1           0      -13.946036   -1.529892   -2.807003
     91          1           0      -10.276207   -4.075246   -0.459577
     92          1           0       -9.123684   -4.772041   -2.016144
     93          1           0       -8.706896   -5.660441   -0.208119
     94          1           0       -3.973483   -3.609147   -0.365372
     95          1           0       -1.497990   -5.775316    2.269467
     96          1           0       -2.024945   -4.229552    3.346497
     97          1           0       -2.957735   -5.809600    3.243346
     98          1           0        2.780267   -2.390276   -1.443047
     99          1           0        2.541612   -0.802177   -2.137385
    100          1           0        4.373179   -1.604974    0.325831
    101          1           0        5.323006    1.457718   -2.430566
    102          1           0        5.650161   -0.025480   -3.216955
    103          1           0        4.065559    0.535467   -3.064817
    104          1           0        6.503177    1.274790   -0.642453
    105          1           0        6.206663   -0.138344    0.655013
    106          1           0        7.133573   -1.683950   -0.861481
    107          1           0        7.834323   -0.512745   -2.133112
    108          1           0        8.864512    0.834156   -0.151585
    109          1           0        8.514212   -0.495327    0.811233
    110          1           0       10.404015   -0.578037   -1.621468
    111          1           0        9.312212   -2.680340   -1.339825
    112          1           0       10.941985   -2.617601   -1.276180
    113          1           0       10.114526   -2.973200    0.128771
    114          1           0       10.950308    0.594883    0.201992
    115          1           0       11.340462   -0.608269    1.426552
    116          1           0       12.680228   -1.840617   -0.626726
    117          1           0       12.624593   -0.314823   -1.528477
    118          1           0       13.898150    0.997961    0.457373
    119          1           0       13.870427   -0.662831    1.251011
    120          1           0       15.122528    0.382962   -1.278306
    121          1           0       14.953966   -2.108762   -1.560196
    122          1           0       16.764482   -1.597668   -1.296031
    123          1           0       15.803206   -2.246237    0.180624
    124          1           0       15.694898    1.417249    0.918700
    125          1           0       16.228705    0.039424    1.333635
    126          1           0       18.291294   -0.164538   -0.207365
    127          1           0       17.760035    1.115888   -1.105993
    128          1           0       17.844636    2.845898    0.926658
    129          1           0       18.594038    1.266313    1.749836
    130          1           0       20.281059    0.862050    0.106581
    131          1           0       19.952070    3.388773   -1.144555
    132          1           0       21.125384    2.625289   -1.802688
    133          1           0       19.536684    1.956868   -2.016486
    134          1           0       20.707852    1.884570    2.165593
    135          1           0       22.215278    2.501896    1.095133
    136          1           0       20.639225    3.516630    1.421946
    137          1           0       -7.212218    1.885021    0.243657
    138          1           0       -7.701096   -0.290392   -0.292908
 ---------------------------------------------------------------------

 SCF Done:  E(RB3LYP) =  -2732.94669776     A.U. after   16 cycles

 Excitation energies and oscillator strengths:

 Excited State   1:      Singlet-A      2.0594 eV  602.05 nm  f=0.1302  <S**2>=0.000
     235 -> 237        0.14427
     235 -> 238       -0.33288
     236 -> 237        0.59725
 This state for optimization and/or second-order correction.
 Total Energy, E(TD-HF/TD-KS) =  -2732.87101682
 Copying the excited state density for this state as the 1-particle RhoCI density.

 The electronic state is 1-A.
 Alpha  occ. eigenvalues --  -19.17631 -19.16475 -19.12173 -19.12170 -19.11872
 Alpha  occ. eigenvalues --  -14.36709 -14.36030 -14.32534 -14.30658 -10.31311
 Alpha  occ. eigenvalues --  -10.30317 -10.27359 -10.24508 -10.24359 -10.23723
 Alpha  occ. eigenvalues --  -10.23681 -10.23558 -10.23233 -10.23169 -10.23134
 Alpha  occ. eigenvalues --  -10.22783 -10.21972 -10.21798 -10.21727 -10.21294
 Alpha  occ. eigenvalues --  -10.21243 -10.21152 -10.20939 -10.20823 -10.20695
 Alpha  occ. eigenvalues --  -10.20687 -10.20545 -10.20456 -10.20307 -10.20271
 Alpha  occ. eigenvalues --  -10.20265 -10.20246 -10.20185 -10.19887 -10.19855
 Alpha  occ. eigenvalues --  -10.19598 -10.19585 -10.19562 -10.19499 -10.19481
 Alpha  occ. eigenvalues --  -10.19465 -10.19429 -10.19360 -10.19202 -10.19168
 Alpha  occ. eigenvalues --  -10.18832 -10.18703 -10.18619 -10.18543 -10.18515
 Alpha  occ. eigenvalues --  -10.18440 -10.18217 -10.18197 -10.17888 -10.17859
 Alpha  occ. eigenvalues --  -10.17508 -10.17111 -10.17070 -10.15718  -1.10047
 Alpha  occ. eigenvalues --   -1.09903  -1.01642  -1.01589  -1.01394  -1.00236
 Alpha  occ. eigenvalues --   -0.98405  -0.95645  -0.93849  -0.85141  -0.83924
 Alpha  occ. eigenvalues --   -0.82780  -0.82131  -0.82078  -0.81894  -0.81170
 Alpha  occ. eigenvalues --   -0.80397  -0.79923  -0.79779  -0.78808  -0.77880
 Alpha  occ. eigenvalues --   -0.76675  -0.76286  -0.75634  -0.75168  -0.74215
 Alpha  occ. eigenvalues --   -0.73812  -0.72898  -0.72449  -0.72161  -0.71410
 Alpha  occ. eigenvalues --   -0.69840  -0.69529  -0.69229  -0.68726  -0.68302
 Alpha  occ. eigenvalues --   -0.67953  -0.67009  -0.66876  -0.65971  -0.65450
 Alpha  occ. eigenvalues --   -0.64009  -0.62704  -0.62665  -0.62091  -0.61778
 Alpha  occ. eigenvalues --   -0.61032  -0.59034  -0.58902  -0.58366  -0.57722
 Alpha  occ. eigenvalues --   -0.57116  -0.57047  -0.56968  -0.56191  -0.55742
 Alpha  occ. eigenvalues --   -0.54779  -0.54704  -0.53965  -0.53616  -0.53369
 Alpha  occ. eigenvalues --   -0.52727  -0.52198  -0.51999  -0.51185  -0.50619
 Alpha  occ. eigenvalues --   -0.50029  -0.49333  -0.49085  -0.48599  -0.48256
 Alpha  occ. eigenvalues --   -0.47964  -0.47594  -0.47444  -0.47414  -0.47006
 Alpha  occ. eigenvalues --   -0.46909  -0.46595  -0.46256  -0.46141  -0.45878
 Alpha  occ. eigenvalues --   -0.45572  -0.45235  -0.45020  -0.44863  -0.44793
 Alpha  occ. eigenvalues --   -0.44748  -0.44714  -0.44288  -0.44220  -0.43777
 Alpha  occ. eigenvalues --   -0.43671  -0.43542  -0.43395  -0.43110  -0.43088
 Alpha  occ. eigenvalues --   -0.42928  -0.42397  -0.42318  -0.41862  -0.41837
 Alpha  occ. eigenvalues --   -0.41673  -0.41270  -0.41018  -0.40660  -0.40511
 Alpha  occ. eigenvalues --   -0.40272  -0.40006  -0.39945  -0.39828  -0.39344
 Alpha  occ. eigenvalues --   -0.39135  -0.38826  -0.38750  -0.38572  -0.38252
 Alpha  occ. eigenvalues --   -0.38199  -0.37957  -0.37701  -0.37660  -0.37567
 Alpha  occ. eigenvalues --   -0.37341  -0.37255  -0.37207  -0.37047  -0.36891
 Alpha  occ. eigenvalues --   -0.36390  -0.36277  -0.36190  -0.35812  -0.35736
 Alpha  occ. eigenvalues --   -0.35574  -0.35108  -0.35048  -0.35021  -0.34725
 Alpha  occ. eigenvalues --   -0.34611  -0.34333  -0.34150  -0.34097  -0.33691
 Alpha  occ. eigenvalues --   -0.33558  -0.33164  -0.33144  -0.32348  -0.32066
 Alpha  occ. eigenvalues --   -0.32030  -0.31928  -0.31378  -0.31278  -0.31098
 Alpha  occ. eigenvalues --   -0.30952  -0.30850  -0.30790  -0.30379  -0.30015
 Alpha  occ. eigenvalues --   -0.29742  -0.29481  -0.28880  -0.28728  -0.28572
 Alpha  occ. eigenvalues --   -0.28049  -0.27762  -0.27646  -0.26079  -0.25509
 Alpha  occ. eigenvalues --   -0.25497  -0.24728  -0.24006  -0.22879  -0.19572
 Alpha  occ. eigenvalues --   -0.19281
 Alpha virt. eigenvalues --   -0.10431  -0.07882  -0.03725  -0.01463   0.00268
 Alpha virt. eigenvalues --    0.00549   0.00763   0.02001   0.02222   0.03349
 Alpha virt. eigenvalues --    0.03721   0.04006   0.04184   0.04499   0.04652

 Mulliken charges:
               1
     1  C    0.043644
     2  C    0.057488
     3  C   -0.080227
     4  C   -0.050275
     5  N   -0.113723
     6  C   -0.084628
     7  C   -0.027574
     8  C   -0.038917
     9  C    0.022388
    10  C    0.058719
    11  C    0.098701
    12  C    0.035368
    13  C    0.182959
    14  O   -0.211168
    15  O   -0.304408
    16  N    0.063988
    17  C    0.047355
    18  C   -0.208144
    19  C   -0.004264
    20  C    0.012280
    21  C    0.191363
    22  C   -0.034316
    23  C   -0.089407
    24  N   -0.238122
    25  C    0.074175
    26  C   -0.173620
    27  C    0.031523
    28  C   -0.031506
    29  C    0.005942
    30  C   -0.018971
    31  C   -0.059404
    32  N   -0.020163
    33  C    0.075905
    34  C   -0.043723
    35  C   -0.044906
    36  C    0.099581
    37  C   -0.091147
    38  C    0.045380
    39  O   -0.185415
    40  C   -0.022566
    41  C    0.160399
    42  O   -0.162496
    43  O   -0.316283
    44  C    0.170708
    45  C    0.302836
    46  C   -0.132042
    47  C   -0.175422
    48  C    0.217434
    49  C    0.051267
    50  C   -0.104741
    51  C    0.071190
    52  C    0.036661
    53  C    0.139727
    54  C    0.067291
    55  C   -0.008786
    56  C    0.048384
    57  C   -0.095193
    58  C   -0.011897
    59  C    0.135118
    60  C   -0.011230
    61  C    0.030625
    62  C   -0.079944
    63  C    0.073878
    64  C   -0.030108
    65  H   -0.164225
    66  H   -0.014268
    67  H   -0.007936
    68  H    0.009066
    69  H   -0.020833
    70  H    0.009511
    71  H    0.007003
    72  H    0.002960
    73  H    0.007487
    74  H    0.009966
    75  H    0.012869
    76  H    0.005606
    77  H    0.048794
    78  H   -0.022235
    79  H    0.045135
    80  H    0.024675
    81  H    0.065836
    82  H    0.046325
    83  H    0.051389
    84  H    0.055577
    85  H    0.037642
    86  H    0.028073
    87  H   -0.014932
    88  H    0.033498
    89  H    0.026673
    90  H    0.033048
    91  H    0.058258
    92  H    0.075572
    93  H    0.087976
    94  H    0.024811
    95  H    0.024310
    96  H    0.043017
    97  H    0.033279
    98  H    0.027847
    99  H   -0.028552
   100  H    0.021265
   101  H   -0.045868
   102  H    0.026615
   103  H   -0.010585
   104  H    0.003384
   105  H    0.023670
   106  H    0.021336
   107  H    0.009225
   108  H   -0.016903
   109  H   -0.013333
   110  H   -0.058852
   111  H   -0.030821
   112  H   -0.052343
   113  H   -0.002515
   114  H   -0.075239
   115  H   -0.001223
   116  H    0.021753
   117  H   -0.014551
   118  H    0.009391
   119  H   -0.009063
   120  H   -0.017234
   121  H    0.023723
   122  H    0.032476
   123  H    0.014792
   124  H   -0.030651
   125  H   -0.085225
   126  H   -0.004160
   127  H   -0.013026
   128  H    0.026913
   129  H    0.000718
   130  H   -0.001667
   131  H   -0.061945
   132  H    0.010041
   133  H    0.008906
   134  H    0.006900
   135  H    0.035631
   136  H    0.003706
   137  H    0.097131
   138  H    0.136867
 Sum of Mulliken charges =   0.00000

 Dipole moment (field-independent basis, Debye):
    X=              1.8642    Y=              4.9326    Z=             -0.3928  Tot=              5.2877
 Quadrupole moment (field-independent basis, Debye-Ang):
   XX=           -348.9814   YY=           -389.6599   ZZ=           -394.8228
   XY=            -28.5604   XZ=              6.7593   YZ=              2.3290

 Normal termination of Gaussian 09 at Sun Aug  4 14:32:48 2019.
