 Gaussian 09, Revision D.01,
 Gaussian 09:  ES64L-G09RevD.01 24-Apr-2013

 --------------------------
 # td=(NStates=1) B3LYP/SVP
 --------------------------

 --
 TD
 --
 Symbolic Z-matrix:
 Charge =  0 Multiplicity = 1

                         Standard orientation:
 ---------------------------------------------------------------------
 Center     Atomic      Atomic             Coordinates (Angstroms)
 Number     Number       Type             X           Y           Z
 ---------------------------------------------------------------------
      1          6           0       -5.058959   -1.908294    0.465896
      2          6           0       -4.828901    2.760076    1.319202
      3          6           0       -9.343982    3.266927   -0.176215
      4          6           0       -9.859785   -1.494976   -1.011850
      5          7           0       -5.174083    0.390409    0.796200
      6          6           0       -4.437095   -0.816887    0.837780
      7          6           0       -2.997092   -0.578163    1.371096
      8          6           0       -3.034353    0.970730    1.768842
      9          6           0       -4.452104    1.424746    1.315264
     10          6           0       -2.813578    1.018086    3.271921
     11          6           0       -2.080110   -0.843232    0.130141
     12          6           0       -0.526540   -0.668197    0.523767
     13          6           0        0.332247   -1.192476   -0.459422
     14          8           0        0.167450   -1.938144   -1.476777
     15          8           0        1.607054   -0.499898   -0.221404
     16          7           0       -7.065365    2.722852    0.466894
     17          6           0       -5.958609    3.372065    1.031838
     18          6           0       -6.359833    4.729451    0.994984
     19          6           0       -7.615721    4.922278    0.501187
     20          6           0       -8.061280    3.623237    0.194738
     21          6           0       -5.379592    5.839339    1.479805
     22          6           0       -8.359056    6.259669    0.474464
     23          6           0       -9.271749    6.656756   -0.449410
     24          7           0       -9.227285    0.800814   -0.582539
     25          6           0       -9.861106    1.977885   -0.594312
     26          6           0      -11.277857    1.806391   -0.981980
     27          6           0      -11.395237    0.415442   -1.229165
     28          6           0      -10.141489   -0.090651   -1.099046
     29          6           0      -12.307059    2.718622   -1.119597
     30          6           0      -12.613868   -0.377526   -1.512210
     31          6           0      -12.801859   -0.637485   -3.112003
     32          7           0       -7.417645   -1.244299   -0.286752
     33          6           0       -8.506999   -2.011847   -0.804837
     34          6           0       -8.152740   -3.313002   -0.810811
     35          6           0       -6.788595   -3.355652   -0.259985
     36          6           0       -6.400265   -2.032227    0.036242
     37          6           0       -9.007318   -4.533748   -0.951669
     38          6           0       -5.672659   -4.309376    0.095249
     39          8           0       -5.714408   -5.490640    0.141885
     40          6           0       -4.510787   -3.368794    0.534789
     41          6           0       -3.981467   -3.716914    1.891936
     42          8           0       -4.271981   -3.289442    2.952231
     43          8           0       -3.021458   -4.699012    1.709681
     44          6           0       -2.519023   -5.223702    2.894059
     45          6           0        2.659934   -0.952134   -1.204238
     46          6           0        4.004913   -0.545142   -0.630277
     47          6           0        4.971881    0.106957   -1.238224
     48          6           0        4.958469    0.598619   -2.618084
     49          6           0        6.281952    0.492031   -0.565035
     50          6           0        7.578781   -0.296392   -1.073425
     51          6           0        8.797482   -0.053730   -0.264285
     52          6           0       10.173861   -0.629622   -0.902056
     53          6           0        9.982744   -2.093783   -0.899196
     54          6           0       11.324075   -0.084499   -0.133488
     55          6           0       12.644247   -0.603604   -0.651554
     56          6           0       13.743482   -0.005556    0.225994
     57          6           0       15.321465   -0.227134   -0.316857
     58          6           0       15.548127   -1.716785   -0.380214
     59          6           0       16.254248    0.568957    0.488892
     60          6           0       17.699493    0.591498   -0.166591
     61          6           0       18.609124    1.462904    0.668691
     62          6           0       20.064575    1.595844    0.168544
     63          6           0       20.295916    2.070068   -1.247473
     64          6           0       20.971968    2.228674    1.202714
     65          1           0       -4.044652    3.529072    1.776010
     66          1           0      -10.180278    3.816765   -0.107302
     67          1           0      -10.762616   -2.024712   -1.427548
     68          1           0       -2.676272   -1.249654    2.242593
     69          1           0       -2.346371    1.604152    1.140488
     70          1           0       -2.050840    0.547075    3.554084
     71          1           0       -2.632150    2.093672    3.609802
     72          1           0       -3.795725    0.687229    3.751912
     73          1           0       -2.170773   -1.858852   -0.288636
     74          1           0       -2.478887   -0.204736   -0.697189
     75          1           0       -0.276686    0.358352    0.779255
     76          1           0       -0.197405   -1.262085    1.495566
     77          1           0       -4.482479    6.188800    0.771021
     78          1           0       -5.909068    6.640394    1.454505
     79          1           0       -4.861686    5.775373    2.459458
     80          1           0       -7.904848    7.028084    1.173713
     81          1           0       -9.660603    6.165578   -1.203412
     82          1           0       -9.485414    7.797849   -0.479998
     83          1           0      -12.489431    3.454769   -0.203028
     84          1           0      -12.094446    3.406798   -1.906652
     85          1           0      -13.336305    2.433880   -1.392918
     86          1           0      -12.569615   -1.352594   -1.040809
     87          1           0      -13.449035    0.213096   -1.229114
     88          1           0      -12.721057    0.313521   -3.813250
     89          1           0      -11.997563   -1.252029   -3.132218
     90          1           0      -13.610149   -1.496675   -3.242264
     91          1           0      -10.258296   -4.552392   -0.680474
     92          1           0       -9.079962   -4.676017   -2.110628
     93          1           0       -8.418825   -5.479082   -0.630382
     94          1           0       -3.659267   -3.393675   -0.186644
     95          1           0       -1.806490   -6.034255    2.505660
     96          1           0       -1.950763   -4.291899    3.374580
     97          1           0       -3.426622   -5.667898    3.472181
     98          1           0        2.573086   -2.025273   -1.170349
     99          1           0        2.672056   -0.553263   -2.317268
    100          1           0        4.108602   -0.956620    0.390297
    101          1           0        5.729388    1.475755   -2.381370
    102          1           0        5.115674   -0.222558   -3.545368
    103          1           0        3.879778    0.924939   -2.813212
    104          1           0        6.488921    1.585885   -0.564239
    105          1           0        6.111592    0.393157    0.509995
    106          1           0        7.279423   -1.327490   -1.056505
    107          1           0        7.772417    0.034168   -2.150789
    108          1           0        9.015945    1.046628   -0.223690
    109          1           0        8.866397   -0.361958    0.757351
    110          1           0       10.300405   -0.258808   -1.963556
    111          1           0        9.112741   -2.209169   -1.408607
    112          1           0       10.903435   -2.562109   -1.435544
    113          1           0        9.785374   -2.558962    0.074334
    114          1           0       11.395207    1.062852   -0.250200
    115          1           0       11.185693   -0.312190    0.940720
    116          1           0       12.814046   -1.745522   -0.377053
    117          1           0       12.976947   -0.441722   -1.843311
    118          1           0       13.679329    1.049431    0.026427
    119          1           0       13.697805   -0.137628    1.257646
    120          1           0       15.251838    0.288581   -1.338005
    121          1           0       15.044425   -2.268060   -1.324770
    122          1           0       16.456059   -1.830835   -0.524775
    123          1           0       15.200340   -2.200798    0.641302
    124          1           0       15.872982    1.581824    0.695331
    125          1           0       16.376623    0.314862    1.624271
    126          1           0       18.277930   -0.355978   -0.376194
    127          1           0       17.643735    1.048986   -1.120649
    128          1           0       18.287746    2.543325    0.764621
    129          1           0       18.972008    1.107268    1.738329
    130          1           0       20.475906    0.614696    0.163365
    131          1           0       20.049364    3.176741   -1.490543
    132          1           0       21.283289    2.188377   -1.539023
    133          1           0       19.532313    1.539666   -1.817513
    134          1           0       20.828144    1.881257    2.272612
    135          1           0       22.095631    2.218107    0.993268
    136          1           0       21.203478    3.364168    0.981833
    137          1           0       -7.077386    1.753095   -0.105449
    138          1           0       -7.450639   -0.248426   -0.230788
 ---------------------------------------------------------------------

 SCF Done:  E(RB3LYP) =  -2733.01733001     A.U. after   17 cycles

 Excitation energies and oscillator strengths:

 Excited State   1:      Singlet-A      2.1503 eV  576.58 nm  f=0.1086  <S**2>=0.000
     235 -> 237        0.46255
     235 -> 238        0.20341
     236 -> 237       -0.40971
     236 -> 238        0.26229
 This state for optimization and/or second-order correction.
 Total Energy, E(TD-HF/TD-KS) =  -2732.93830633
 Copying the excited state density for this state as the 1-particle RhoCI density.

 The electronic state is 1-A.
 Alpha  occ. eigenvalues --  -19.16723 -19.16536 -19.13947 -19.13278 -19.12226
 Alpha  occ. eigenvalues --  -14.36648 -14.36601 -14.32516 -14.29402 -10.32407
 Alpha  occ. eigenvalues --  -10.31301 -10.27837 -10.25252 -10.24534 -10.23704
 Alpha  occ. eigenvalues --  -10.23645 -10.23569 -10.23283 -10.22970 -10.22587
 Alpha  occ. eigenvalues --  -10.22535 -10.22086 -10.21904 -10.21667 -10.21577
 Alpha  occ. eigenvalues --  -10.21560 -10.21314 -10.21265 -10.21205 -10.21187
 Alpha  occ. eigenvalues --  -10.21129 -10.20801 -10.20622 -10.20377 -10.20189
 Alpha  occ. eigenvalues --  -10.19994 -10.19844 -10.19767 -10.19724 -10.19420
 Alpha  occ. eigenvalues --  -10.19210 -10.19188 -10.19182 -10.19144 -10.19137
 Alpha  occ. eigenvalues --  -10.18998 -10.18933 -10.18894 -10.18763 -10.18707
 Alpha  occ. eigenvalues --  -10.18684 -10.18483 -10.18466 -10.18400 -10.18327
 Alpha  occ. eigenvalues --  -10.18282 -10.18046 -10.18038 -10.17876 -10.17516
 Alpha  occ. eigenvalues --  -10.17459 -10.17381 -10.16848 -10.16701  -1.09973
 Alpha  occ. eigenvalues --   -1.04724  -1.04298  -1.02007  -0.98239  -0.98088
 Alpha  occ. eigenvalues --   -0.97607  -0.94034  -0.92826  -0.84659  -0.82810
 Alpha  occ. eigenvalues --   -0.82069  -0.81921  -0.81558  -0.81521  -0.81100
 Alpha  occ. eigenvalues --   -0.80307  -0.80160  -0.79842  -0.79326  -0.78256
 Alpha  occ. eigenvalues --   -0.76925  -0.76611  -0.75678  -0.75412  -0.74503
 Alpha  occ. eigenvalues --   -0.73972  -0.73185  -0.72810  -0.71939  -0.71174
 Alpha  occ. eigenvalues --   -0.70324  -0.69603  -0.68407  -0.67940  -0.67722
 Alpha  occ. eigenvalues --   -0.67497  -0.67092  -0.66701  -0.66529  -0.64631
 Alpha  occ. eigenvalues --   -0.64104  -0.62851  -0.62177  -0.62059  -0.61416
 Alpha  occ. eigenvalues --   -0.61292  -0.59478  -0.58907  -0.58138  -0.57046
 Alpha  occ. eigenvalues --   -0.56690  -0.55987  -0.55453  -0.55105  -0.54790
 Alpha  occ. eigenvalues --   -0.54470  -0.54377  -0.54090  -0.54078  -0.53446
 Alpha  occ. eigenvalues --   -0.52613  -0.51990  -0.51528  -0.51274  -0.50262
 Alpha  occ. eigenvalues --   -0.49521  -0.49401  -0.49163  -0.49033  -0.48204
 Alpha  occ. eigenvalues --   -0.48170  -0.47552  -0.47523  -0.47214  -0.47150
 Alpha  occ. eigenvalues --   -0.47047  -0.46784  -0.46546  -0.46233  -0.45824
 Alpha  occ. eigenvalues --   -0.45539  -0.45475  -0.45259  -0.45032  -0.44920
 Alpha  occ. eigenvalues --   -0.44427  -0.44393  -0.44183  -0.43800  -0.43603
 Alpha  occ. eigenvalues --   -0.43453  -0.43263  -0.43210  -0.42943  -0.42729
 Alpha  occ. eigenvalues --   -0.42583  -0.42528  -0.42390  -0.41912  -0.41740
 Alpha  occ. eigenvalues --   -0.41383  -0.40900  -0.40572  -0.40359  -0.40336
 Alpha  occ. eigenvalues --   -0.40094  -0.39949  -0.39725  -0.39532  -0.39364
 Alpha  occ. eigenvalues --   -0.39170  -0.39123  -0.38918  -0.38747  -0.38623
 Alpha  occ. eigenvalues --   -0.38236  -0.38142  -0.37943  -0.37872  -0.37743
 Alpha  occ. eigenvalues --   -0.37429  -0.37245  -0.36966  -0.36716  -0.36676
 Alpha  occ. eigenvalues --   -0.36366  -0.36267  -0.36043  -0.35783  -0.35593
 Alpha  occ. eigenvalues --   -0.35474  -0.35463  -0.35154  -0.35134  -0.35073
 Alpha  occ. eigenvalues --   -0.34621  -0.34544  -0.34365  -0.34208  -0.33900
 Alpha  occ. eigenvalues --   -0.33681  -0.33442  -0.33204  -0.32610  -0.32476
 Alpha  occ. eigenvalues --   -0.32380  -0.32342  -0.32232  -0.31837  -0.31275
 Alpha  occ. eigenvalues --   -0.31001  -0.30793  -0.30107  -0.29807  -0.29709
 Alpha  occ. eigenvalues --   -0.29212  -0.28902  -0.28582  -0.28155  -0.28056
 Alpha  occ. eigenvalues --   -0.27179  -0.27048  -0.26952  -0.26661  -0.25166
 Alpha  occ. eigenvalues --   -0.24999  -0.24755  -0.24552  -0.21940  -0.20168
 Alpha  occ. eigenvalues --   -0.19703
 Alpha virt. eigenvalues --   -0.10583  -0.08233  -0.04034  -0.02893  -0.02292
 Alpha virt. eigenvalues --   -0.00433  -0.00370   0.00466   0.02129   0.03263
 Alpha virt. eigenvalues --    0.03734   0.04006   0.04153   0.04369   0.04697

 Mulliken charges:
               1
     1  C    0.018115
     2  C   -0.083917
     3  C   -0.037423
     4  C   -0.058408
     5  N   -0.222453
     6  C   -0.109750
     7  C   -0.040194
     8  C   -0.046471
     9  C   -0.003146
    10  C    0.142021
    11  C    0.013963
    12  C    0.047073
    13  C    0.227889
    14  O   -0.266019
    15  O   -0.408315
    16  N   -0.155228
    17  C    0.140383
    18  C   -0.119142
    19  C    0.042526
    20  C    0.142863
    21  C    0.142415
    22  C   -0.030090
    23  C    0.011974
    24  N   -0.240831
    25  C   -0.020210
    26  C   -0.089453
    27  C   -0.099938
    28  C    0.034906
    29  C    0.050857
    30  C    0.078828
    31  C    0.011556
    32  N   -0.005042
    33  C    0.097391
    34  C   -0.085134
    35  C   -0.105821
    36  C    0.109787
    37  C   -0.004061
    38  C    0.093595
    39  O   -0.130717
    40  C   -0.030210
    41  C    0.185809
    42  O   -0.181553
    43  O   -0.317267
    44  C    0.121407
    45  C    0.280762
    46  C   -0.094488
    47  C   -0.125733
    48  C   -0.018081
    49  C    0.048008
    50  C    0.061944
    51  C    0.018194
    52  C   -0.105431
    53  C    0.108147
    54  C    0.051437
    55  C   -0.034614
    56  C    0.017168
    57  C   -0.088895
    58  C    0.138686
    59  C    0.032148
    60  C    0.055013
    61  C   -0.025071
    62  C   -0.057106
    63  C    0.054066
    64  C   -0.026373
    65  H    0.003707
    66  H   -0.089125
    67  H    0.009197
    68  H    0.034057
    69  H    0.015105
    70  H   -0.045131
    71  H    0.003152
    72  H    0.040944
    73  H    0.030383
    74  H    0.028078
    75  H    0.044401
    76  H    0.060187
    77  H    0.028513
    78  H   -0.079132
    79  H    0.031219
    80  H    0.030754
    81  H   -0.019087
    82  H    0.041230
    83  H    0.026070
    84  H    0.003554
    85  H    0.008156
    86  H    0.005870
    87  H   -0.010963
    88  H    0.054900
    89  H   -0.036419
    90  H    0.017424
    91  H    0.057027
    92  H    0.029689
    93  H    0.061150
    94  H    0.065088
    95  H    0.045539
    96  H    0.036687
    97  H    0.052993
    98  H    0.015228
    99  H    0.028532
   100  H   -0.017483
   101  H    0.038347
   102  H    0.062222
   103  H    0.034706
   104  H    0.003678
   105  H   -0.024149
   106  H    0.008222
   107  H    0.011061
   108  H   -0.019830
   109  H   -0.018405
   110  H   -0.014779
   111  H   -0.035844
   112  H    0.020704
   113  H   -0.007168
   114  H    0.000355
   115  H   -0.009069
   116  H    0.017703
   117  H    0.025041
   118  H   -0.030448
   119  H   -0.018341
   120  H   -0.006728
   121  H    0.021397
   122  H   -0.087343
   123  H    0.021348
   124  H   -0.013773
   125  H   -0.006906
   126  H    0.014913
   127  H   -0.011265
   128  H    0.004285
   129  H    0.005211
   130  H   -0.017399
   131  H   -0.015293
   132  H   -0.010812
   133  H    0.002465
   134  H    0.030701
   135  H   -0.009214
   136  H   -0.007602
   137  H    0.209572
   138  H    0.108597
 Sum of Mulliken charges =   0.00000

 Dipole moment (field-independent basis, Debye):
    X=              1.3929    Y=              5.8116    Z=              0.0820  Tot=              5.9768
 Quadrupole moment (field-independent basis, Debye-Ang):
   XX=           -348.1903   YY=           -385.9631   ZZ=           -395.6686
   XY=            -32.2414   XZ=             13.3929   YZ=             -2.0754

 Normal termination of Gaussian 09 at Fri Jul 26 14:44:18 2019.
