 Gaussian 09, Revision D.01,
 Gaussian 09:  ES64L-G09RevD.01 24-Apr-2013

 --------------------------
 # td=(NStates=1) B3LYP/SVP
 --------------------------

 --
 TD
 --
 Symbolic Z-matrix:
 Charge =  0 Multiplicity = 1

                         Standard orientation:
 ---------------------------------------------------------------------
 Center     Atomic      Atomic             Coordinates (Angstroms)
 Number     Number       Type             X           Y           Z
 ---------------------------------------------------------------------
      1          6           0       -5.150947   -1.834024    0.470959
      2          6           0       -4.798474    2.795657    1.490406
      3          6           0       -9.285074    3.322247   -0.174380
      4          6           0       -9.703479   -1.561383   -1.047438
      5          7           0       -5.205312    0.510768    0.770175
      6          6           0       -4.524165   -0.650305    0.864618
      7          6           0       -3.087751   -0.482777    1.439848
      8          6           0       -3.058201    0.930017    2.040691
      9          6           0       -4.425325    1.409781    1.379703
     10          6           0       -3.223433    0.895185    3.547288
     11          6           0       -2.089553   -0.701850    0.252743
     12          6           0       -0.647896   -0.869007    0.603797
     13          6           0        0.399689   -1.070821   -0.447209
     14          8           0        0.129950   -1.286180   -1.636126
     15          8           0        1.645803   -0.978957    0.079583
     16          7           0       -7.019595    2.745096    0.415477
     17          6           0       -5.915951    3.432481    0.983227
     18          6           0       -6.241127    4.844172    1.008679
     19          6           0       -7.619050    4.820685    0.575051
     20          6           0       -8.064884    3.635424    0.195427
     21          6           0       -5.455549    5.947121    1.496700
     22          6           0       -8.301000    6.193820    0.486651
     23          6           0       -9.004269    6.659146   -0.461317
     24          7           0       -9.206203    0.767729   -0.562949
     25          6           0       -9.843777    2.039456   -0.626180
     26          6           0      -11.276453    1.782344   -1.036961
     27          6           0      -11.433726    0.441805   -1.250851
     28          6           0      -10.115330   -0.119435   -0.939245
     29          6           0      -12.261078    2.830794   -1.376074
     30          6           0      -12.659747   -0.216516   -1.803919
     31          6           0      -12.681032   -0.422523   -3.339192
     32          7           0       -7.424076   -1.308905   -0.278478
     33          6           0       -8.443556   -2.088904   -0.746275
     34          6           0       -8.055675   -3.417174   -0.812158
     35          6           0       -6.763062   -3.401145   -0.388551
     36          6           0       -6.377718   -2.036196   -0.088184
     37          6           0       -8.870450   -4.500653   -1.288063
     38          6           0       -5.564815   -4.212469   -0.062015
     39          8           0       -5.450300   -5.423953   -0.251080
     40          6           0       -4.372292   -3.247782    0.526661
     41          6           0       -3.946162   -3.805123    1.794756
     42          8           0       -4.154615   -3.277256    2.872356
     43          8           0       -3.295423   -5.012074    1.647571
     44          6           0       -2.907201   -5.600640    2.938906
     45          6           0        2.689294   -1.099495   -0.996315
     46          6           0        4.086129   -0.829597   -0.385876
     47          6           0        5.008447    0.098168   -0.980285
     48          6           0        4.923985    0.744182   -2.253951
     49          6           0        6.243222    0.385081   -0.161829
     50          6           0        7.559804   -0.275657   -0.769350
     51          6           0        8.824133   -0.046336   -0.043332
     52          6           0       10.086860   -0.590303   -0.756777
     53          6           0        9.969690   -2.110890   -0.981043
     54          6           0       11.363548   -0.338158    0.040952
     55          6           0       12.708115   -0.616241   -0.632196
     56          6           0       13.810029   -0.064710    0.180672
     57          6           0       15.304635   -0.198262   -0.495151
     58          6           0       15.622150   -1.817433   -0.617458
     59          6           0       16.275093    0.554336    0.428910
     60          6           0       17.673055    0.729330   -0.221497
     61          6           0       18.695730    1.557329    0.569789
     62          6           0       20.073772    1.618300    0.012362
     63          6           0       20.169790    2.350893   -1.492542
     64          6           0       20.992039    2.372260    0.954870
     65          1           0       -4.059784    3.498977    1.828959
     66          1           0       -9.868747    4.224335   -0.513409
     67          1           0      -10.378594   -2.285015   -1.539522
     68          1           0       -2.885213   -1.393350    2.160315
     69          1           0       -2.141019    1.528260    1.671458
     70          1           0       -2.401715    0.375012    4.015328
     71          1           0       -3.357198    1.916755    3.983070
     72          1           0       -4.276954    0.369788    3.811580
     73          1           0       -2.651710   -1.575238   -0.390749
     74          1           0       -2.267880    0.136768   -0.441753
     75          1           0       -0.382126   -0.020061    1.523820
     76          1           0       -0.597007   -1.811248    1.160779
     77          1           0       -4.523222    6.203848    0.905890
     78          1           0       -5.951588    6.915105    1.381999
     79          1           0       -4.972199    5.981280    2.542412
     80          1           0       -8.239657    6.883696    1.453191
     81          1           0       -9.311184    6.027418   -1.258183
     82          1           0       -9.504233    7.570400   -0.476986
     83          1           0      -12.771389    3.461509   -0.563087
     84          1           0      -11.859146    3.572845   -1.983593
     85          1           0      -13.150843    2.387256   -1.821167
     86          1           0      -12.619326   -1.283040   -1.276515
     87          1           0      -13.493474    0.339744   -1.587473
     88          1           0      -12.781933    0.439742   -3.793231
     89          1           0      -11.892855   -1.010720   -3.671852
     90          1           0      -13.722307   -0.813994   -3.445857
     91          1           0       -9.894756   -4.423699   -0.754905
     92          1           0       -9.176213   -4.463809   -2.404935
     93          1           0       -8.472063   -5.487534   -1.032148
     94          1           0       -3.712627   -3.204465   -0.299316
     95          1           0       -2.413547   -6.588047    2.699090
     96          1           0       -2.307567   -4.986446    3.643332
     97          1           0       -3.795588   -6.161196    3.433664
     98          1           0        2.569496   -2.157697   -1.218351
     99          1           0        2.535855   -0.482104   -1.866002
    100          1           0        4.237779   -1.373057    0.548365
    101          1           0        5.136866    1.909866   -2.019317
    102          1           0        5.740539    0.250983   -3.027802
    103          1           0        3.868820    0.570283   -2.690476
    104          1           0        6.412870    1.362910   -0.287225
    105          1           0        6.055882    0.026122    0.818524
    106          1           0        7.410980   -1.457723   -0.961768
    107          1           0        7.479210   -0.083565   -1.783307
    108          1           0        8.869274    0.965456    0.154802
    109          1           0        8.872718   -0.505549    1.001224
    110          1           0       10.233659   -0.074831   -1.754773
    111          1           0        9.233922   -2.473092   -1.711408
    112          1           0       10.882994   -2.424479   -1.327233
    113          1           0        9.789041   -2.602142   -0.153921
    114          1           0       11.321494    0.860332    0.238647
    115          1           0       11.141793   -0.651553    1.016762
    116          1           0       12.812551   -1.750941   -0.695906
    117          1           0       12.774388   -0.103123   -1.703376
    118          1           0       13.566586    0.955483    0.476738
    119          1           0       14.043039   -0.557792    1.128945
    120          1           0       15.090715    0.238413   -1.497705
    121          1           0       14.925745   -2.415068   -1.256300
    122          1           0       16.791500   -1.947750   -0.931335
    123          1           0       15.372652   -2.210842    0.247472
    124          1           0       15.741610    1.606147    0.551775
    125          1           0       16.466100   -0.029769    1.486563
    126          1           0       18.116299   -0.268953   -0.443432
    127          1           0       17.533312    1.173437   -1.122297
    128          1           0       18.317881    2.522515    0.448446
    129          1           0       18.872920    1.302302    1.466134
    130          1           0       20.481228    0.644651   -0.072802
    131          1           0       19.881386    3.267732   -1.323695
    132          1           0       21.152000    2.260132   -2.092881
    133          1           0       19.524436    1.703593   -2.065300
    134          1           0       21.152054    2.005669    2.041879
    135          1           0       22.132136    2.437418    0.426623
    136          1           0       20.959481    3.488299    1.245596
    137          1           0       -7.231005    1.825071    0.272991
    138          1           0       -7.319624   -0.292337   -0.281397
 ---------------------------------------------------------------------

 SCF Done:  E(RB3LYP) =  -2733.08722674     A.U. after   17 cycles

 Excitation energies and oscillator strengths:

 Excited State   1:      Singlet-A      2.0819 eV  595.53 nm  f=0.1371  <S**2>=0.000
     235 -> 237        0.19684
     235 -> 238       -0.29606
     236 -> 237        0.58404
     236 -> 238        0.16942
 This state for optimization and/or second-order correction.
 Total Energy, E(TD-HF/TD-KS) =  -2733.01071834
 Copying the excited state density for this state as the 1-particle RhoCI density.

 The electronic state is 1-A.
 Alpha  occ. eigenvalues --  -19.17939 -19.17853 -19.12440 -19.12381 -19.12106
 Alpha  occ. eigenvalues --  -14.36870 -14.35061 -14.32877 -14.29988 -10.31710
 Alpha  occ. eigenvalues --  -10.31685 -10.28409 -10.25186 -10.24606 -10.23829
 Alpha  occ. eigenvalues --  -10.23541 -10.23225 -10.22995 -10.22773 -10.22144
 Alpha  occ. eigenvalues --  -10.22024 -10.21813 -10.21758 -10.21733 -10.21419
 Alpha  occ. eigenvalues --  -10.21393 -10.21057 -10.21013 -10.20889 -10.20883
 Alpha  occ. eigenvalues --  -10.20559 -10.20450 -10.20419 -10.20417 -10.20301
 Alpha  occ. eigenvalues --  -10.20280 -10.20248 -10.20085 -10.20018 -10.19935
 Alpha  occ. eigenvalues --  -10.19891 -10.19682 -10.19586 -10.19547 -10.19255
 Alpha  occ. eigenvalues --  -10.19177 -10.19063 -10.19046 -10.18785 -10.18656
 Alpha  occ. eigenvalues --  -10.18508 -10.18506 -10.18357 -10.18236 -10.18070
 Alpha  occ. eigenvalues --  -10.17967 -10.17776 -10.17685 -10.17589 -10.17452
 Alpha  occ. eigenvalues --  -10.17334 -10.16869 -10.15747 -10.15641  -1.08166
 Alpha  occ. eigenvalues --   -1.07900  -1.01904  -1.01036  -0.99876  -0.99048
 Alpha  occ. eigenvalues --   -0.97247  -0.95304  -0.92333  -0.84078  -0.83016
 Alpha  occ. eigenvalues --   -0.82991  -0.81896  -0.81830  -0.81491  -0.81123
 Alpha  occ. eigenvalues --   -0.80996  -0.79692  -0.79355  -0.78172  -0.77457
 Alpha  occ. eigenvalues --   -0.76729  -0.76419  -0.75880  -0.75173  -0.74590
 Alpha  occ. eigenvalues --   -0.73335  -0.73033  -0.72784  -0.71843  -0.71698
 Alpha  occ. eigenvalues --   -0.70653  -0.69372  -0.68919  -0.68622  -0.67916
 Alpha  occ. eigenvalues --   -0.67862  -0.67195  -0.66490  -0.65547  -0.64604
 Alpha  occ. eigenvalues --   -0.64387  -0.62668  -0.62265  -0.62070  -0.61387
 Alpha  occ. eigenvalues --   -0.60614  -0.59534  -0.58432  -0.57755  -0.57355
 Alpha  occ. eigenvalues --   -0.57246  -0.56977  -0.56355  -0.56204  -0.56010
 Alpha  occ. eigenvalues --   -0.55313  -0.55130  -0.54761  -0.53311  -0.52837
 Alpha  occ. eigenvalues --   -0.52616  -0.52065  -0.51958  -0.51085  -0.50613
 Alpha  occ. eigenvalues --   -0.49578  -0.48971  -0.48819  -0.48702  -0.48318
 Alpha  occ. eigenvalues --   -0.48125  -0.47588  -0.47379  -0.47244  -0.47206
 Alpha  occ. eigenvalues --   -0.47068  -0.46794  -0.46581  -0.45990  -0.45858
 Alpha  occ. eigenvalues --   -0.45648  -0.45591  -0.45394  -0.45121  -0.44775
 Alpha  occ. eigenvalues --   -0.44499  -0.44040  -0.43830  -0.43788  -0.43570
 Alpha  occ. eigenvalues --   -0.43503  -0.43461  -0.43222  -0.42810  -0.42673
 Alpha  occ. eigenvalues --   -0.42409  -0.42184  -0.41892  -0.41442  -0.41355
 Alpha  occ. eigenvalues --   -0.41266  -0.41102  -0.40853  -0.40652  -0.40541
 Alpha  occ. eigenvalues --   -0.40343  -0.39909  -0.39662  -0.39625  -0.39458
 Alpha  occ. eigenvalues --   -0.39283  -0.38958  -0.38917  -0.38602  -0.38562
 Alpha  occ. eigenvalues --   -0.38522  -0.38223  -0.38210  -0.38101  -0.37940
 Alpha  occ. eigenvalues --   -0.37724  -0.37319  -0.37155  -0.37084  -0.37014
 Alpha  occ. eigenvalues --   -0.36598  -0.36541  -0.36300  -0.36073  -0.35986
 Alpha  occ. eigenvalues --   -0.35838  -0.35753  -0.35333  -0.35133  -0.35121
 Alpha  occ. eigenvalues --   -0.35011  -0.34646  -0.34556  -0.34248  -0.33666
 Alpha  occ. eigenvalues --   -0.33331  -0.33115  -0.32952  -0.32798  -0.32512
 Alpha  occ. eigenvalues --   -0.32161  -0.32033  -0.31834  -0.31355  -0.31275
 Alpha  occ. eigenvalues --   -0.30662  -0.30441  -0.30429  -0.30166  -0.30075
 Alpha  occ. eigenvalues --   -0.29930  -0.29798  -0.28708  -0.28555  -0.28197
 Alpha  occ. eigenvalues --   -0.28067  -0.27444  -0.27041  -0.26402  -0.26016
 Alpha  occ. eigenvalues --   -0.24618  -0.24200  -0.23489  -0.22324  -0.19936
 Alpha  occ. eigenvalues --   -0.18823
 Alpha virt. eigenvalues --   -0.10022  -0.07943  -0.04404  -0.02198  -0.01194
 Alpha virt. eigenvalues --   -0.00347  -0.00045   0.00912   0.02382   0.03725
 Alpha virt. eigenvalues --    0.04117   0.04328   0.04430   0.05051   0.05184

 Mulliken charges:
               1
     1  C   -0.005567
     2  C   -0.046796
     3  C   -0.084006
     4  C   -0.091110
     5  N   -0.152255
     6  C   -0.094471
     7  C   -0.055765
     8  C   -0.022530
     9  C   -0.025890
    10  C    0.051209
    11  C   -0.000936
    12  C    0.049584
    13  C    0.201378
    14  O   -0.259784
    15  O   -0.339720
    16  N   -0.067099
    17  C    0.119573
    18  C   -0.053139
    19  C    0.018571
    20  C    0.110210
    21  C    0.050735
    22  C   -0.061750
    23  C    0.005393
    24  N   -0.248376
    25  C    0.020140
    26  C   -0.107139
    27  C   -0.085510
    28  C    0.029457
    29  C    0.105667
    30  C    0.041181
    31  C    0.125528
    32  N    0.069671
    33  C    0.076775
    34  C   -0.139180
    35  C    0.057629
    36  C   -0.021169
    37  C    0.060621
    38  C    0.020334
    39  O   -0.177056
    40  C   -0.015585
    41  C    0.253379
    42  O   -0.232795
    43  O   -0.315886
    44  C    0.154608
    45  C    0.286625
    46  C   -0.089084
    47  C   -0.178559
    48  C   -0.003991
    49  C    0.207218
    50  C   -0.022402
    51  C    0.124328
    52  C   -0.090184
    53  C    0.146087
    54  C   -0.017233
    55  C    0.086499
    56  C   -0.015569
    57  C   -0.095022
    58  C    0.028836
    59  C   -0.006971
    60  C    0.058957
    61  C    0.195138
    62  C   -0.068789
    63  C    0.037386
    64  C   -0.079481
    65  H   -0.039602
    66  H   -0.010216
    67  H   -0.018329
    68  H    0.033651
    69  H    0.023199
    70  H    0.019011
    71  H    0.014409
    72  H    0.047343
    73  H    0.030092
    74  H   -0.001583
    75  H    0.053892
    76  H    0.024453
    77  H    0.016816
    78  H    0.003212
    79  H    0.034625
    80  H    0.034258
    81  H    0.006814
    82  H    0.000832
    83  H    0.011162
    84  H    0.001161
    85  H   -0.011998
    86  H    0.014482
    87  H   -0.023559
    88  H   -0.040222
    89  H    0.005726
    90  H    0.001631
    91  H    0.029683
    92  H    0.049316
    93  H    0.037357
    94  H    0.057679
    95  H    0.026349
    96  H    0.055421
    97  H    0.036416
    98  H    0.012895
    99  H    0.017471
   100  H    0.000830
   101  H    0.049407
   102  H    0.073997
   103  H    0.028445
   104  H   -0.045514
   105  H   -0.011710
   106  H   -0.010427
   107  H   -0.048644
   108  H   -0.041439
   109  H   -0.007753
   110  H   -0.014595
   111  H    0.003220
   112  H   -0.037105
   113  H   -0.048413
   114  H   -0.012571
   115  H   -0.029341
   116  H    0.016111
   117  H    0.014165
   118  H   -0.015251
   119  H   -0.014254
   120  H   -0.000223
   121  H    0.015026
   122  H    0.039589
   123  H   -0.033550
   124  H    0.014670
   125  H    0.021068
   126  H   -0.014922
   127  H   -0.037076
   128  H   -0.034157
   129  H   -0.069126
   130  H   -0.015511
   131  H   -0.014048
   132  H    0.020918
   133  H    0.005390
   134  H    0.013785
   135  H    0.010194
   136  H    0.011566
   137  H    0.086218
   138  H    0.155265
 Sum of Mulliken charges =   0.00000

 Dipole moment (field-independent basis, Debye):
    X=              2.3243    Y=              3.5833    Z=              0.4531  Tot=              4.2951
 Quadrupole moment (field-independent basis, Debye-Ang):
   XX=           -359.8264   YY=           -378.9628   ZZ=           -392.9816
   XY=            -19.0632   XZ=             13.3482   YZ=             -3.5479

 Normal termination of Gaussian 09 at Fri Aug  2 00:48:32 2019.
