 Gaussian 09, Revision D.01,
 Gaussian 09:  ES64L-G09RevD.01 24-Apr-2013

 --------------------------
 # td=(NStates=1) B3LYP/SVP
 --------------------------

 --
 TD
 --
 Symbolic Z-matrix:
 Charge =  0 Multiplicity = 1

                         Standard orientation:
 ---------------------------------------------------------------------
 Center     Atomic      Atomic             Coordinates (Angstroms)
 Number     Number       Type             X           Y           Z
 ---------------------------------------------------------------------
      1          6           0       -5.048549   -1.888015    0.380022
      2          6           0       -4.679685    2.706427    1.467384
      3          6           0       -9.292332    3.347330   -0.300210
      4          6           0       -9.687850   -1.360055   -0.901146
      5          7           0       -5.159468    0.403034    0.769986
      6          6           0       -4.516541   -0.771638    0.744598
      7          6           0       -3.050536   -0.577697    1.204039
      8          6           0       -3.081375    0.800080    1.906351
      9          6           0       -4.442367    1.358634    1.249848
     10          6           0       -3.010617    0.856262    3.436549
     11          6           0       -2.086989   -0.795742    0.091121
     12          6           0       -0.575691   -0.709991    0.613878
     13          6           0        0.314440   -1.156823   -0.581162
     14          8           0        0.041695   -1.599809   -1.589556
     15          8           0        1.552366   -0.812676   -0.265723
     16          7           0       -6.928196    2.757106    0.374520
     17          6           0       -5.945418    3.356648    1.059937
     18          6           0       -6.180252    4.750867    1.160403
     19          6           0       -7.486535    4.951124    0.557194
     20          6           0       -7.968406    3.573684    0.139605
     21          6           0       -5.267517    5.797025    1.720898
     22          6           0       -8.159399    6.200356    0.487113
     23          6           0       -8.954710    6.647847   -0.565468
     24          7           0       -9.169057    0.960272   -0.516676
     25          6           0       -9.799913    2.142921   -0.643893
     26          6           0      -11.178347    1.959682   -0.984091
     27          6           0      -11.428975    0.542628   -1.142672
     28          6           0      -10.135275    0.042869   -0.782760
     29          6           0      -12.290123    3.026685   -1.251384
     30          6           0      -12.750896   -0.188309   -1.606817
     31          6           0      -12.798334   -0.265294   -3.150701
     32          7           0       -7.489378   -1.298162   -0.069564
     33          6           0       -8.539551   -2.009216   -0.614859
     34          6           0       -8.166550   -3.431873   -0.567861
     35          6           0       -6.884726   -3.461039   -0.194365
     36          6           0       -6.457056   -2.055710   -0.012751
     37          6           0       -9.055696   -4.604126   -1.026134
     38          6           0       -5.706183   -4.354024    0.063472
     39          8           0       -5.682979   -5.571461   -0.023322
     40          6           0       -4.495501   -3.412744    0.366564
     41          6           0       -3.767266   -3.869210    1.612116
     42          8           0       -4.076780   -3.514300    2.732065
     43          8           0       -2.940054   -4.887505    1.314760
     44          6           0       -2.291911   -5.385049    2.416803
     45          6           0        2.625863   -0.959972   -1.187377
     46          6           0        3.913286   -0.642215   -0.559847
     47          6           0        4.903481    0.043451   -0.990839
     48          6           0        4.959595    0.661072   -2.396421
     49          6           0        6.239162    0.271821   -0.160876
     50          6           0        7.505549   -0.255759   -0.865543
     51          6           0        8.760223   -0.254134   -0.033298
     52          6           0        9.959850   -0.794213   -0.683331
     53          6           0        9.968385   -2.382750   -0.584054
     54          6           0       11.190297   -0.323481    0.091130
     55          6           0       12.623069   -0.606423   -0.472389
     56          6           0       13.810291    0.011973    0.368390
     57          6           0       15.135873   -0.092112   -0.376540
     58          6           0       15.579442   -1.652039   -0.548710
     59          6           0       16.193176    0.686577    0.477524
     60          6           0       17.581461    0.729783   -0.291355
     61          6           0       18.612767    1.699328    0.413263
     62          6           0       20.051420    1.746740    0.002422
     63          6           0       20.118695    2.313047   -1.484503
     64          6           0       20.925488    2.428054    0.892279
     65          1           0       -3.940086    3.288882    1.955152
     66          1           0       -9.994886    4.053898   -0.665184
     67          1           0      -10.539405   -2.155355   -1.409354
     68          1           0       -2.774341   -1.427984    2.013468
     69          1           0       -2.237700    1.311396    1.282295
     70          1           0       -1.916621    0.589767    3.621630
     71          1           0       -3.308766    1.927568    3.876964
     72          1           0       -3.644957    0.113107    4.000519
     73          1           0       -2.277910   -1.738293   -0.394912
     74          1           0       -2.053521   -0.052654   -0.795347
     75          1           0       -0.289520    0.133002    0.965217
     76          1           0       -0.733696   -1.471983    1.300520
     77          1           0       -4.524151    6.006030    1.034673
     78          1           0       -5.899103    6.773314    1.712009
     79          1           0       -4.808067    5.864700    2.653123
     80          1           0       -8.197958    6.920384    1.356364
     81          1           0       -9.137075    5.917341   -1.545631
     82          1           0       -9.623749    7.756333   -0.589452
     83          1           0      -12.428130    3.532232   -0.101886
     84          1           0      -12.031034    3.823018   -2.018038
     85          1           0      -13.363144    2.643720   -1.660661
     86          1           0      -12.817065   -1.044631   -0.920450
     87          1           0      -13.489259    0.518783   -1.404918
     88          1           0      -12.779794    0.496639   -3.836195
     89          1           0      -12.022858   -1.039654   -3.583175
     90          1           0      -13.933561   -0.756845   -3.342119
     91          1           0       -9.935929   -4.516867   -0.327781
     92          1           0       -9.378377   -4.473752   -2.027031
     93          1           0       -8.533002   -5.529576   -0.920533
     94          1           0       -3.728148   -3.654790   -0.420709
     95          1           0       -1.723599   -6.294686    2.139069
     96          1           0       -1.625074   -4.662125    2.977867
     97          1           0       -3.072910   -5.677177    3.129612
     98          1           0        2.853234   -2.032311   -1.648012
     99          1           0        2.443499   -0.149312   -2.157068
    100          1           0        3.916523   -1.078288    0.616226
    101          1           0        5.252439    1.849470   -2.622508
    102          1           0        5.791150    0.317989   -3.061391
    103          1           0        4.080952    0.362263   -2.922688
    104          1           0        6.409015    1.466217    0.096640
    105          1           0        6.055604   -0.085401    0.899498
    106          1           0        7.386945   -1.347634   -1.162580
    107          1           0        7.681242    0.244242   -1.729502
    108          1           0        9.014731    0.738999    0.332624
    109          1           0        8.552200   -0.654712    1.040123
    110          1           0       10.153683   -0.348836   -1.833187
    111          1           0        9.243031   -2.759587   -1.358577
    112          1           0       10.993693   -2.640278   -0.734500
    113          1           0        9.810907   -2.561872    0.415148
    114          1           0       11.007857    0.892424    0.202723
    115          1           0       11.184223   -0.653195    1.160439
    116          1           0       12.853576   -1.723578   -0.394216
    117          1           0       12.734141   -0.297886   -1.562423
    118          1           0       13.686614    1.086973    0.355773
    119          1           0       13.946731   -0.541306    1.448651
    120          1           0       15.025317    0.306976   -1.341570
    121          1           0       15.013396   -2.366847   -1.356549
    122          1           0       16.771012   -1.689073   -0.789605
    123          1           0       15.399005   -2.087482    0.363658
    124          1           0       15.753362    1.807757    0.401526
    125          1           0       16.437213    0.333546    1.632070
    126          1           0       18.194650   -0.300161   -0.458389
    127          1           0       17.427438    1.136000   -1.415387
    128          1           0       18.236294    2.618098    0.534755
    129          1           0       18.535246    1.082692    1.342249
    130          1           0       20.580023    0.795007   -0.021614
    131          1           0       19.714381    3.375548   -1.392250
    132          1           0       21.030815    2.113464   -1.881533
    133          1           0       19.507865    1.610982   -2.111176
    134          1           0       21.056842    2.016433    1.965301
    135          1           0       21.950213    2.061513    0.641187
    136          1           0       20.867776    3.535204    1.293344
    137          1           0       -7.073515    1.623289    0.138923
    138          1           0       -7.391696   -0.260390   -0.004158
 ---------------------------------------------------------------------

 SCF Done:  E(RB3LYP) =  -2732.98944013     A.U. after   17 cycles

 Excitation energies and oscillator strengths:

 Excited State   1:      Singlet-A      2.0799 eV  596.11 nm  f=0.1730  <S**2>=0.000
     235 -> 237       -0.15707
     235 -> 238        0.22506
     236 -> 237        0.62938
     236 -> 238        0.14036
 This state for optimization and/or second-order correction.
 Total Energy, E(TD-HF/TD-KS) =  -2732.91300537
 Copying the excited state density for this state as the 1-particle RhoCI density.

 The electronic state is 1-A.
 Alpha  occ. eigenvalues --  -19.19083 -19.17591 -19.13320 -19.13070 -19.12798
 Alpha  occ. eigenvalues --  -14.38259 -14.37988 -14.31403 -14.29537 -10.32151
 Alpha  occ. eigenvalues --  -10.31006 -10.29233 -10.27060 -10.24482 -10.24377
 Alpha  occ. eigenvalues --  -10.23947 -10.23768 -10.23757 -10.22637 -10.22598
 Alpha  occ. eigenvalues --  -10.22460 -10.22056 -10.22048 -10.22043 -10.22014
 Alpha  occ. eigenvalues --  -10.21739 -10.21343 -10.21037 -10.20918 -10.20705
 Alpha  occ. eigenvalues --  -10.20432 -10.20407 -10.20371 -10.20322 -10.20294
 Alpha  occ. eigenvalues --  -10.20268 -10.20246 -10.20188 -10.20099 -10.20063
 Alpha  occ. eigenvalues --  -10.19991 -10.19914 -10.19781 -10.19703 -10.19620
 Alpha  occ. eigenvalues --  -10.19494 -10.19493 -10.19401 -10.19362 -10.19295
 Alpha  occ. eigenvalues --  -10.19167 -10.19111 -10.19052 -10.19010 -10.18780
 Alpha  occ. eigenvalues --  -10.18697 -10.18642 -10.18308 -10.18249 -10.18135
 Alpha  occ. eigenvalues --  -10.17817 -10.17497 -10.17238 -10.16852  -1.12408
 Alpha  occ. eigenvalues --   -1.11666  -1.03506  -1.03255  -1.01794  -1.01329
 Alpha  occ. eigenvalues --   -0.98677  -0.95533  -0.93831  -0.84009  -0.82647
 Alpha  occ. eigenvalues --   -0.82093  -0.81847  -0.81601  -0.81133  -0.80817
 Alpha  occ. eigenvalues --   -0.80390  -0.80102  -0.78849  -0.78320  -0.77444
 Alpha  occ. eigenvalues --   -0.77019  -0.75875  -0.75660  -0.74349  -0.73820
 Alpha  occ. eigenvalues --   -0.73609  -0.72894  -0.72748  -0.71041  -0.70633
 Alpha  occ. eigenvalues --   -0.69977  -0.69412  -0.68964  -0.67835  -0.67652
 Alpha  occ. eigenvalues --   -0.66714  -0.66594  -0.66321  -0.65955  -0.65380
 Alpha  occ. eigenvalues --   -0.63423  -0.62755  -0.62468  -0.62212  -0.61254
 Alpha  occ. eigenvalues --   -0.60581  -0.58790  -0.58499  -0.58180  -0.56853
 Alpha  occ. eigenvalues --   -0.56753  -0.56496  -0.56156  -0.55981  -0.55776
 Alpha  occ. eigenvalues --   -0.55030  -0.54795  -0.54184  -0.53512  -0.53029
 Alpha  occ. eigenvalues --   -0.52498  -0.52039  -0.51390  -0.50888  -0.50617
 Alpha  occ. eigenvalues --   -0.50388  -0.49731  -0.49432  -0.48815  -0.48256
 Alpha  occ. eigenvalues --   -0.48194  -0.47647  -0.47525  -0.47053  -0.47024
 Alpha  occ. eigenvalues --   -0.46726  -0.46661  -0.46076  -0.45758  -0.45650
 Alpha  occ. eigenvalues --   -0.45314  -0.45183  -0.44986  -0.44805  -0.44666
 Alpha  occ. eigenvalues --   -0.44589  -0.43907  -0.43858  -0.43764  -0.43489
 Alpha  occ. eigenvalues --   -0.43329  -0.43236  -0.42909  -0.42753  -0.42445
 Alpha  occ. eigenvalues --   -0.42370  -0.42241  -0.42051  -0.41746  -0.41609
 Alpha  occ. eigenvalues --   -0.41580  -0.41060  -0.40994  -0.40568  -0.40300
 Alpha  occ. eigenvalues --   -0.40204  -0.40162  -0.40090  -0.39674  -0.39495
 Alpha  occ. eigenvalues --   -0.39366  -0.39163  -0.38842  -0.38774  -0.38756
 Alpha  occ. eigenvalues --   -0.38444  -0.38162  -0.38072  -0.37815  -0.37720
 Alpha  occ. eigenvalues --   -0.37633  -0.37265  -0.37030  -0.36750  -0.36633
 Alpha  occ. eigenvalues --   -0.36558  -0.36274  -0.36151  -0.35973  -0.35304
 Alpha  occ. eigenvalues --   -0.35122  -0.34891  -0.34520  -0.34462  -0.34293
 Alpha  occ. eigenvalues --   -0.34243  -0.34065  -0.33912  -0.33510  -0.33491
 Alpha  occ. eigenvalues --   -0.33243  -0.33109  -0.32430  -0.32080  -0.32054
 Alpha  occ. eigenvalues --   -0.31917  -0.31741  -0.31517  -0.31197  -0.31000
 Alpha  occ. eigenvalues --   -0.30602  -0.30432  -0.30195  -0.30002  -0.29552
 Alpha  occ. eigenvalues --   -0.29492  -0.28868  -0.28738  -0.28572  -0.28285
 Alpha  occ. eigenvalues --   -0.28215  -0.27752  -0.27616  -0.27079  -0.26079
 Alpha  occ. eigenvalues --   -0.25629  -0.25437  -0.23555  -0.21910  -0.20406
 Alpha  occ. eigenvalues --   -0.18597
 Alpha virt. eigenvalues --   -0.10125  -0.07967  -0.04427  -0.02117  -0.01209
 Alpha virt. eigenvalues --    0.00796   0.00908   0.01997   0.02821   0.03370
 Alpha virt. eigenvalues --    0.03752   0.03932   0.04227   0.04415   0.04686

 Mulliken charges:
               1
     1  C    0.116499
     2  C   -0.064394
     3  C   -0.052728
     4  C   -0.123992
     5  N   -0.132167
     6  C   -0.101162
     7  C   -0.111584
     8  C   -0.057566
     9  C   -0.015480
    10  C    0.041672
    11  C   -0.001794
    12  C    0.142561
    13  C    0.123084
    14  O   -0.144343
    15  O   -0.287483
    16  N   -0.084400
    17  C    0.086885
    18  C   -0.132126
    19  C    0.039988
    20  C    0.126272
    21  C    0.142251
    22  C   -0.088630
    23  C   -0.151444
    24  N   -0.246085
    25  C    0.028928
    26  C   -0.120531
    27  C   -0.136480
    28  C    0.025427
    29  C   -0.041385
    30  C    0.179081
    31  C   -0.037036
    32  N    0.032675
    33  C    0.069029
    34  C   -0.185543
    35  C    0.003941
    36  C   -0.034726
    37  C    0.143080
    38  C    0.107489
    39  O   -0.162559
    40  C   -0.030029
    41  C    0.172222
    42  O   -0.228001
    43  O   -0.258325
    44  C    0.169390
    45  C    0.168366
    46  C   -0.141423
    47  C   -0.065846
    48  C    0.022341
    49  C    0.024629
    50  C    0.101230
    51  C    0.034960
    52  C   -0.125823
    53  C    0.128012
    54  C   -0.044540
    55  C    0.012796
    56  C    0.027253
    57  C   -0.064241
    58  C   -0.032880
    59  C   -0.023136
    60  C   -0.086633
    61  C    0.089953
    62  C   -0.041420
    63  C    0.066302
    64  C   -0.006014
    65  H   -0.035186
    66  H   -0.038288
    67  H    0.020368
    68  H    0.034773
    69  H    0.007222
    70  H    0.024432
    71  H    0.034620
    72  H    0.043790
    73  H    0.009151
    74  H    0.012717
    75  H   -0.024427
    76  H   -0.004024
    77  H    0.000782
    78  H    0.002324
    79  H    0.011627
    80  H    0.035501
    81  H    0.059524
    82  H    0.062966
    83  H    0.052744
    84  H    0.042724
    85  H    0.040880
    86  H    0.024067
    87  H   -0.024308
    88  H    0.010825
    89  H    0.023476
    90  H    0.013017
    91  H    0.034217
    92  H    0.026810
    93  H    0.030485
    94  H    0.060979
    95  H    0.033170
    96  H    0.026092
    97  H    0.022258
    98  H    0.057888
    99  H    0.052495
   100  H    0.027452
   101  H    0.034055
   102  H    0.019816
   103  H   -0.012517
   104  H    0.015729
   105  H   -0.002259
   106  H   -0.004039
   107  H   -0.030649
   108  H   -0.039307
   109  H   -0.012707
   110  H    0.010826
   111  H    0.029382
   112  H   -0.017663
   113  H   -0.025956
   114  H    0.001468
   115  H   -0.005629
   116  H    0.015741
   117  H    0.003875
   118  H   -0.013947
   119  H    0.023933
   120  H   -0.014923
   121  H    0.034565
   122  H    0.027164
   123  H   -0.012724
   124  H    0.023705
   125  H    0.038927
   126  H    0.026749
   127  H    0.008507
   128  H   -0.038583
   129  H   -0.013086
   130  H   -0.026073
   131  H    0.025327
   132  H   -0.026795
   133  H    0.001359
   134  H   -0.013878
   135  H   -0.006102
   136  H    0.017239
   137  H    0.227672
   138  H    0.153288
 Sum of Mulliken charges =   0.00000

 Dipole moment (field-independent basis, Debye):
    X=              1.7686    Y=              2.6489    Z=              0.0628  Tot=              3.1857
 Quadrupole moment (field-independent basis, Debye-Ang):
   XX=           -349.3756   YY=           -390.5517   ZZ=           -394.5155
   XY=            -20.9471   XZ=             14.5366   YZ=              0.6266

 Normal termination of Gaussian 09 at Fri Aug  2 22:31:47 2019.
