 Gaussian 09, Revision D.01,
 Gaussian 09:  ES64L-G09RevD.01 24-Apr-2013

 --------------------------
 # td=(NStates=1) B3LYP/SVP
 --------------------------

 --
 TD
 --
 Symbolic Z-matrix:
 Charge =  0 Multiplicity = 1

                         Standard orientation:
 ---------------------------------------------------------------------
 Center     Atomic      Atomic             Coordinates (Angstroms)
 Number     Number       Type             X           Y           Z
 ---------------------------------------------------------------------
      1          6           0       -5.122403   -1.875012    0.511166
      2          6           0       -4.630019    2.841462    1.110526
      3          6           0       -9.414002    3.308014   -0.092806
      4          6           0       -9.858578   -1.474048   -0.854690
      5          7           0       -5.186252    0.525473    0.702646
      6          6           0       -4.504404   -0.710257    0.855528
      7          6           0       -3.015906   -0.550800    1.151191
      8          6           0       -2.999441    0.946130    1.591574
      9          6           0       -4.308324    1.472949    1.155364
     10          6           0       -2.782697    1.196159    3.168908
     11          6           0       -2.054761   -0.834062   -0.032925
     12          6           0       -0.626560   -0.755494    0.317340
     13          6           0        0.348857   -1.068332   -0.795628
     14          8           0        0.134417   -1.522858   -1.879971
     15          8           0        1.610371   -0.764987   -0.361754
     16          7           0       -6.949064    2.728405    0.465426
     17          6           0       -5.857837    3.413037    0.791885
     18          6           0       -6.217792    4.866671    0.956665
     19          6           0       -7.521073    4.884706    0.515992
     20          6           0       -8.026477    3.627429    0.125403
     21          6           0       -5.362912    5.946179    1.344720
     22          6           0       -8.363973    6.135024    0.389530
     23          6           0       -9.409676    6.509366   -0.436888
     24          7           0       -9.254253    0.810151   -0.376532
     25          6           0       -9.863524    1.953207   -0.473491
     26          6           0      -11.342041    1.760726   -0.831325
     27          6           0      -11.500714    0.350200   -1.085306
     28          6           0      -10.269104   -0.165202   -0.759271
     29          6           0      -12.259702    2.916054   -0.978375
     30          6           0      -12.730542   -0.409713   -1.399079
     31          6           0      -12.657530   -0.812499   -2.927216
     32          7           0       -7.492900   -1.245230   -0.140966
     33          6           0       -8.605311   -2.056655   -0.514515
     34          6           0       -8.189874   -3.377700   -0.577449
     35          6           0       -6.896546   -3.388079   -0.167001
     36          6           0       -6.447048   -2.051388    0.100015
     37          6           0       -8.831186   -4.678182   -0.957756
     38          6           0       -5.717006   -4.285453    0.147875
     39          8           0       -5.637329   -5.459340    0.160635
     40          6           0       -4.558579   -3.296781    0.494557
     41          6           0       -3.903999   -3.793322    1.829406
     42          8           0       -4.071289   -3.261884    2.884916
     43          8           0       -2.855774   -4.633376    1.667739
     44          6           0       -2.311532   -5.172819    2.822117
     45          6           0        2.663733   -0.999914   -1.279651
     46          6           0        3.922080   -0.658630   -0.735050
     47          6           0        4.973973    0.192788   -1.233786
     48          6           0        4.898235    0.718760   -2.653921
     49          6           0        6.239941    0.280491   -0.515561
     50          6           0        7.531975   -0.370145   -1.156683
     51          6           0        8.716691   -0.119144   -0.279659
     52          6           0       10.017699   -0.699093   -0.935465
     53          6           0        9.915952   -2.238828   -1.203238
     54          6           0       11.247182   -0.352747   -0.011309
     55          6           0       12.703727   -0.581113   -0.530275
     56          6           0       13.834806   -0.180628    0.350724
     57          6           0       15.301126   -0.336905   -0.269747
     58          6           0       15.702080   -1.824662   -0.344362
     59          6           0       16.171764    0.559287    0.581667
     60          6           0       17.703214    0.647575   -0.021434
     61          6           0       18.634452    1.488679    0.793584
     62          6           0       20.047583    1.715053    0.244166
     63          6           0       20.039888    2.468375   -1.150321
     64          6           0       20.918459    2.483766    1.271612
     65          1           0       -4.041398    3.445059    1.457525
     66          1           0      -10.171223    4.137227   -0.215113
     67          1           0      -10.528314   -2.330122   -1.045429
     68          1           0       -2.911301   -1.160611    1.983775
     69          1           0       -2.100292    1.486748    0.928864
     70          1           0       -1.809058    0.724962    3.527767
     71          1           0       -2.881530    2.318248    3.464574
     72          1           0       -3.478359    0.687301    3.831210
     73          1           0       -2.287620   -1.748540   -0.512773
     74          1           0       -2.312004   -0.007971   -0.734252
     75          1           0       -0.314880    0.214726    0.578538
     76          1           0       -0.379126   -1.467576    1.137982
     77          1           0       -4.733912    6.175489    0.350062
     78          1           0       -5.992455    6.732166    1.597563
     79          1           0       -4.658897    5.477386    2.137048
     80          1           0       -7.995891    6.886134    1.003011
     81          1           0       -9.546569    5.936920   -1.427640
     82          1           0       -9.842345    7.496758   -0.296810
     83          1           0      -12.442378    3.490851   -0.042073
     84          1           0      -11.967654    3.642557   -1.783553
     85          1           0      -13.268909    2.504139   -1.325540
     86          1           0      -12.959212   -1.224286   -0.461199
     87          1           0      -13.638422    0.234378   -1.513680
     88          1           0      -12.468370    0.257651   -3.585773
     89          1           0      -11.962522   -1.521899   -2.894418
     90          1           0      -13.709732   -1.020755   -3.202179
     91          1           0       -9.684733   -4.778909   -0.127174
     92          1           0       -9.297998   -4.572766   -1.954330
     93          1           0       -8.171352   -5.555011   -0.840604
     94          1           0       -3.778429   -3.604329   -0.216102
     95          1           0       -1.564878   -5.968483    2.640282
     96          1           0       -1.946771   -4.433588    3.626933
     97          1           0       -2.974300   -5.651773    3.461329
     98          1           0        2.676370   -1.918894   -1.754386
     99          1           0        2.545549   -0.411121   -2.202118
    100          1           0        4.065537   -0.844845    0.388700
    101          1           0        5.366342    1.526734   -2.579478
    102          1           0        5.492913    0.088334   -3.398044
    103          1           0        3.781448    0.840468   -2.898261
    104          1           0        6.513118    1.255402   -0.324151
    105          1           0        6.237836   -0.393015    0.499627
    106          1           0        7.396901   -1.291540   -1.244654
    107          1           0        7.725912    0.166301   -2.195560
    108          1           0        8.820377    0.844615   -0.091884
    109          1           0        8.466769   -0.717927    0.719953
    110          1           0       10.285904   -0.250088   -2.035704
    111          1           0        9.036854   -2.381413   -2.016221
    112          1           0       10.950373   -2.569806   -1.633354
    113          1           0        9.666847   -2.822211   -0.258321
    114          1           0       11.294214    0.779190    0.167292
    115          1           0       11.181982   -0.866186    0.941616
    116          1           0       13.047003   -1.737593   -0.611701
    117          1           0       12.882863    0.052363   -1.604607
    118          1           0       13.949283    0.879019    0.668226
    119          1           0       13.834574   -0.768599    1.336368
    120          1           0       15.227407   -0.040613   -1.371421
    121          1           0       15.159660   -2.417127   -0.905054
    122          1           0       16.738733   -2.115334   -0.781138
    123          1           0       15.869838   -2.284995    0.714246
    124          1           0       15.767752    1.565929    0.616665
    125          1           0       16.042251    0.300125    1.618780
    126          1           0       18.356297   -0.242194   -0.140156
    127          1           0       17.446858    1.000442   -1.047479
    128          1           0       18.194791    2.670328    0.795116
    129          1           0       18.567564    1.323734    1.933110
    130          1           0       20.558143    0.757548    0.085999
    131          1           0       19.754718    3.591525   -0.981586
    132          1           0       20.974018    2.407731   -1.532934
    133          1           0       19.485734    1.768722   -1.915676
    134          1           0       20.804640    2.096976    2.201677
    135          1           0       21.983222    2.330377    1.001622
    136          1           0       20.579543    3.419326    1.261301
    137          1           0       -6.908746    1.818410    0.441909
    138          1           0       -7.500520   -0.191084   -0.246644
 ---------------------------------------------------------------------

 SCF Done:  E(RB3LYP) =  -2733.05877143     A.U. after   16 cycles

 Excitation energies and oscillator strengths:

 Excited State   1:      Singlet-A      2.0705 eV  598.80 nm  f=0.1368  <S**2>=0.000
     235 -> 237       -0.11823
     235 -> 238        0.26789
     236 -> 237        0.63727
 This state for optimization and/or second-order correction.
 Total Energy, E(TD-HF/TD-KS) =  -2732.98268090
 Copying the excited state density for this state as the 1-particle RhoCI density.

 The electronic state is 1-A.
 Alpha  occ. eigenvalues --  -19.18060 -19.17502 -19.12882 -19.12329 -19.12244
 Alpha  occ. eigenvalues --  -14.36256 -14.36157 -14.32531 -14.29862 -10.31645
 Alpha  occ. eigenvalues --  -10.31504 -10.27585 -10.24386 -10.24095 -10.23823
 Alpha  occ. eigenvalues --  -10.23377 -10.23081 -10.22679 -10.22539 -10.22442
 Alpha  occ. eigenvalues --  -10.22130 -10.21447 -10.21426 -10.21425 -10.21246
 Alpha  occ. eigenvalues --  -10.20931 -10.20907 -10.20760 -10.20737 -10.20669
 Alpha  occ. eigenvalues --  -10.20647 -10.20534 -10.20507 -10.20501 -10.20396
 Alpha  occ. eigenvalues --  -10.20344 -10.20177 -10.20095 -10.20000 -10.19935
 Alpha  occ. eigenvalues --  -10.19867 -10.19842 -10.19519 -10.19472 -10.19468
 Alpha  occ. eigenvalues --  -10.19446 -10.19238 -10.19137 -10.19067 -10.19051
 Alpha  occ. eigenvalues --  -10.18806 -10.18798 -10.18699 -10.18507 -10.18448
 Alpha  occ. eigenvalues --  -10.18388 -10.18349 -10.18323 -10.18292 -10.17817
 Alpha  occ. eigenvalues --  -10.17546 -10.17541 -10.17289 -10.15833  -1.10721
 Alpha  occ. eigenvalues --   -1.09746  -1.04789  -1.01371  -1.01290  -0.98731
 Alpha  occ. eigenvalues --   -0.97337  -0.93325  -0.92633  -0.84133  -0.83212
 Alpha  occ. eigenvalues --   -0.82764  -0.82082  -0.81282  -0.81136  -0.80386
 Alpha  occ. eigenvalues --   -0.80244  -0.79846  -0.79601  -0.78122  -0.77816
 Alpha  occ. eigenvalues --   -0.76868  -0.76231  -0.75187  -0.74905  -0.74327
 Alpha  occ. eigenvalues --   -0.73742  -0.73486  -0.72874  -0.72127  -0.71662
 Alpha  occ. eigenvalues --   -0.70104  -0.69919  -0.68869  -0.68328  -0.68124
 Alpha  occ. eigenvalues --   -0.67687  -0.67258  -0.66015  -0.65674  -0.65199
 Alpha  occ. eigenvalues --   -0.63725  -0.63155  -0.62614  -0.61402  -0.60779
 Alpha  occ. eigenvalues --   -0.60694  -0.59628  -0.58806  -0.58248  -0.57831
 Alpha  occ. eigenvalues --   -0.57179  -0.56885  -0.56672  -0.56181  -0.55307
 Alpha  occ. eigenvalues --   -0.54530  -0.54146  -0.54073  -0.54003  -0.53282
 Alpha  occ. eigenvalues --   -0.52835  -0.51731  -0.51463  -0.50821  -0.50519
 Alpha  occ. eigenvalues --   -0.50154  -0.49144  -0.48909  -0.48637  -0.48436
 Alpha  occ. eigenvalues --   -0.48191  -0.47774  -0.47684  -0.47248  -0.47023
 Alpha  occ. eigenvalues --   -0.46878  -0.46632  -0.46449  -0.46133  -0.45751
 Alpha  occ. eigenvalues --   -0.45521  -0.45322  -0.44997  -0.44818  -0.44731
 Alpha  occ. eigenvalues --   -0.44565  -0.44077  -0.43795  -0.43579  -0.43534
 Alpha  occ. eigenvalues --   -0.43385  -0.43026  -0.42989  -0.42686  -0.42657
 Alpha  occ. eigenvalues --   -0.42354  -0.42181  -0.41975  -0.41698  -0.41630
 Alpha  occ. eigenvalues --   -0.41404  -0.41255  -0.40965  -0.40824  -0.40522
 Alpha  occ. eigenvalues --   -0.40175  -0.40108  -0.39865  -0.39835  -0.39787
 Alpha  occ. eigenvalues --   -0.39632  -0.39461  -0.39374  -0.39134  -0.38961
 Alpha  occ. eigenvalues --   -0.38436  -0.38405  -0.38221  -0.38020  -0.37884
 Alpha  occ. eigenvalues --   -0.37593  -0.37482  -0.37278  -0.36930  -0.36877
 Alpha  occ. eigenvalues --   -0.36828  -0.36545  -0.36194  -0.36111  -0.35855
 Alpha  occ. eigenvalues --   -0.35659  -0.35617  -0.35468  -0.35325  -0.35178
 Alpha  occ. eigenvalues --   -0.34932  -0.34817  -0.34326  -0.34143  -0.34070
 Alpha  occ. eigenvalues --   -0.33969  -0.33358  -0.32832  -0.32687  -0.32123
 Alpha  occ. eigenvalues --   -0.32094  -0.31964  -0.31862  -0.31581  -0.31531
 Alpha  occ. eigenvalues --   -0.31258  -0.30951  -0.30498  -0.30475  -0.29899
 Alpha  occ. eigenvalues --   -0.29855  -0.28912  -0.28559  -0.28490  -0.28045
 Alpha  occ. eigenvalues --   -0.27898  -0.27187  -0.26639  -0.26285  -0.25749
 Alpha  occ. eigenvalues --   -0.24848  -0.23965  -0.22833  -0.22121  -0.19873
 Alpha  occ. eigenvalues --   -0.18704
 Alpha virt. eigenvalues --   -0.09839  -0.07673  -0.03820  -0.02495  -0.01220
 Alpha virt. eigenvalues --   -0.00571  -0.00245   0.00642   0.01736   0.03757
 Alpha virt. eigenvalues --    0.03898   0.04066   0.04506   0.04539   0.04999

 Mulliken charges:
               1
     1  C    0.098625
     2  C    0.069297
     3  C   -0.081172
     4  C   -0.086966
     5  N   -0.235595
     6  C   -0.128743
     7  C    0.093480
     8  C   -0.114882
     9  C    0.054957
    10  C    0.025725
    11  C    0.106118
    12  C    0.078187
    13  C    0.153452
    14  O   -0.209742
    15  O   -0.322782
    16  N    0.027040
    17  C    0.058247
    18  C   -0.142888
    19  C    0.010547
    20  C    0.124240
    21  C    0.099925
    22  C   -0.034634
    23  C   -0.040838
    24  N   -0.237174
    25  C    0.025765
    26  C   -0.162096
    27  C   -0.042245
    28  C    0.121509
    29  C    0.059004
    30  C   -0.013798
    31  C    0.013887
    32  N   -0.063374
    33  C    0.015630
    34  C   -0.150650
    35  C   -0.020074
    36  C    0.037873
    37  C    0.074767
    38  C    0.066233
    39  O   -0.131408
    40  C   -0.058407
    41  C    0.179889
    42  O   -0.212380
    43  O   -0.277238
    44  C    0.201438
    45  C    0.388273
    46  C   -0.148187
    47  C   -0.173848
    48  C    0.150965
    49  C    0.062962
    50  C    0.062684
    51  C    0.088599
    52  C   -0.111926
    53  C   -0.048935
    54  C    0.065603
    55  C   -0.042443
    56  C    0.005450
    57  C   -0.105777
    58  C    0.053619
    59  C    0.067282
    60  C    0.046181
    61  C   -0.032385
    62  C   -0.133957
    63  C    0.043206
    64  C    0.143618
    65  H   -0.197695
    66  H    0.015927
    67  H   -0.018871
    68  H   -0.030355
    69  H    0.034576
    70  H    0.025538
    71  H    0.031671
    72  H    0.022402
    73  H    0.003112
    74  H    0.005545
    75  H    0.008906
    76  H    0.038699
    77  H    0.061030
    78  H    0.008819
    79  H    0.051242
    80  H   -0.029960
    81  H    0.054103
    82  H    0.029311
    83  H    0.035526
    84  H    0.030237
    85  H    0.004913
    86  H    0.052563
    87  H   -0.005612
    88  H    0.043306
    89  H   -0.001596
    90  H    0.019788
    91  H    0.039000
    92  H    0.031916
    93  H    0.049853
    94  H    0.052516
    95  H    0.030594
    96  H    0.017253
    97  H   -0.010559
    98  H   -0.005591
    99  H   -0.032120
   100  H    0.002649
   101  H   -0.061192
   102  H    0.043061
   103  H    0.031066
   104  H   -0.020453
   105  H    0.008454
   106  H   -0.061907
   107  H    0.001627
   108  H   -0.049850
   109  H    0.005909
   110  H    0.010464
   111  H    0.039297
   112  H    0.036092
   113  H    0.021405
   114  H    0.004001
   115  H   -0.009241
   116  H    0.019835
   117  H    0.013093
   118  H   -0.021562
   119  H   -0.001736
   120  H   -0.002525
   121  H   -0.029133
   122  H   -0.001744
   123  H    0.002610
   124  H   -0.007261
   125  H   -0.017906
   126  H    0.003502
   127  H    0.011183
   128  H   -0.024785
   129  H    0.009850
   130  H   -0.014968
   131  H    0.031749
   132  H   -0.027474
   133  H    0.018465
   134  H   -0.029945
   135  H    0.004258
   136  H   -0.031783
   137  H    0.049186
   138  H    0.169985
 Sum of Mulliken charges =   0.00000

 Dipole moment (field-independent basis, Debye):
    X=              2.0136    Y=              4.9127    Z=              0.4240  Tot=              5.3263
 Quadrupole moment (field-independent basis, Debye-Ang):
   XX=           -348.2187   YY=           -379.6532   ZZ=           -395.3018
   XY=            -29.4280   XZ=             10.9876   YZ=             -1.8287

 Normal termination of Gaussian 09 at Mon Jul 29 23:16:52 2019.
