 Gaussian 09, Revision D.01,
 Gaussian 09:  ES64L-G09RevD.01 24-Apr-2013

 --------------------------
 # td=(NStates=1) B3LYP/SVP
 --------------------------

 --
 TD
 --
 Symbolic Z-matrix:
 Charge =  0 Multiplicity = 1

                         Standard orientation:
 ---------------------------------------------------------------------
 Center     Atomic      Atomic             Coordinates (Angstroms)
 Number     Number       Type             X           Y           Z
 ---------------------------------------------------------------------
      1          6           0       -5.166447   -1.881354    0.509771
      2          6           0       -4.666646    2.773828    1.517472
      3          6           0       -9.122562    3.399702   -0.309372
      4          6           0       -9.765784   -1.429752   -1.078001
      5          7           0       -5.144483    0.512606    0.889509
      6          6           0       -4.573198   -0.733487    0.988258
      7          6           0       -3.079967   -0.563398    1.495672
      8          6           0       -3.125695    0.802577    2.019098
      9          6           0       -4.403858    1.405354    1.421373
     10          6           0       -3.160003    0.802184    3.590809
     11          6           0       -2.109821   -0.832823    0.312305
     12          6           0       -0.630183   -0.796492    0.717240
     13          6           0        0.344911   -1.102043   -0.462191
     14          8           0       -0.028590   -1.283979   -1.606202
     15          8           0        1.628966   -1.079697   -0.014132
     16          7           0       -6.926661    2.787025    0.529215
     17          6           0       -5.780150    3.383490    1.022359
     18          6           0       -6.150913    4.796500    1.194552
     19          6           0       -7.345416    5.065722    0.681138
     20          6           0       -7.901734    3.744261    0.278714
     21          6           0       -5.256254    5.834347    1.697997
     22          6           0       -8.021583    6.272354    0.403091
     23          6           0       -8.863020    6.689738   -0.544451
     24          7           0       -9.164970    0.929597   -0.474555
     25          6           0       -9.776271    2.149922   -0.547229
     26          6           0      -11.040842    1.888122   -1.036796
     27          6           0      -11.299665    0.594156   -1.410269
     28          6           0       -9.984627   -0.011756   -1.042460
     29          6           0      -12.132779    2.927156   -1.345252
     30          6           0      -12.509741   -0.102711   -1.958752
     31          6           0      -12.306637   -0.335159   -3.545635
     32          7           0       -7.487751   -1.305373   -0.250640
     33          6           0       -8.426839   -2.038081   -0.837191
     34          6           0       -8.110621   -3.410158   -0.877168
     35          6           0       -6.835520   -3.361907   -0.380544
     36          6           0       -6.499133   -2.027563    0.113301
     37          6           0       -8.961738   -4.565604   -1.364097
     38          6           0       -5.718660   -4.284186   -0.060906
     39          8           0       -5.761034   -5.472691   -0.234678
     40          6           0       -4.573417   -3.336421    0.525294
     41          6           0       -4.068638   -3.810491    1.956968
     42          8           0       -4.237081   -3.360395    2.982738
     43          8           0       -3.215807   -4.950807    1.698915
     44          6           0       -2.886217   -5.553846    2.853051
     45          6           0        2.696872   -1.371618   -1.074536
     46          6           0        3.921974   -0.865503   -0.449432
     47          6           0        4.832068   -0.050384   -0.952947
     48          6           0        4.572325    0.705679   -2.280805
     49          6           0        6.182166    0.117136   -0.340002
     50          6           0        7.490392   -0.290368   -1.003502
     51          6           0        8.767323   -0.065860   -0.097573
     52          6           0        9.980424   -0.700501   -0.712787
     53          6           0        9.975247   -2.173071   -0.991224
     54          6           0       11.335283   -0.240889    0.129579
     55          6           0       12.598736   -0.417732   -0.630698
     56          6           0       13.810976    0.121541    0.138860
     57          6           0       15.194588   -0.150101   -0.485042
     58          6           0       15.455927   -1.716914   -0.835302
     59          6           0       16.257679    0.588007    0.442202
     60          6           0       17.704362    0.539853   -0.312863
     61          6           0       18.616887    1.452933    0.611899
     62          6           0       20.117484    1.553767    0.006489
     63          6           0       20.094754    2.471896   -1.330596
     64          6           0       21.020232    2.355620    1.000128
     65          1           0       -4.033302    3.330111    1.945181
     66          1           0       -9.882876    4.141914   -0.532524
     67          1           0      -10.489053   -2.085888   -1.766855
     68          1           0       -2.777611   -1.236695    2.375287
     69          1           0       -2.235774    1.494889    1.747569
     70          1           0       -2.207915    0.346228    3.939124
     71          1           0       -3.335976    1.923388    3.800362
     72          1           0       -4.014193    0.077839    3.798829
     73          1           0       -2.304771   -1.913997   -0.115440
     74          1           0       -2.247945   -0.161926   -0.510568
     75          1           0       -0.347916    0.151190    1.102831
     76          1           0       -0.417249   -1.495910    1.410072
     77          1           0       -4.430270    5.827831    0.956770
     78          1           0       -5.689900    6.788122    1.865554
     79          1           0       -4.761484    5.456662    2.573575
     80          1           0       -7.807183    6.964128    1.196918
     81          1           0       -9.155892    5.999040   -1.464550
     82          1           0       -9.606463    7.558185   -0.550424
     83          1           0      -12.174368    3.714935   -0.523278
     84          1           0      -11.770842    3.804258   -2.036757
     85          1           0      -13.019174    2.758527   -1.637698
     86          1           0      -12.773485   -1.049942   -1.398702
     87          1           0      -13.365483    0.636606   -1.681925
     88          1           0      -12.419997    0.695840   -3.974401
     89          1           0      -11.151690   -0.794188   -3.509074
     90          1           0      -13.088404   -1.127267   -4.035982
     91          1           0      -10.291675   -4.252017   -1.107823
     92          1           0       -9.100434   -4.419527   -2.422125
     93          1           0       -8.439890   -5.608489   -1.079497
     94          1           0       -3.669937   -3.524533   -0.157152
     95          1           0       -2.363446   -6.560727    2.658200
     96          1           0       -2.291203   -4.946020    3.648566
     97          1           0       -3.618895   -6.028986    3.448226
     98          1           0        2.546916   -2.385032   -1.109403
     99          1           0        2.474775   -0.747729   -1.982787
    100          1           0        4.083163   -1.332089    0.432593
    101          1           0        5.001418    1.885648   -2.031299
    102          1           0        5.350291    0.235972   -3.030769
    103          1           0        3.565307    0.706710   -2.735319
    104          1           0        6.055364    1.216970   -0.428451
    105          1           0        6.058227   -0.359358    0.604194
    106          1           0        7.258944   -1.506355   -1.150299
    107          1           0        7.550988   -0.080135   -2.010439
    108          1           0        9.026838    1.016303   -0.005695
    109          1           0        8.445725   -0.443275    0.854061
    110          1           0        9.983679   -0.191442   -1.545103
    111          1           0        9.111029   -2.545581   -1.877489
    112          1           0       10.884262   -2.483894   -1.449126
    113          1           0        9.764348   -2.855704   -0.080382
    114          1           0       11.146333    0.698422    0.290862
    115          1           0       11.263044   -0.844711    1.039369
    116          1           0       12.744638   -1.365319   -1.062318
    117          1           0       12.669110    0.443334   -1.336403
    118          1           0       13.787723    1.385659    0.225430
    119          1           0       13.755306   -0.482843    1.181047
    120          1           0       15.111016    0.517221   -1.408485
    121          1           0       14.500110   -2.302648   -1.068886
    122          1           0       16.251563   -1.898546   -1.396151
    123          1           0       15.728389   -2.031119    0.312050
    124          1           0       16.012295    1.614539    0.622289
    125          1           0       16.374055    0.188367    1.347074
    126          1           0       18.036580   -0.550348   -0.402376
    127          1           0       17.761573    1.073329   -1.268202
    128          1           0       17.959902    2.555902    0.560512
    129          1           0       18.957706    1.031590    1.688572
    130          1           0       20.437116    0.452497   -0.229238
    131          1           0       19.592462    3.576952   -1.173759
    132          1           0       21.136536    2.558153   -1.936544
    133          1           0       19.396948    1.912969   -1.990864
    134          1           0       21.128148    1.516107    1.978385
    135          1           0       21.949511    2.097005    0.645423
    136          1           0       20.755361    3.324060    1.238727
    137          1           0       -7.020754    1.688806    0.271878
    138          1           0       -7.632027   -0.334442    0.007221
 ---------------------------------------------------------------------

 SCF Done:  E(RB3LYP) =  -2732.94093535     A.U. after   16 cycles

 Excitation energies and oscillator strengths:

 Excited State   1:      Singlet-A      2.1381 eV  579.87 nm  f=0.1528  <S**2>=0.000
     235 -> 238       -0.31695
     236 -> 237        0.61971
 This state for optimization and/or second-order correction.
 Total Energy, E(TD-HF/TD-KS) =  -2732.86235988
 Copying the excited state density for this state as the 1-particle RhoCI density.

 The electronic state is 1-A.
 Alpha  occ. eigenvalues --  -19.16843 -19.16632 -19.15306 -19.12273 -19.11806
 Alpha  occ. eigenvalues --  -14.37471 -14.37440 -14.32334 -14.29604 -10.32350
 Alpha  occ. eigenvalues --  -10.30794 -10.27717 -10.24358 -10.24348 -10.24232
 Alpha  occ. eigenvalues --  -10.23309 -10.23167 -10.23138 -10.22846 -10.22819
 Alpha  occ. eigenvalues --  -10.22671 -10.22546 -10.21968 -10.21936 -10.21399
 Alpha  occ. eigenvalues --  -10.21355 -10.21288 -10.21094 -10.20960 -10.20929
 Alpha  occ. eigenvalues --  -10.20861 -10.20835 -10.20604 -10.20580 -10.20559
 Alpha  occ. eigenvalues --  -10.20517 -10.20330 -10.20302 -10.20288 -10.20177
 Alpha  occ. eigenvalues --  -10.20072 -10.20028 -10.19955 -10.19918 -10.19801
 Alpha  occ. eigenvalues --  -10.19623 -10.19617 -10.19466 -10.19465 -10.19242
 Alpha  occ. eigenvalues --  -10.19106 -10.19025 -10.18620 -10.18377 -10.18295
 Alpha  occ. eigenvalues --  -10.18288 -10.18120 -10.18043 -10.17953 -10.17870
 Alpha  occ. eigenvalues --  -10.17727 -10.17703 -10.17356 -10.17279  -1.12009
 Alpha  occ. eigenvalues --   -1.06914  -1.03939  -1.03278  -1.02124  -0.99159
 Alpha  occ. eigenvalues --   -0.97582  -0.96017  -0.93395  -0.84217  -0.83528
 Alpha  occ. eigenvalues --   -0.83335  -0.82129  -0.81697  -0.81217  -0.80843
 Alpha  occ. eigenvalues --   -0.80134  -0.78654  -0.78495  -0.78415  -0.77578
 Alpha  occ. eigenvalues --   -0.77098  -0.76329  -0.75231  -0.74978  -0.73793
 Alpha  occ. eigenvalues --   -0.73080  -0.72534  -0.71812  -0.71400  -0.71143
 Alpha  occ. eigenvalues --   -0.69819  -0.68444  -0.68161  -0.68014  -0.67338
 Alpha  occ. eigenvalues --   -0.67279  -0.66526  -0.66193  -0.65835  -0.65032
 Alpha  occ. eigenvalues --   -0.64441  -0.62960  -0.62644  -0.61983  -0.61078
 Alpha  occ. eigenvalues --   -0.60815  -0.59533  -0.59007  -0.58432  -0.57800
 Alpha  occ. eigenvalues --   -0.57006  -0.56991  -0.56850  -0.56059  -0.55584
 Alpha  occ. eigenvalues --   -0.54875  -0.54065  -0.53894  -0.53088  -0.52926
 Alpha  occ. eigenvalues --   -0.52613  -0.51971  -0.51546  -0.50935  -0.50746
 Alpha  occ. eigenvalues --   -0.50432  -0.49843  -0.49584  -0.49398  -0.48885
 Alpha  occ. eigenvalues --   -0.48582  -0.48369  -0.47557  -0.47503  -0.47001
 Alpha  occ. eigenvalues --   -0.46666  -0.46495  -0.46309  -0.45997  -0.45967
 Alpha  occ. eigenvalues --   -0.45812  -0.45591  -0.45460  -0.44953  -0.44724
 Alpha  occ. eigenvalues --   -0.44647  -0.44464  -0.44176  -0.44047  -0.43785
 Alpha  occ. eigenvalues --   -0.43607  -0.43544  -0.43146  -0.42862  -0.42647
 Alpha  occ. eigenvalues --   -0.42415  -0.42292  -0.42007  -0.41642  -0.41488
 Alpha  occ. eigenvalues --   -0.41342  -0.41217  -0.40801  -0.40619  -0.40416
 Alpha  occ. eigenvalues --   -0.40278  -0.39978  -0.39808  -0.39763  -0.39386
 Alpha  occ. eigenvalues --   -0.39269  -0.39135  -0.39099  -0.38928  -0.38746
 Alpha  occ. eigenvalues --   -0.38443  -0.38222  -0.38182  -0.38008  -0.37854
 Alpha  occ. eigenvalues --   -0.37566  -0.37278  -0.37138  -0.36824  -0.36553
 Alpha  occ. eigenvalues --   -0.36325  -0.36083  -0.36025  -0.35841  -0.35749
 Alpha  occ. eigenvalues --   -0.35367  -0.35220  -0.34923  -0.34887  -0.34844
 Alpha  occ. eigenvalues --   -0.34497  -0.34346  -0.34141  -0.33928  -0.33777
 Alpha  occ. eigenvalues --   -0.33670  -0.33447  -0.32892  -0.32846  -0.32642
 Alpha  occ. eigenvalues --   -0.32427  -0.32239  -0.32142  -0.31833  -0.31738
 Alpha  occ. eigenvalues --   -0.31098  -0.30986  -0.30121  -0.29964  -0.29589
 Alpha  occ. eigenvalues --   -0.29310  -0.29185  -0.28813  -0.27808  -0.27397
 Alpha  occ. eigenvalues --   -0.26971  -0.26808  -0.26799  -0.26447  -0.25871
 Alpha  occ. eigenvalues --   -0.24690  -0.24666  -0.24443  -0.22084  -0.20071
 Alpha  occ. eigenvalues --   -0.19187
 Alpha virt. eigenvalues --   -0.10110  -0.08088  -0.04263  -0.02043  -0.00634
 Alpha virt. eigenvalues --   -0.00165   0.00613   0.01582   0.01880   0.02398
 Alpha virt. eigenvalues --    0.03101   0.03655   0.03909   0.04185   0.04327

 Mulliken charges:
               1
     1  C    0.025239
     2  C    0.007430
     3  C   -0.047945
     4  C   -0.071655
     5  N   -0.134795
     6  C   -0.054799
     7  C   -0.015631
     8  C   -0.099720
     9  C   -0.011657
    10  C    0.039252
    11  C    0.050518
    12  C    0.105378
    13  C    0.165544
    14  O   -0.246264
    15  O   -0.371212
    16  N   -0.152344
    17  C    0.163197
    18  C   -0.163297
    19  C    0.093591
    20  C    0.107073
    21  C    0.158707
    22  C   -0.033091
    23  C   -0.095231
    24  N   -0.272562
    25  C    0.030222
    26  C   -0.085098
    27  C   -0.089279
    28  C    0.018807
    29  C    0.138334
    30  C    0.018642
    31  C   -0.071933
    32  N    0.110678
    33  C   -0.016865
    34  C   -0.104959
    35  C   -0.076578
    36  C    0.009560
    37  C    0.019285
    38  C    0.098657
    39  O   -0.150842
    40  C   -0.109262
    41  C    0.206411
    42  O   -0.107462
    43  O   -0.314564
    44  C    0.163821
    45  C    0.355826
    46  C   -0.074443
    47  C   -0.135904
    48  C   -0.032307
    49  C    0.135907
    50  C   -0.017945
    51  C    0.088333
    52  C   -0.014375
    53  C   -0.010034
    54  C    0.126754
    55  C    0.088113
    56  C   -0.098097
    57  C   -0.059117
    58  C    0.023772
    59  C    0.104061
    60  C    0.005069
    61  C   -0.079010
    62  C   -0.155463
    63  C   -0.061649
    64  C    0.106001
    65  H   -0.142266
    66  H   -0.047038
    67  H    0.031593
    68  H    0.011025
    69  H    0.004340
    70  H    0.030655
    71  H    0.026463
    72  H    0.041426
    73  H    0.021014
    74  H    0.003283
    75  H    0.008738
    76  H   -0.017250
    77  H    0.027242
    78  H    0.011984
    79  H    0.008008
    80  H   -0.007445
    81  H    0.042473
    82  H    0.046698
    83  H   -0.006954
    84  H   -0.005017
    85  H   -0.056953
    86  H    0.024920
    87  H    0.017930
    88  H    0.041593
    89  H    0.050234
    90  H    0.042782
    91  H    0.037945
    92  H    0.030891
    93  H    0.088963
    94  H    0.085460
    95  H    0.015039
    96  H    0.013689
    97  H   -0.010793
    98  H   -0.002474
    99  H    0.028989
   100  H   -0.061672
   101  H    0.036244
   102  H    0.046339
   103  H    0.042378
   104  H   -0.007038
   105  H   -0.007528
   106  H    0.003148
   107  H   -0.029414
   108  H    0.000947
   109  H   -0.018188
   110  H   -0.067267
   111  H    0.016670
   112  H    0.000141
   113  H    0.021783
   114  H   -0.071143
   115  H   -0.007852
   116  H   -0.009501
   117  H   -0.014936
   118  H    0.023379
   119  H   -0.005881
   120  H   -0.012986
   121  H    0.033230
   122  H    0.000774
   123  H    0.015438
   124  H   -0.022805
   125  H   -0.040032
   126  H    0.015108
   127  H    0.006140
   128  H    0.025322
   129  H    0.025834
   130  H    0.023930
   131  H    0.032792
   132  H    0.032493
   133  H    0.010181
   134  H   -0.008879
   135  H   -0.014006
   136  H    0.019685
   137  H    0.210048
   138  H    0.131140
 Sum of Mulliken charges =   0.00000

 Dipole moment (field-independent basis, Debye):
    X=              4.0062    Y=              4.7116    Z=              0.3169  Tot=              6.1927
 Quadrupole moment (field-independent basis, Debye-Ang):
   XX=           -351.0229   YY=           -385.0518   ZZ=           -398.3301
   XY=            -28.5303   XZ=             -0.9770   YZ=              1.6610

 Normal termination of Gaussian 09 at Sun Aug  4 13:41:28 2019.
