 Gaussian 09, Revision D.01,
 Gaussian 09:  ES64L-G09RevD.01 24-Apr-2013

 --------------------------
 # td=(NStates=1) B3LYP/SVP
 --------------------------

 --
 TD
 --
 Symbolic Z-matrix:
 Charge =  0 Multiplicity = 1

                         Standard orientation:
 ---------------------------------------------------------------------
 Center     Atomic      Atomic             Coordinates (Angstroms)
 Number     Number       Type             X           Y           Z
 ---------------------------------------------------------------------
      1          6           0       -5.152251   -1.939251    0.383153
      2          6           0       -4.679960    2.748364    1.339229
      3          6           0       -9.162851    3.402612   -0.163845
      4          6           0       -9.851235   -1.423041   -1.090351
      5          7           0       -5.131930    0.397492    0.758994
      6          6           0       -4.466797   -0.824634    0.844963
      7          6           0       -2.983439   -0.654378    1.340983
      8          6           0       -3.011758    0.810590    1.892866
      9          6           0       -4.388375    1.338823    1.321458
     10          6           0       -2.987362    0.891074    3.370701
     11          6           0       -2.080006   -0.895550    0.187785
     12          6           0       -0.552281   -0.946508    0.669155
     13          6           0        0.294456   -1.215839   -0.469594
     14          8           0        0.055869   -1.561544   -1.531285
     15          8           0        1.664403   -0.863134   -0.049491
     16          7           0       -6.883415    2.782319    0.470613
     17          6           0       -5.793778    3.393564    1.022593
     18          6           0       -6.047574    4.765377    1.077192
     19          6           0       -7.425033    4.973501    0.582410
     20          6           0       -7.901984    3.688903    0.182865
     21          6           0       -5.149574    5.811695    1.488524
     22          6           0       -8.088355    6.296272    0.479655
     23          6           0       -8.870932    6.657181   -0.600435
     24          7           0       -9.177901    0.885295   -0.544783
     25          6           0       -9.794649    2.066086   -0.476168
     26          6           0      -11.187615    1.958779   -0.883122
     27          6           0      -11.441573    0.589228   -1.213636
     28          6           0      -10.077997    0.012332   -0.953640
     29          6           0      -12.223453    3.108284   -0.971020
     30          6           0      -12.621770   -0.034004   -1.728805
     31          6           0      -12.661413   -0.154364   -3.269564
     32          7           0       -7.529137   -1.148002   -0.216615
     33          6           0       -8.596918   -1.930269   -0.732566
     34          6           0       -8.231069   -3.339120   -0.763170
     35          6           0       -6.844223   -3.383706   -0.330351
     36          6           0       -6.506232   -2.017960    0.010650
     37          6           0       -8.987958   -4.502172   -1.351698
     38          6           0       -5.825298   -4.314700    0.047739
     39          8           0       -5.880886   -5.581117    0.006526
     40          6           0       -4.553273   -3.398252    0.386282
     41          6           0       -3.900744   -3.794603    1.684434
     42          8           0       -4.138618   -3.305144    2.763480
     43          8           0       -3.144081   -4.847041    1.489343
     44          6           0       -2.626178   -5.413765    2.616921
     45          6           0        2.675834   -1.251676   -1.022893
     46          6           0        3.949863   -0.835647   -0.430138
     47          6           0        4.955987   -0.028050   -0.961988
     48          6           0        4.990614    0.551276   -2.308740
     49          6           0        6.240284    0.169830   -0.222147
     50          6           0        7.589263   -0.359545   -0.936675
     51          6           0        8.795780   -0.146762   -0.128762
     52          6           0       10.041073   -0.960107   -0.709109
     53          6           0        9.789047   -2.382504   -0.600602
     54          6           0       11.141328   -0.350490    0.101244
     55          6           0       12.621287   -0.654367   -0.577033
     56          6           0       13.766948   -0.121187    0.166408
     57          6           0       15.146192   -0.251460   -0.338742
     58          6           0       15.637795   -1.729153   -0.488796
     59          6           0       16.211874    0.645556    0.431352
     60          6           0       17.686922    0.746695   -0.169389
     61          6           0       18.564281    1.787692    0.516309
     62          6           0       19.971849    1.829319   -0.130257
     63          6           0       19.938774    2.475426   -1.471942
     64          6           0       20.884316    2.512889    0.820853
     65          1           0       -3.793910    3.308550    1.832662
     66          1           0       -9.976905    4.032663   -0.122025
     67          1           0      -10.702680   -1.973364   -1.251713
     68          1           0       -2.835389   -1.445721    2.206178
     69          1           0       -2.258911    1.602283    1.458662
     70          1           0       -1.854913    0.434811    3.598373
     71          1           0       -2.937678    1.930845    3.692709
     72          1           0       -3.771350    0.309864    3.881709
     73          1           0       -2.121791   -1.955601   -0.079171
     74          1           0       -2.245930   -0.234601   -0.629408
     75          1           0       -0.329418    0.080881    1.197633
     76          1           0       -0.584583   -1.709593    1.417533
     77          1           0       -4.117206    5.520580    1.193791
     78          1           0       -5.326894    6.889782    0.982451
     79          1           0       -5.201987    5.952361    2.655131
     80          1           0       -7.920164    6.953793    1.241889
     81          1           0       -8.949779    6.106968   -1.637571
     82          1           0       -9.174691    7.711287   -0.438398
     83          1           0      -12.451965    3.417628   -0.026420
     84          1           0      -11.758479    3.998928   -1.484410
     85          1           0      -13.079332    2.637685   -1.392112
     86          1           0      -12.823602   -1.007567   -1.255890
     87          1           0      -13.389655    0.803697   -1.409385
     88          1           0      -12.446903    0.833487   -3.779623
     89          1           0      -11.942551   -0.720683   -3.670529
     90          1           0      -13.532038   -0.613314   -3.575786
     91          1           0      -10.118142   -4.813117   -0.814201
     92          1           0       -9.312295   -4.352231   -2.501110
     93          1           0       -8.318572   -5.319546   -1.506011
     94          1           0       -3.923955   -3.698867   -0.540461
     95          1           0       -2.202158   -6.328573    2.341687
     96          1           0       -1.963591   -4.730913    3.113909
     97          1           0       -3.341123   -5.828315    3.383518
     98          1           0        2.770577   -2.486172   -1.083092
     99          1           0        2.546183   -1.095926   -2.053501
    100          1           0        4.262747   -1.207693    0.523890
    101          1           0        5.348934    1.638483   -2.217821
    102          1           0        5.672039    0.098782   -3.117087
    103          1           0        3.993662    0.700029   -2.709483
    104          1           0        6.186778    1.214629   -0.039563
    105          1           0        6.345180   -0.253198    0.573413
    106          1           0        7.428730   -1.524154   -1.191404
    107          1           0        7.823206    0.324632   -1.827873
    108          1           0        8.899024    0.916097   -0.105137
    109          1           0        8.555686   -0.479701    0.891834
    110          1           0        9.929545   -0.458234   -1.726607
    111          1           0        8.842237   -2.810492   -1.018220
    112          1           0       10.475313   -2.872208   -1.256085
    113          1           0        9.716423   -2.901255    0.421085
    114          1           0       11.097477    0.688155    0.312963
    115          1           0       11.084491   -0.972628    1.035250
    116          1           0       12.752405   -1.701638   -0.492801
    117          1           0       12.584538   -0.282776   -1.453202
    118          1           0       13.542218    1.094808    0.525927
    119          1           0       13.899968   -0.503169    1.306119
    120          1           0       15.136102    0.273457   -1.536579
    121          1           0       14.992657   -2.278288   -0.942111
    122          1           0       16.609597   -1.741291   -1.043502
    123          1           0       15.705755   -2.116687    0.598115
    124          1           0       15.878517    1.740139    0.434702
    125          1           0       16.410134    0.326798    1.485719
    126          1           0       18.142958   -0.241414   -0.287103
    127          1           0       17.518853    0.935929   -1.241300
    128          1           0       17.956878    2.755271    0.408440
    129          1           0       18.696932    1.625176    1.717438
    130          1           0       20.179053    0.726112   -0.187402
    131          1           0       19.747523    3.628599   -1.363597
    132          1           0       20.975679    2.398004   -2.027229
    133          1           0       19.200869    2.056383   -2.309125
    134          1           0       21.156687    1.933316    1.723517
    135          1           0       21.825939    2.613997    0.596408
    136          1           0       20.654492    3.653291    1.047586
    137          1           0       -7.016027    1.870187    0.193260
    138          1           0       -7.537392   -0.105013   -0.178780
 ---------------------------------------------------------------------

 SCF Done:  E(RB3LYP) =  -2733.07137151     A.U. after   17 cycles

 Excitation energies and oscillator strengths:

 Excited State   1:      Singlet-A      2.0616 eV  601.40 nm  f=0.1303  <S**2>=0.000
     235 -> 237       -0.18111
     235 -> 238        0.30505
     236 -> 237        0.58379
     236 -> 238        0.16580
 This state for optimization and/or second-order correction.
 Total Energy, E(TD-HF/TD-KS) =  -2732.99560878
 Copying the excited state density for this state as the 1-particle RhoCI density.

 The electronic state is 1-A.
 Alpha  occ. eigenvalues --  -19.18913 -19.15412 -19.14793 -19.12567 -19.11840
 Alpha  occ. eigenvalues --  -14.37553 -14.35962 -14.32381 -14.29771 -10.31793
 Alpha  occ. eigenvalues --  -10.31519 -10.28002 -10.24218 -10.24098 -10.23820
 Alpha  occ. eigenvalues --  -10.23749 -10.23487 -10.23416 -10.23350 -10.23249
 Alpha  occ. eigenvalues --  -10.22362 -10.22277 -10.21683 -10.21598 -10.21394
 Alpha  occ. eigenvalues --  -10.21370 -10.21358 -10.21269 -10.21200 -10.21054
 Alpha  occ. eigenvalues --  -10.21016 -10.20974 -10.20687 -10.20646 -10.20502
 Alpha  occ. eigenvalues --  -10.20275 -10.20026 -10.20025 -10.19716 -10.19647
 Alpha  occ. eigenvalues --  -10.19639 -10.19481 -10.19459 -10.19458 -10.19228
 Alpha  occ. eigenvalues --  -10.19186 -10.19116 -10.19092 -10.19055 -10.18719
 Alpha  occ. eigenvalues --  -10.18683 -10.18630 -10.18407 -10.18394 -10.18353
 Alpha  occ. eigenvalues --  -10.18352 -10.17757 -10.17639 -10.17466 -10.17182
 Alpha  occ. eigenvalues --  -10.17106 -10.16955 -10.16498 -10.16224  -1.12682
 Alpha  occ. eigenvalues --   -1.10556  -1.01866  -0.99932  -0.99426  -0.98419
 Alpha  occ. eigenvalues --   -0.97291  -0.94400  -0.93842  -0.84379  -0.83016
 Alpha  occ. eigenvalues --   -0.82176  -0.81876  -0.81673  -0.81365  -0.81024
 Alpha  occ. eigenvalues --   -0.80187  -0.80027  -0.79765  -0.78665  -0.77968
 Alpha  occ. eigenvalues --   -0.76879  -0.76294  -0.76049  -0.74987  -0.74579
 Alpha  occ. eigenvalues --   -0.74292  -0.73367  -0.72519  -0.71948  -0.70936
 Alpha  occ. eigenvalues --   -0.70270  -0.69682  -0.68934  -0.68730  -0.67862
 Alpha  occ. eigenvalues --   -0.67733  -0.67628  -0.66083  -0.65782  -0.64628
 Alpha  occ. eigenvalues --   -0.63896  -0.62812  -0.62627  -0.62564  -0.61616
 Alpha  occ. eigenvalues --   -0.61138  -0.58446  -0.58065  -0.57950  -0.57269
 Alpha  occ. eigenvalues --   -0.56865  -0.56551  -0.55929  -0.55635  -0.55581
 Alpha  occ. eigenvalues --   -0.55208  -0.55180  -0.54369  -0.53363  -0.52935
 Alpha  occ. eigenvalues --   -0.52591  -0.52358  -0.51794  -0.51586  -0.51072
 Alpha  occ. eigenvalues --   -0.49946  -0.49707  -0.49535  -0.49402  -0.49148
 Alpha  occ. eigenvalues --   -0.48855  -0.48161  -0.47739  -0.47483  -0.47184
 Alpha  occ. eigenvalues --   -0.46871  -0.46762  -0.46240  -0.46039  -0.45843
 Alpha  occ. eigenvalues --   -0.45521  -0.45250  -0.44958  -0.44762  -0.44713
 Alpha  occ. eigenvalues --   -0.44596  -0.44307  -0.44158  -0.43923  -0.43694
 Alpha  occ. eigenvalues --   -0.43495  -0.43441  -0.42998  -0.42951  -0.42803
 Alpha  occ. eigenvalues --   -0.42499  -0.42440  -0.41987  -0.41978  -0.41448
 Alpha  occ. eigenvalues --   -0.41281  -0.41094  -0.41033  -0.40881  -0.40822
 Alpha  occ. eigenvalues --   -0.40576  -0.40292  -0.39867  -0.39640  -0.39437
 Alpha  occ. eigenvalues --   -0.39266  -0.39150  -0.38888  -0.38737  -0.38280
 Alpha  occ. eigenvalues --   -0.38096  -0.37842  -0.37616  -0.37577  -0.37356
 Alpha  occ. eigenvalues --   -0.37223  -0.37145  -0.37056  -0.36734  -0.36554
 Alpha  occ. eigenvalues --   -0.36529  -0.36256  -0.36076  -0.35955  -0.35855
 Alpha  occ. eigenvalues --   -0.35756  -0.35626  -0.35594  -0.35343  -0.35029
 Alpha  occ. eigenvalues --   -0.34919  -0.34733  -0.34653  -0.34025  -0.33924
 Alpha  occ. eigenvalues --   -0.33547  -0.33162  -0.33014  -0.32888  -0.32553
 Alpha  occ. eigenvalues --   -0.32501  -0.32109  -0.31998  -0.31572  -0.31364
 Alpha  occ. eigenvalues --   -0.31081  -0.30875  -0.30192  -0.30180  -0.29738
 Alpha  occ. eigenvalues --   -0.29684  -0.28736  -0.28472  -0.28337  -0.28012
 Alpha  occ. eigenvalues --   -0.27326  -0.26759  -0.26541  -0.26342  -0.25800
 Alpha  occ. eigenvalues --   -0.24714  -0.23761  -0.22928  -0.22129  -0.19946
 Alpha  occ. eigenvalues --   -0.19144
 Alpha virt. eigenvalues --   -0.10337  -0.08349  -0.05336  -0.02586  -0.00790
 Alpha virt. eigenvalues --   -0.00480   0.00211   0.00259   0.02154   0.03328
 Alpha virt. eigenvalues --    0.03843   0.04298   0.04351   0.04670   0.04967

 Mulliken charges:
               1
     1  C   -0.007832
     2  C   -0.141899
     3  C   -0.056908
     4  C   -0.031449
     5  N   -0.184431
     6  C   -0.073973
     7  C   -0.030374
     8  C   -0.093547
     9  C   -0.042163
    10  C    0.058124
    11  C    0.065369
    12  C    0.003819
    13  C    0.202767
    14  O   -0.131192
    15  O   -0.394727
    16  N   -0.041918
    17  C    0.221147
    18  C   -0.116657
    19  C    0.014792
    20  C    0.167451
    21  C    0.008689
    22  C   -0.029548
    23  C   -0.044001
    24  N   -0.188465
    25  C   -0.028848
    26  C   -0.205497
    27  C   -0.093579
    28  C   -0.008506
    29  C    0.178519
    30  C    0.013454
    31  C    0.105899
    32  N   -0.056432
    33  C    0.141548
    34  C   -0.081057
    35  C   -0.030007
    36  C    0.136497
    37  C    0.006479
    38  C    0.074835
    39  O   -0.229718
    40  C   -0.081855
    41  C    0.189138
    42  O   -0.229236
    43  O   -0.233417
    44  C    0.206440
    45  C    0.289281
    46  C   -0.045630
    47  C   -0.183215
    48  C    0.055556
    49  C    0.228049
    50  C   -0.051980
    51  C    0.007336
    52  C   -0.066592
    53  C    0.063491
    54  C    0.042590
    55  C    0.205892
    56  C   -0.069332
    57  C   -0.123499
    58  C    0.111851
    59  C    0.017665
    60  C   -0.001196
    61  C   -0.010353
    62  C   -0.043192
    63  C   -0.045618
    64  C    0.101447
    65  H   -0.007530
    66  H   -0.057548
    67  H   -0.053581
    68  H    0.043988
    69  H    0.021438
    70  H    0.020949
    71  H    0.009149
    72  H    0.043710
    73  H    0.011837
    74  H    0.013003
    75  H    0.059057
    76  H    0.026749
    77  H    0.030913
    78  H    0.043832
    79  H    0.048057
    80  H   -0.014594
    81  H    0.071033
    82  H    0.030906
    83  H   -0.004899
    84  H    0.026642
    85  H   -0.005429
    86  H    0.011359
    87  H    0.017577
    88  H    0.010899
    89  H   -0.034226
    90  H   -0.008748
    91  H    0.057422
    92  H    0.036318
    93  H    0.032469
    94  H    0.082857
    95  H    0.006142
    96  H    0.012831
    97  H    0.024425
    98  H    0.005905
    99  H   -0.003091
   100  H   -0.027736
   101  H   -0.000384
   102  H    0.048501
   103  H    0.000345
   104  H   -0.010048
   105  H   -0.123026
   106  H    0.025662
   107  H    0.001765
   108  H   -0.016185
   109  H   -0.025414
   110  H   -0.006077
   111  H   -0.001730
   112  H   -0.001587
   113  H    0.021522
   114  H   -0.009198
   115  H   -0.008276
   116  H   -0.014015
   117  H   -0.062933
   118  H   -0.009482
   119  H   -0.007328
   120  H   -0.012072
   121  H   -0.044473
   122  H    0.021006
   123  H    0.007629
   124  H    0.004744
   125  H    0.000041
   126  H   -0.015448
   127  H   -0.017064
   128  H   -0.000909
   129  H    0.015175
   130  H   -0.002831
   131  H    0.019839
   132  H    0.016204
   133  H    0.032284
   134  H   -0.005272
   135  H   -0.063317
   136  H    0.012173
   137  H    0.092920
   138  H    0.164892
 Sum of Mulliken charges =   0.00000

 Dipole moment (field-independent basis, Debye):
    X=              1.1013    Y=              4.0908    Z=             -0.0835  Tot=              4.2373
 Quadrupole moment (field-independent basis, Debye-Ang):
   XX=           -356.7911   YY=           -379.8024   ZZ=           -393.9134
   XY=            -35.4316   XZ=              8.6000   YZ=              2.2804

 Normal termination of Gaussian 09 at Fri Aug  2 12:45:51 2019.
