 Gaussian 09, Revision D.01,
 Gaussian 09:  ES64L-G09RevD.01 24-Apr-2013

 --------------------------
 # td=(NStates=1) B3LYP/SVP
 --------------------------

 --
 TD
 --
 Symbolic Z-matrix:
 Charge =  0 Multiplicity = 1

                         Standard orientation:
 ---------------------------------------------------------------------
 Center     Atomic      Atomic             Coordinates (Angstroms)
 Number     Number       Type             X           Y           Z
 ---------------------------------------------------------------------
      1          6           0       -5.058416   -1.938356    0.408078
      2          6           0       -4.762444    2.768752    1.354487
      3          6           0       -9.397548    3.348565   -0.217815
      4          6           0       -9.784532   -1.402903   -0.865344
      5          7           0       -5.156994    0.464746    0.821292
      6          6           0       -4.478152   -0.714268    0.835618
      7          6           0       -3.055817   -0.593460    1.123462
      8          6           0       -2.965487    0.958913    1.657249
      9          6           0       -4.408427    1.424562    1.317445
     10          6           0       -2.658362    1.079578    3.141104
     11          6           0       -2.102038   -0.760449   -0.075054
     12          6           0       -0.656764   -0.888295    0.442356
     13          6           0        0.382938   -1.205321   -0.659448
     14          8           0        0.088209   -1.689187   -1.725352
     15          8           0        1.653665   -0.744387   -0.322256
     16          7           0       -7.088594    2.808258    0.425100
     17          6           0       -6.041244    3.391286    0.900019
     18          6           0       -6.241701    4.735693    1.007007
     19          6           0       -7.550301    4.919860    0.566147
     20          6           0       -8.117006    3.669235    0.183597
     21          6           0       -5.311613    5.913827    1.554169
     22          6           0       -8.216763    6.227576    0.486845
     23          6           0       -9.067564    6.667359   -0.454169
     24          7           0       -9.170925    0.907984   -0.443978
     25          6           0       -9.926676    2.045147   -0.485793
     26          6           0      -11.301411    1.839458   -0.831236
     27          6           0      -11.451726    0.450551   -1.125699
     28          6           0      -10.135421   -0.027671   -0.822221
     29          6           0      -12.401097    2.837992   -0.932071
     30          6           0      -12.642258   -0.380074   -1.595821
     31          6           0      -12.860282   -0.434510   -3.152621
     32          7           0       -7.480320   -1.270591   -0.132847
     33          6           0       -8.539588   -1.977207   -0.576351
     34          6           0       -8.160574   -3.333905   -0.598499
     35          6           0       -6.838805   -3.354804   -0.280811
     36          6           0       -6.485094   -2.079065    0.087840
     37          6           0       -9.078228   -4.567566   -1.130791
     38          6           0       -5.559391   -4.298522   -0.003220
     39          8           0       -5.569651   -5.538228    0.059219
     40          6           0       -4.460889   -3.267652    0.331362
     41          6           0       -3.823640   -3.860982    1.748966
     42          8           0       -3.967509   -3.288197    2.834796
     43          8           0       -3.155695   -5.024343    1.551523
     44          6           0       -2.673429   -5.641282    2.721157
     45          6           0        2.726975   -1.090045   -1.148039
     46          6           0        4.095750   -0.504001   -0.676085
     47          6           0        5.024866    0.168439   -1.249302
     48          6           0        4.795369    0.617158   -2.719184
     49          6           0        6.266829    0.526159   -0.518594
     50          6           0        7.570549   -0.242512   -1.103841
     51          6           0        8.816250   -0.028436   -0.241471
     52          6           0       10.073519   -0.761212   -0.656293
     53          6           0        9.956369   -2.380800   -0.465855
     54          6           0       11.258728   -0.227580    0.204256
     55          6           0       12.612501   -0.563983   -0.504200
     56          6           0       13.895086    0.077144    0.197253
     57          6           0       15.222364   -0.279440   -0.308001
     58          6           0       15.600882   -1.833101   -0.224261
     59          6           0       16.272969    0.654622    0.397183
     60          6           0       17.738387    0.531174   -0.089691
     61          6           0       18.607095    1.598287    0.628583
     62          6           0       20.060866    1.679889    0.087728
     63          6           0       20.106929    2.194623   -1.323002
     64          6           0       20.962494    2.607717    0.945308
     65          1           0       -3.937368    3.554965    1.402871
     66          1           0      -10.099963    4.034996   -0.193801
     67          1           0      -10.649488   -2.239247   -0.944222
     68          1           0       -2.605554   -1.179981    2.053007
     69          1           0       -2.104957    1.512234    1.121831
     70          1           0       -1.396758    0.881683    3.233229
     71          1           0       -2.691050    2.075175    3.487095
     72          1           0       -3.358620    0.282044    4.092152
     73          1           0       -2.186108   -1.546689   -0.596456
     74          1           0       -2.106147    0.104562   -0.727749
     75          1           0       -0.244581   -0.044953    0.871863
     76          1           0       -0.521355   -1.825396    1.149091
     77          1           0       -4.335388    5.651511    1.024020
     78          1           0       -5.729294    6.995586    1.001295
     79          1           0       -5.167672    5.974086    2.737763
     80          1           0       -8.185036    6.828097    1.439222
     81          1           0       -9.246272    5.885870   -1.291208
     82          1           0       -9.584940    7.647040   -0.425654
     83          1           0      -12.268428    3.452559   -0.015286
     84          1           0      -12.494265    3.547333   -1.958121
     85          1           0      -13.587213    2.510616   -0.826218
     86          1           0      -12.460571   -1.106693   -0.936672
     87          1           0      -13.718580    0.134358   -1.048157
     88          1           0      -13.078076    0.571148   -3.559712
     89          1           0      -11.942828   -0.744808   -3.545479
     90          1           0      -13.453746   -1.309754   -3.385877
     91          1           0      -10.054812   -4.565446   -0.638272
     92          1           0       -9.384606   -4.444123   -2.039831
     93          1           0       -8.551866   -5.343405   -0.780329
     94          1           0       -3.516931   -3.205538   -0.257091
     95          1           0       -1.894045   -6.296695    2.427647
     96          1           0       -2.231493   -4.927642    3.585029
     97          1           0       -3.375558   -6.159278    3.198717
     98          1           0        3.003384   -2.246478   -1.213265
     99          1           0        2.381362   -0.941290   -2.264948
    100          1           0        4.178868   -0.825237    0.422983
    101          1           0        5.093257    1.678665   -2.776163
    102          1           0        5.205963   -0.018674   -3.626912
    103          1           0        3.564699    0.618947   -2.835807
    104          1           0        6.403886    1.658690   -0.632751
    105          1           0        6.002600    0.179589    0.543702
    106          1           0        7.251920   -1.375767   -1.097253
    107          1           0        7.718223    0.013338   -2.241608
    108          1           0        9.261786    1.079962   -0.326728
    109          1           0        8.639314   -0.142656    0.882910
    110          1           0       10.260212   -0.527076   -1.753608
    111          1           0        9.258829   -2.863287   -1.146258
    112          1           0       11.034528   -3.053393   -0.660314
    113          1           0        9.589822   -2.494410    0.770409
    114          1           0       11.269282    0.944903    0.459108
    115          1           0       11.262648   -0.788852    1.075066
    116          1           0       12.698417   -1.694428   -0.740557
    117          1           0       12.500083   -0.193391   -1.551209
    118          1           0       13.879699    1.164616    0.184028
    119          1           0       13.826442   -0.111203    1.327634
    120          1           0       15.167731    0.037045   -1.318311
    121          1           0       15.060919   -2.383121   -0.974034
    122          1           0       16.675148   -1.922781   -0.622753
    123          1           0       15.712106   -2.257650    0.711447
    124          1           0       15.935185    1.700282    0.304398
    125          1           0       16.052428    0.504615    1.574950
    126          1           0       18.080254   -0.510934    0.132375
    127          1           0       17.629221    0.573694   -1.243878
    128          1           0       18.201853    2.632017    0.485303
    129          1           0       18.719777    1.265443    1.653020
    130          1           0       20.292145    0.628040    0.242166
    131          1           0       19.475184    3.112521   -1.555133
    132          1           0       21.130779    2.347596   -1.664173
    133          1           0       19.593104    1.436944   -1.915028
    134          1           0       20.823327    2.305859    2.053733
    135          1           0       22.084642    2.746222    0.671589
    136          1           0       20.765607    3.603092    0.941602
    137          1           0       -6.974153    1.836620    0.504674
    138          1           0       -7.671416   -0.297323   -0.060129
 ---------------------------------------------------------------------

 SCF Done:  E(RB3LYP) =  -2733.02270735     A.U. after   17 cycles

 Excitation energies and oscillator strengths:

 Excited State   1:      Singlet-A      2.1341 eV  580.97 nm  f=0.0911  <S**2>=0.000
     235 -> 237        0.50205
     235 -> 238       -0.16216
     236 -> 237       -0.31081
     236 -> 238       -0.34749
 This state for optimization and/or second-order correction.
 Total Energy, E(TD-HF/TD-KS) =  -2732.94428134
 Copying the excited state density for this state as the 1-particle RhoCI density.

 The electronic state is 1-A.
 Alpha  occ. eigenvalues --  -19.19412 -19.18438 -19.13772 -19.13524 -19.13501
 Alpha  occ. eigenvalues --  -14.36623 -14.36521 -14.32146 -14.30280 -10.33112
 Alpha  occ. eigenvalues --  -10.32362 -10.30078 -10.26260 -10.24179 -10.23563
 Alpha  occ. eigenvalues --  -10.23240 -10.23155 -10.23131 -10.23118 -10.23081
 Alpha  occ. eigenvalues --  -10.22647 -10.22386 -10.22094 -10.21589 -10.21413
 Alpha  occ. eigenvalues --  -10.21396 -10.21369 -10.21352 -10.21264 -10.21037
 Alpha  occ. eigenvalues --  -10.20902 -10.20884 -10.20792 -10.20719 -10.20591
 Alpha  occ. eigenvalues --  -10.20497 -10.20390 -10.20308 -10.20201 -10.20148
 Alpha  occ. eigenvalues --  -10.20035 -10.19787 -10.19720 -10.19606 -10.19553
 Alpha  occ. eigenvalues --  -10.19361 -10.19287 -10.18994 -10.18945 -10.18881
 Alpha  occ. eigenvalues --  -10.18841 -10.18834 -10.18827 -10.18793 -10.18781
 Alpha  occ. eigenvalues --  -10.18586 -10.18524 -10.18339 -10.18316 -10.18026
 Alpha  occ. eigenvalues --  -10.17903 -10.17656 -10.17572 -10.17395  -1.10057
 Alpha  occ. eigenvalues --   -1.09349  -1.02210  -1.01831  -1.01519  -1.01207
 Alpha  occ. eigenvalues --   -1.00695  -0.95135  -0.93288  -0.85130  -0.82381
 Alpha  occ. eigenvalues --   -0.82261  -0.81681  -0.81463  -0.80907  -0.80531
 Alpha  occ. eigenvalues --   -0.80266  -0.79578  -0.79032  -0.78728  -0.77050
 Alpha  occ. eigenvalues --   -0.76351  -0.75836  -0.75275  -0.74848  -0.73917
 Alpha  occ. eigenvalues --   -0.73725  -0.73040  -0.72403  -0.71210  -0.70303
 Alpha  occ. eigenvalues --   -0.70099  -0.68834  -0.68290  -0.67617  -0.67349
 Alpha  occ. eigenvalues --   -0.67256  -0.66692  -0.66264  -0.65599  -0.65186
 Alpha  occ. eigenvalues --   -0.63891  -0.63199  -0.62927  -0.62506  -0.62281
 Alpha  occ. eigenvalues --   -0.61355  -0.58800  -0.58743  -0.58308  -0.57390
 Alpha  occ. eigenvalues --   -0.56601  -0.56481  -0.55943  -0.55762  -0.55587
 Alpha  occ. eigenvalues --   -0.55456  -0.55026  -0.54181  -0.53928  -0.52969
 Alpha  occ. eigenvalues --   -0.52856  -0.51737  -0.51368  -0.50687  -0.50345
 Alpha  occ. eigenvalues --   -0.49977  -0.49512  -0.48943  -0.48247  -0.48040
 Alpha  occ. eigenvalues --   -0.47668  -0.47613  -0.47526  -0.47353  -0.47179
 Alpha  occ. eigenvalues --   -0.46862  -0.46677  -0.46123  -0.45885  -0.45791
 Alpha  occ. eigenvalues --   -0.45642  -0.45435  -0.44864  -0.44618  -0.44381
 Alpha  occ. eigenvalues --   -0.44277  -0.44083  -0.43921  -0.43622  -0.43539
 Alpha  occ. eigenvalues --   -0.43384  -0.43016  -0.42550  -0.42512  -0.42368
 Alpha  occ. eigenvalues --   -0.42043  -0.41965  -0.41580  -0.41460  -0.41317
 Alpha  occ. eigenvalues --   -0.41087  -0.40978  -0.40873  -0.40435  -0.40247
 Alpha  occ. eigenvalues --   -0.40148  -0.40008  -0.39782  -0.39219  -0.39099
 Alpha  occ. eigenvalues --   -0.39044  -0.38884  -0.38504  -0.38463  -0.38184
 Alpha  occ. eigenvalues --   -0.38120  -0.37965  -0.37557  -0.37360  -0.37151
 Alpha  occ. eigenvalues --   -0.37125  -0.36939  -0.36887  -0.36806  -0.36522
 Alpha  occ. eigenvalues --   -0.36200  -0.36065  -0.35882  -0.35703  -0.35519
 Alpha  occ. eigenvalues --   -0.35370  -0.35223  -0.35119  -0.35088  -0.35059
 Alpha  occ. eigenvalues --   -0.34773  -0.34738  -0.34145  -0.34007  -0.33740
 Alpha  occ. eigenvalues --   -0.33151  -0.33087  -0.32963  -0.32473  -0.32155
 Alpha  occ. eigenvalues --   -0.32152  -0.31862  -0.31757  -0.31521  -0.31501
 Alpha  occ. eigenvalues --   -0.31121  -0.30870  -0.30688  -0.30290  -0.30091
 Alpha  occ. eigenvalues --   -0.29804  -0.29790  -0.28814  -0.28743  -0.28378
 Alpha  occ. eigenvalues --   -0.28305  -0.27696  -0.27049  -0.27011  -0.26360
 Alpha  occ. eigenvalues --   -0.25704  -0.25542  -0.24646  -0.22382  -0.19923
 Alpha  occ. eigenvalues --   -0.19229
 Alpha virt. eigenvalues --   -0.10362  -0.07953  -0.04609  -0.01906  -0.00829
 Alpha virt. eigenvalues --   -0.00615  -0.00228   0.01305   0.01960   0.03311
 Alpha virt. eigenvalues --    0.03640   0.03664   0.04123   0.04447   0.04646

 Mulliken charges:
               1
     1  C   -0.010311
     2  C   -0.082711
     3  C   -0.028961
     4  C   -0.123963
     5  N   -0.156483
     6  C    0.026196
     7  C   -0.103378
     8  C   -0.081195
     9  C    0.043038
    10  C   -0.037252
    11  C    0.193374
    12  C    0.007954
    13  C    0.164152
    14  O   -0.216564
    15  O   -0.308017
    16  N    0.083961
    17  C   -0.063915
    18  C   -0.111575
    19  C    0.029266
    20  C    0.137558
    21  C   -0.014006
    22  C   -0.083881
    23  C   -0.050306
    24  N   -0.260064
    25  C    0.060337
    26  C   -0.096777
    27  C   -0.101794
    28  C    0.080100
    29  C   -0.041438
    30  C    0.025690
    31  C    0.103611
    32  N    0.097137
    33  C   -0.004148
    34  C   -0.224814
    35  C   -0.051662
    36  C    0.026966
    37  C    0.255170
    38  C    0.182808
    39  O   -0.180174
    40  C   -0.030686
    41  C    0.188451
    42  O   -0.236421
    43  O   -0.274726
    44  C    0.211772
    45  C    0.172637
    46  C   -0.103021
    47  C   -0.119534
    48  C   -0.015294
    49  C    0.077045
    50  C   -0.027151
    51  C    0.021173
    52  C   -0.085756
    53  C   -0.084414
    54  C    0.052077
    55  C    0.000812
    56  C    0.040396
    57  C   -0.021552
    58  C    0.065320
    59  C   -0.057421
    60  C    0.023246
    61  C    0.027344
    62  C   -0.068917
    63  C    0.048278
    64  C    0.040281
    65  H    0.001400
    66  H   -0.102935
    67  H    0.021607
    68  H    0.051779
    69  H    0.026527
    70  H    0.018829
    71  H    0.009978
    72  H    0.060680
    73  H   -0.059447
    74  H    0.007484
    75  H    0.006198
    76  H    0.050725
    77  H    0.042554
    78  H    0.057827
    79  H    0.070890
    80  H    0.025573
    81  H    0.041447
    82  H    0.034858
    83  H    0.031078
    84  H    0.047825
    85  H    0.035308
    86  H   -0.020025
    87  H    0.007379
    88  H    0.036446
    89  H   -0.010140
    90  H    0.013401
    91  H   -0.008023
    92  H   -0.024841
    93  H    0.008483
    94  H    0.062878
    95  H    0.020420
    96  H    0.042125
    97  H   -0.001365
    98  H    0.031411
    99  H    0.030565
   100  H    0.002577
   101  H    0.016559
   102  H    0.055933
   103  H    0.033947
   104  H    0.016886
   105  H    0.011577
   106  H    0.017317
   107  H    0.021926
   108  H    0.006576
   109  H    0.005268
   110  H    0.000439
   111  H    0.028762
   112  H    0.039350
   113  H    0.032853
   114  H    0.019439
   115  H   -0.021120
   116  H    0.000940
   117  H   -0.019124
   118  H   -0.023236
   119  H   -0.015664
   120  H   -0.032814
   121  H    0.007097
   122  H   -0.009168
   123  H   -0.002916
   124  H   -0.011884
   125  H   -0.004363
   126  H    0.008509
   127  H    0.014970
   128  H   -0.000225
   129  H   -0.003920
   130  H   -0.013282
   131  H    0.007786
   132  H    0.010387
   133  H   -0.008759
   134  H    0.001259
   135  H    0.009053
   136  H   -0.029298
   137  H    0.118313
   138  H    0.111281
 Sum of Mulliken charges =   0.00000

 Dipole moment (field-independent basis, Debye):
    X=              1.3748    Y=              3.0160    Z=              0.2383  Tot=              3.3231
 Quadrupole moment (field-independent basis, Debye-Ang):
   XX=           -363.5295   YY=           -383.0966   ZZ=           -396.7121
   XY=            -17.4704   XZ=              3.3086   YZ=             -2.2045

 Normal termination of Gaussian 09 at Thu Aug  1 21:52:55 2019.
