 Gaussian 09, Revision D.01,
 Gaussian 09:  ES64L-G09RevD.01 24-Apr-2013

 --------------------------
 # td=(NStates=1) B3LYP/SVP
 --------------------------

 --
 TD
 --
 Symbolic Z-matrix:
 Charge =  0 Multiplicity = 1

                         Standard orientation:
 ---------------------------------------------------------------------
 Center     Atomic      Atomic             Coordinates (Angstroms)
 Number     Number       Type             X           Y           Z
 ---------------------------------------------------------------------
      1          6           0       -4.997008   -1.892539    0.315219
      2          6           0       -4.717530    2.806180    1.253072
      3          6           0       -9.394616    3.318555   -0.169880
      4          6           0       -9.829062   -1.441259   -0.843364
      5          7           0       -5.202108    0.509985    0.765298
      6          6           0       -4.446268   -0.657455    0.724702
      7          6           0       -3.026567   -0.510672    1.246327
      8          6           0       -3.116909    0.968200    1.857401
      9          6           0       -4.361654    1.397022    1.301577
     10          6           0       -2.961904    0.989644    3.356791
     11          6           0       -1.995483   -0.796930    0.151815
     12          6           0       -0.563068   -0.589355    0.534273
     13          6           0        0.456753   -0.922389   -0.635520
     14          8           0        0.182397   -1.623829   -1.625796
     15          8           0        1.678762   -0.484391   -0.324875
     16          7           0       -7.151917    2.762610    0.482018
     17          6           0       -6.043746    3.400718    0.916717
     18          6           0       -6.354407    4.794614    0.993941
     19          6           0       -7.608743    4.940539    0.542312
     20          6           0       -8.211643    3.615653    0.298158
     21          6           0       -5.400619    5.818053    1.531912
     22          6           0       -8.196006    6.273701    0.310269
     23          6           0       -9.090103    6.624624   -0.610180
     24          7           0       -9.188156    0.866546   -0.505027
     25          6           0       -9.846466    2.021149   -0.601225
     26          6           0      -11.262045    1.831295   -1.123129
     27          6           0      -11.560427    0.481338   -1.059153
     28          6           0      -10.176071   -0.099437   -0.815109
     29          6           0      -12.275919    2.928138   -1.124969
     30          6           0      -12.717236   -0.267040   -1.554941
     31          6           0      -12.721868   -0.618367   -3.014116
     32          7           0       -7.485122   -1.219395   -0.260171
     33          6           0       -8.584139   -2.003270   -0.532174
     34          6           0       -8.289235   -3.378081   -0.544379
     35          6           0       -6.897264   -3.451841   -0.205709
     36          6           0       -6.468843   -2.072569   -0.004321
     37          6           0       -9.136203   -4.474022   -0.895622
     38          6           0       -5.724475   -4.314896   -0.020437
     39          8           0       -5.652818   -5.537445   -0.091018
     40          6           0       -4.417671   -3.275058    0.423323
     41          6           0       -3.926496   -3.827039    1.761228
     42          8           0       -4.148889   -3.367644    2.801051
     43          8           0       -3.153060   -4.880113    1.430836
     44          6           0       -2.720424   -5.530757    2.664245
     45          6           0        2.720026   -1.140859   -1.184383
     46          6           0        4.066214   -0.721336   -0.625488
     47          6           0        5.091525   -0.038993   -1.208295
     48          6           0        4.965283    0.243762   -2.705325
     49          6           0        6.281669    0.312736   -0.434726
     50          6           0        7.559745   -0.349226   -1.064677
     51          6           0        8.732228   -0.142584   -0.206625
     52          6           0       10.075541   -0.804610   -0.650035
     53          6           0        9.962349   -2.365095   -0.610302
     54          6           0       11.286473   -0.177319    0.036843
     55          6           0       12.796573   -0.569188   -0.450876
     56          6           0       13.904162    0.067497    0.330732
     57          6           0       15.282958   -0.103113   -0.205126
     58          6           0       15.730382   -1.586960   -0.250438
     59          6           0       16.362868    0.775173    0.457242
     60          6           0       17.739423    0.781474   -0.052305
     61          6           0       18.682863    1.703828    0.584679
     62          6           0       20.089356    1.515383    0.065609
     63          6           0       20.340147    1.756483   -1.391119
     64          6           0       20.984330    2.595481    0.920911
     65          1           0       -3.963109    3.340241    1.774387
     66          1           0      -10.231814    4.079252   -0.544211
     67          1           0      -10.768734   -2.079145   -0.889900
     68          1           0       -3.034146   -1.098553    2.102185
     69          1           0       -2.339646    1.707364    1.364264
     70          1           0       -1.848963    0.585200    3.603830
     71          1           0       -2.939733    2.161421    3.627429
     72          1           0       -3.823922    0.492608    3.936051
     73          1           0       -2.203355   -1.745845   -0.128614
     74          1           0       -2.069162   -0.008241   -0.743120
     75          1           0       -0.470486    0.391983    1.108531
     76          1           0       -0.059398   -1.014449    1.380709
     77          1           0       -4.355326    5.668976    1.086560
     78          1           0       -5.859481    6.889080    1.203030
     79          1           0       -5.114238    5.813825    2.642599
     80          1           0       -7.938798    7.209830    0.837935
     81          1           0       -9.499093    6.075535   -1.591594
     82          1           0       -9.216035    7.699507   -0.703796
     83          1           0      -12.324100    3.413864   -0.170439
     84          1           0      -11.949356    3.618945   -1.996151
     85          1           0      -13.244464    2.515230   -1.408103
     86          1           0      -12.811978   -1.261621   -0.905581
     87          1           0      -13.712188    0.279788   -0.981491
     88          1           0      -12.741052    0.430913   -3.621150
     89          1           0      -11.862881   -1.323031   -3.275767
     90          1           0      -13.703142   -1.289895   -3.352945
     91          1           0       -9.985009   -4.486759   -0.102034
     92          1           0       -9.668910   -4.612206   -1.853949
     93          1           0       -8.789397   -5.570201   -0.736666
     94          1           0       -3.568050   -3.415916   -0.248685
     95          1           0       -2.008902   -6.367519    2.462356
     96          1           0       -2.230139   -4.651631    3.349943
     97          1           0       -3.574304   -5.893450    3.256088
     98          1           0        2.660207   -2.355314   -1.242864
     99          1           0        2.605875   -0.921674   -2.305002
    100          1           0        4.091691   -0.910397    0.441355
    101          1           0        5.103376    1.323615   -2.947431
    102          1           0        5.672387   -0.419423   -3.434929
    103          1           0        4.076390   -0.268133   -3.267319
    104          1           0        6.460872    1.372341   -0.404466
    105          1           0        6.173858   -0.020380    0.593787
    106          1           0        7.265100   -1.457773   -1.271726
    107          1           0        7.771418    0.200412   -2.100028
    108          1           0        9.106775    0.890044   -0.205736
    109          1           0        8.860692   -0.490722    0.915830
    110          1           0       10.383185   -0.497895   -1.662967
    111          1           0        9.161762   -2.779486   -1.216370
    112          1           0       10.987434   -2.826515   -0.883009
    113          1           0        9.988777   -2.603834    0.628298
    114          1           0       11.316586    1.038007   -0.102473
    115          1           0       10.943801   -0.351103    1.172677
    116          1           0       12.923961   -1.561584   -0.515898
    117          1           0       12.744102   -0.251217   -1.585483
    118          1           0       13.683432    1.122700    0.400377
    119          1           0       13.654493   -0.429735    1.347848
    120          1           0       15.156923    0.282552   -1.278065
    121          1           0       15.040107   -2.346338   -0.653944
    122          1           0       16.794650   -1.761003   -0.679524
    123          1           0       15.790896   -1.823454    0.829099
    124          1           0       15.887282    1.843225    0.481114
    125          1           0       16.353567    0.701183    1.547664
    126          1           0       18.096094   -0.393892    0.044145
    127          1           0       17.951439    1.086244   -1.262002
    128          1           0       18.323863    2.744032    0.693842
    129          1           0       18.893909    1.541961    1.586628
    130          1           0       20.237386    0.524220    0.277545
    131          1           0       19.686533    2.777236   -1.638990
    132          1           0       21.383319    1.689810   -1.781155
    133          1           0       19.874141    1.098602   -2.101548
    134          1           0       20.748276    2.314159    1.913497
    135          1           0       22.006682    2.685378    0.636433
    136          1           0       20.604416    3.596831    0.712899
    137          1           0       -7.502009    1.859344    0.366251
    138          1           0       -7.538809   -0.101860   -0.138576
 ---------------------------------------------------------------------

 SCF Done:  E(RB3LYP) =  -2733.08197874     A.U. after   17 cycles

 Excitation energies and oscillator strengths:

 Excited State   1:      Singlet-A      2.0738 eV  597.85 nm  f=0.1693  <S**2>=0.000
     235 -> 237       -0.18992
     235 -> 238        0.28375
     236 -> 237        0.60899
 This state for optimization and/or second-order correction.
 Total Energy, E(TD-HF/TD-KS) =  -2733.00576711
 Copying the excited state density for this state as the 1-particle RhoCI density.

 The electronic state is 1-A.
 Alpha  occ. eigenvalues --  -19.18924 -19.17612 -19.12646 -19.12352 -19.11704
 Alpha  occ. eigenvalues --  -14.37108 -14.36994 -14.31988 -14.31461 -10.32000
 Alpha  occ. eigenvalues --  -10.30604 -10.27819 -10.26289 -10.25267 -10.25000
 Alpha  occ. eigenvalues --  -10.23526 -10.23373 -10.22532 -10.22479 -10.22471
 Alpha  occ. eigenvalues --  -10.22164 -10.21950 -10.21903 -10.21724 -10.21658
 Alpha  occ. eigenvalues --  -10.21626 -10.21042 -10.20914 -10.20806 -10.20724
 Alpha  occ. eigenvalues --  -10.20716 -10.20649 -10.20608 -10.20589 -10.20554
 Alpha  occ. eigenvalues --  -10.20309 -10.20272 -10.20200 -10.20137 -10.20099
 Alpha  occ. eigenvalues --  -10.20072 -10.20057 -10.19946 -10.19826 -10.19787
 Alpha  occ. eigenvalues --  -10.19551 -10.19551 -10.19548 -10.19470 -10.19330
 Alpha  occ. eigenvalues --  -10.19206 -10.18970 -10.18964 -10.18961 -10.18911
 Alpha  occ. eigenvalues --  -10.18856 -10.18823 -10.18625 -10.18453 -10.18390
 Alpha  occ. eigenvalues --  -10.18388 -10.18305 -10.17332 -10.16949  -1.10342
 Alpha  occ. eigenvalues --   -1.08902  -1.02505  -1.00991  -0.99790  -0.99023
 Alpha  occ. eigenvalues --   -0.97678  -0.94566  -0.93236  -0.82940  -0.82928
 Alpha  occ. eigenvalues --   -0.82735  -0.82335  -0.81375  -0.81220  -0.81091
 Alpha  occ. eigenvalues --   -0.80289  -0.80240  -0.80124  -0.78808  -0.77593
 Alpha  occ. eigenvalues --   -0.76710  -0.76156  -0.75505  -0.75069  -0.74731
 Alpha  occ. eigenvalues --   -0.72971  -0.72542  -0.71972  -0.71340  -0.70490
 Alpha  occ. eigenvalues --   -0.69753  -0.69039  -0.67996  -0.67889  -0.67771
 Alpha  occ. eigenvalues --   -0.67232  -0.66755  -0.66453  -0.65683  -0.64899
 Alpha  occ. eigenvalues --   -0.63516  -0.63114  -0.62236  -0.61649  -0.61143
 Alpha  occ. eigenvalues --   -0.60905  -0.58890  -0.58284  -0.58079  -0.57107
 Alpha  occ. eigenvalues --   -0.56699  -0.56416  -0.56060  -0.56003  -0.55147
 Alpha  occ. eigenvalues --   -0.54861  -0.54262  -0.53728  -0.53072  -0.52933
 Alpha  occ. eigenvalues --   -0.52165  -0.51348  -0.50947  -0.50748  -0.49790
 Alpha  occ. eigenvalues --   -0.49104  -0.48903  -0.48828  -0.48540  -0.48370
 Alpha  occ. eigenvalues --   -0.47953  -0.47831  -0.47605  -0.47361  -0.47170
 Alpha  occ. eigenvalues --   -0.46916  -0.46346  -0.46248  -0.46080  -0.45678
 Alpha  occ. eigenvalues --   -0.45215  -0.45080  -0.44919  -0.44761  -0.44579
 Alpha  occ. eigenvalues --   -0.44341  -0.44267  -0.44046  -0.43933  -0.43450
 Alpha  occ. eigenvalues --   -0.43326  -0.43213  -0.42797  -0.42632  -0.42360
 Alpha  occ. eigenvalues --   -0.42266  -0.42142  -0.42010  -0.41807  -0.41406
 Alpha  occ. eigenvalues --   -0.40848  -0.40759  -0.40591  -0.40371  -0.40291
 Alpha  occ. eigenvalues --   -0.40272  -0.40098  -0.39707  -0.39612  -0.39515
 Alpha  occ. eigenvalues --   -0.39319  -0.38584  -0.38436  -0.38191  -0.38048
 Alpha  occ. eigenvalues --   -0.37960  -0.37756  -0.37667  -0.37537  -0.37473
 Alpha  occ. eigenvalues --   -0.37236  -0.37068  -0.36977  -0.36947  -0.36550
 Alpha  occ. eigenvalues --   -0.36166  -0.36090  -0.36002  -0.35851  -0.35725
 Alpha  occ. eigenvalues --   -0.35707  -0.35127  -0.35067  -0.34672  -0.34377
 Alpha  occ. eigenvalues --   -0.34235  -0.34163  -0.34015  -0.33680  -0.33574
 Alpha  occ. eigenvalues --   -0.33372  -0.33209  -0.32919  -0.32576  -0.32148
 Alpha  occ. eigenvalues --   -0.32087  -0.31787  -0.31692  -0.31505  -0.31160
 Alpha  occ. eigenvalues --   -0.31068  -0.30610  -0.30532  -0.30474  -0.30244
 Alpha  occ. eigenvalues --   -0.29813  -0.29178  -0.28878  -0.28682  -0.28343
 Alpha  occ. eigenvalues --   -0.28059  -0.27612  -0.27322  -0.25584  -0.25375
 Alpha  occ. eigenvalues --   -0.24685  -0.24540  -0.23942  -0.23659  -0.19522
 Alpha  occ. eigenvalues --   -0.18741
 Alpha virt. eigenvalues --   -0.10059  -0.07370  -0.03861  -0.01595  -0.00689
 Alpha virt. eigenvalues --   -0.00062   0.00236   0.01690   0.02169   0.03316
 Alpha virt. eigenvalues --    0.03355   0.03745   0.04211   0.04439   0.04711

 Mulliken charges:
               1
     1  C    0.051178
     2  C   -0.039572
     3  C   -0.142304
     4  C   -0.105303
     5  N   -0.166399
     6  C   -0.090998
     7  C    0.059095
     8  C   -0.105920
     9  C   -0.041914
    10  C    0.014983
    11  C    0.176724
    12  C   -0.006320
    13  C    0.217790
    14  O   -0.266099
    15  O   -0.297559
    16  N    0.011120
    17  C    0.124238
    18  C   -0.100473
    19  C    0.075128
    20  C    0.130375
    21  C    0.025081
    22  C   -0.063879
    23  C   -0.093300
    24  N   -0.275059
    25  C    0.002764
    26  C   -0.179852
    27  C   -0.049377
    28  C    0.029472
    29  C    0.101834
    30  C   -0.028148
    31  C   -0.027864
    32  N   -0.074880
    33  C    0.114050
    34  C   -0.075910
    35  C    0.030672
    36  C    0.003332
    37  C    0.015786
    38  C    0.060597
    39  O   -0.180980
    40  C   -0.115872
    41  C    0.185052
    42  O   -0.171653
    43  O   -0.300385
    44  C    0.143419
    45  C    0.196701
    46  C   -0.097587
    47  C   -0.091931
    48  C   -0.017821
    49  C    0.154191
    50  C   -0.034355
    51  C    0.036461
    52  C   -0.083143
    53  C   -0.006707
    54  C   -0.085611
    55  C    0.046919
    56  C    0.053704
    57  C   -0.026030
    58  C   -0.007757
    59  C    0.046430
    60  C   -0.021011
    61  C    0.068119
    62  C   -0.064669
    63  C   -0.001568
    64  C    0.077884
    65  H   -0.049634
    66  H    0.028110
    67  H   -0.005714
    68  H   -0.023015
    69  H    0.026103
    70  H    0.040733
    71  H    0.023491
    72  H    0.058279
    73  H   -0.021234
    74  H    0.037086
    75  H    0.005690
    76  H    0.003242
    77  H    0.034062
    78  H    0.038763
    79  H    0.045418
    80  H    0.014012
    81  H    0.048545
    82  H    0.014710
    83  H    0.037249
    84  H    0.028359
    85  H    0.006396
    86  H    0.015082
    87  H    0.029613
    88  H    0.043542
    89  H    0.040751
    90  H    0.033602
    91  H    0.024149
    92  H    0.032924
    93  H    0.039178
    94  H    0.058663
    95  H    0.046051
    96  H    0.042303
    97  H    0.036584
    98  H    0.054102
    99  H    0.034737
   100  H   -0.015212
   101  H    0.038382
   102  H    0.031073
   103  H    0.019698
   104  H   -0.006439
   105  H   -0.007684
   106  H    0.026072
   107  H    0.026760
   108  H   -0.014153
   109  H    0.005692
   110  H   -0.024680
   111  H    0.033617
   112  H    0.017949
   113  H    0.010423
   114  H    0.019837
   115  H   -0.003593
   116  H   -0.036080
   117  H   -0.005197
   118  H   -0.018412
   119  H    0.001688
   120  H   -0.006279
   121  H    0.016642
   122  H    0.031663
   123  H   -0.003476
   124  H   -0.020471
   125  H   -0.020491
   126  H    0.014478
   127  H    0.014749
   128  H   -0.017198
   129  H   -0.049844
   130  H   -0.035963
   131  H    0.011302
   132  H    0.015976
   133  H   -0.003579
   134  H   -0.002423
   135  H   -0.001660
   136  H   -0.002667
   137  H    0.103079
   138  H    0.219598
 Sum of Mulliken charges =   0.00000

 Dipole moment (field-independent basis, Debye):
    X=              1.8899    Y=              4.7720    Z=              1.3329  Tot=              5.3029
 Quadrupole moment (field-independent basis, Debye-Ang):
   XX=           -336.7025   YY=           -387.5787   ZZ=           -393.7675
   XY=            -26.3656   XZ=              5.8147   YZ=             -2.4185

 Normal termination of Gaussian 09 at Tue Jul 30 19:19:02 2019.
