 Gaussian 09, Revision D.01,
 Gaussian 09:  ES64L-G09RevD.01 24-Apr-2013

 --------------------------
 # td=(NStates=1) B3LYP/SVP
 --------------------------

 --
 TD
 --
 Symbolic Z-matrix:
 Charge =  0 Multiplicity = 1

                         Standard orientation:
 ---------------------------------------------------------------------
 Center     Atomic      Atomic             Coordinates (Angstroms)
 Number     Number       Type             X           Y           Z
 ---------------------------------------------------------------------
      1          6           0       -5.053435   -1.800029    0.442682
      2          6           0       -4.726724    2.883116    1.332478
      3          6           0       -9.407232    3.325974   -0.138866
      4          6           0       -9.841588   -1.501805   -0.688490
      5          7           0       -5.173299    0.513860    0.787772
      6          6           0       -4.525862   -0.755245    0.836127
      7          6           0       -3.122146   -0.549720    1.243037
      8          6           0       -3.025117    1.022049    1.637552
      9          6           0       -4.370527    1.514552    1.213729
     10          6           0       -2.765344    1.156008    3.137629
     11          6           0       -2.065672   -0.713420    0.015734
     12          6           0       -0.603279   -0.721934    0.414909
     13          6           0        0.382147   -1.109394   -0.690607
     14          8           0        0.061696   -1.807420   -1.633523
     15          8           0        1.677996   -0.615407   -0.542759
     16          7           0       -7.045965    2.785664    0.460403
     17          6           0       -5.956195    3.515013    1.014749
     18          6           0       -6.308044    4.925852    0.968685
     19          6           0       -7.518462    4.994124    0.435887
     20          6           0       -8.043837    3.589591    0.192121
     21          6           0       -5.261470    5.945917    1.376711
     22          6           0       -8.133742    6.235221    0.166923
     23          6           0       -9.186132    6.557523   -0.776995
     24          7           0       -9.230638    0.889362   -0.457624
     25          6           0       -9.928992    2.060861   -0.451116
     26          6           0      -11.353634    1.813433   -0.852767
     27          6           0      -11.370690    0.397146   -0.909483
     28          6           0      -10.148096   -0.076018   -0.623131
     29          6           0      -12.310179    2.901378   -1.012346
     30          6           0      -12.649093   -0.363158   -1.438700
     31          6           0      -12.661799   -0.768290   -2.883172
     32          7           0       -7.555837   -1.288288   -0.088723
     33          6           0       -8.629160   -2.083781   -0.471900
     34          6           0       -8.274169   -3.472067   -0.395523
     35          6           0       -6.892099   -3.444254   -0.056363
     36          6           0       -6.445037   -2.045830    0.089839
     37          6           0       -9.171605   -4.580611   -0.655595
     38          6           0       -5.657269   -4.303599    0.245454
     39          8           0       -5.574764   -5.460644    0.187778
     40          6           0       -4.513821   -3.285267    0.459517
     41          6           0       -3.746575   -3.783209    1.699052
     42          8           0       -3.994931   -3.323801    2.810746
     43          8           0       -2.806844   -4.713976    1.393382
     44          6           0       -2.316157   -5.374959    2.431941
     45          6           0        2.649596   -1.112496   -1.386166
     46          6           0        3.936255   -0.656796   -0.897920
     47          6           0        5.021242   -0.065340   -1.531955
     48          6           0        5.021272    0.401179   -2.970001
     49          6           0        6.238930    0.300172   -0.708899
     50          6           0        7.451863   -0.599656   -1.116931
     51          6           0        8.769326   -0.153640   -0.273830
     52          6           0       10.122336   -0.830041   -0.726915
     53          6           0        9.907805   -2.313852   -0.704950
     54          6           0       11.344907   -0.266804    0.065965
     55          6           0       12.629273   -0.674803   -0.503530
     56          6           0       13.765102    0.069605    0.291798
     57          6           0       15.137746   -0.033873   -0.362980
     58          6           0       15.523442   -1.544505   -0.588811
     59          6           0       16.215075    0.615042    0.562351
     60          6           0       17.570051    0.839726   -0.003998
     61          6           0       18.648414    1.536857    0.829914
     62          6           0       20.092791    1.648698    0.303583
     63          6           0       20.154550    2.319913   -1.056800
     64          6           0       21.052394    2.229354    1.298340
     65          1           0       -3.848533    3.473634    1.446709
     66          1           0       -9.975277    4.341345   -0.029501
     67          1           0      -10.570188   -2.160524   -0.982269
     68          1           0       -2.789251   -1.092463    2.147284
     69          1           0       -2.470890    1.769935    0.988493
     70          1           0       -1.599527    0.730764    3.551480
     71          1           0       -2.815653    2.142659    3.318976
     72          1           0       -3.743042    0.742411    3.722910
     73          1           0       -2.275601   -1.523360   -0.725047
     74          1           0       -2.115234    0.074849   -0.670697
     75          1           0       -0.322613    0.255630    0.948591
     76          1           0       -0.379802   -1.559354    1.257667
     77          1           0       -4.261132    5.941964    0.858099
     78          1           0       -5.602860    6.978910    1.156377
     79          1           0       -5.251957    5.908058    2.507293
     80          1           0       -7.765260    7.185844    0.670592
     81          1           0       -9.607960    5.877708   -1.416252
     82          1           0       -9.652248    7.581191   -0.772148
     83          1           0      -12.527367    3.601430   -0.161258
     84          1           0      -12.235659    3.342018   -1.980787
     85          1           0      -13.260075    2.333161   -1.225890
     86          1           0      -12.843523   -1.369192   -0.845226
     87          1           0      -13.587577    0.339367   -1.306020
     88          1           0      -12.608921    0.177807   -3.588216
     89          1           0      -11.883326   -1.584966   -3.035210
     90          1           0      -13.626422   -1.295213   -2.935238
     91          1           0      -10.178949   -4.315730   -0.245871
     92          1           0       -9.312163   -4.543029   -1.815385
     93          1           0       -8.886785   -5.638090   -0.231627
     94          1           0       -3.831857   -3.127661   -0.404626
     95          1           0       -1.544526   -6.189962    2.063942
     96          1           0       -1.873428   -4.746173    3.141102
     97          1           0       -3.177915   -5.918780    2.917290
     98          1           0        2.454938   -2.219982   -1.486100
     99          1           0        2.529644   -0.622710   -2.425494
    100          1           0        4.051838   -1.147547    0.133988
    101          1           0        5.180544    1.582138   -3.011049
    102          1           0        5.786717   -0.131919   -3.584822
    103          1           0        3.977746    0.140373   -3.410489
    104          1           0        6.446722    1.435895   -0.988849
    105          1           0        6.031423    0.131966    0.350653
    106          1           0        7.077022   -1.571796   -1.027598
    107          1           0        7.422439   -0.398182   -2.265339
    108          1           0        8.681378    0.914213   -0.351049
    109          1           0        8.459559   -0.479706    0.857182
    110          1           0       10.345930   -0.598494   -1.808882
    111          1           0        8.990644   -2.731184   -1.205400
    112          1           0       10.756589   -2.713395   -1.125228
    113          1           0        9.831274   -2.590932    0.352824
    114          1           0       11.334827    0.793787    0.325981
    115          1           0       11.279467   -0.562191    1.157062
    116          1           0       12.559452   -1.672617   -0.497038
    117          1           0       12.762865   -0.326100   -1.671844
    118          1           0       13.398834    1.063475    0.255463
    119          1           0       13.727954   -0.105447    1.213069
    120          1           0       15.020414    0.601022   -1.323532
    121          1           0       14.934108   -2.070425   -1.069740
    122          1           0       16.353648   -1.800099   -0.972503
    123          1           0       15.819471   -2.110702    0.409147
    124          1           0       15.882789    1.613569    0.965119
    125          1           0       16.339916   -0.068902    1.566829
    126          1           0       18.091622   -0.219567   -0.269202
    127          1           0       17.411159    1.538608   -0.849767
    128          1           0       18.299843    2.766641    1.171914
    129          1           0       18.802137    0.965741    1.710893
    130          1           0       20.587320    0.695717    0.149163
    131          1           0       19.822855    3.195597   -0.975821
    132          1           0       21.190819    2.419546   -1.545730
    133          1           0       19.711048    1.714136   -1.983978
    134          1           0       20.804424    2.058874    2.447959
    135          1           0       22.184823    2.043664    1.072929
    136          1           0       20.801556    3.489278    1.394707
    137          1           0       -7.210542    1.677055    0.493160
    138          1           0       -7.282723   -0.251257   -0.109699
 ---------------------------------------------------------------------

 SCF Done:  E(RB3LYP) =  -2733.00782942     A.U. after   17 cycles

 Excitation energies and oscillator strengths:

 Excited State   1:      Singlet-A      1.9656 eV  630.75 nm  f=0.2098  <S**2>=0.000
     235 -> 237       -0.12140
     235 -> 238        0.18802
     236 -> 237        0.64822
     236 -> 238        0.14847
 This state for optimization and/or second-order correction.
 Total Energy, E(TD-HF/TD-KS) =  -2732.93559315
 Copying the excited state density for this state as the 1-particle RhoCI density.

 The electronic state is 1-A.
 Alpha  occ. eigenvalues --  -19.18754 -19.17334 -19.13291 -19.12997 -19.12917
 Alpha  occ. eigenvalues --  -14.37746 -14.37339 -14.32004 -14.28850 -10.32588
 Alpha  occ. eigenvalues --  -10.32206 -10.28322 -10.24650 -10.24298 -10.24196
 Alpha  occ. eigenvalues --  -10.23971 -10.23756 -10.23198 -10.23048 -10.22237
 Alpha  occ. eigenvalues --  -10.21963 -10.21803 -10.21754 -10.21559 -10.21387
 Alpha  occ. eigenvalues --  -10.21139 -10.21058 -10.20826 -10.20779 -10.20755
 Alpha  occ. eigenvalues --  -10.20702 -10.20682 -10.20615 -10.20606 -10.20482
 Alpha  occ. eigenvalues --  -10.20352 -10.20327 -10.20271 -10.20225 -10.20163
 Alpha  occ. eigenvalues --  -10.19928 -10.19923 -10.19849 -10.19827 -10.19683
 Alpha  occ. eigenvalues --  -10.19451 -10.19397 -10.19379 -10.19356 -10.19242
 Alpha  occ. eigenvalues --  -10.19091 -10.19027 -10.18958 -10.18953 -10.18921
 Alpha  occ. eigenvalues --  -10.18613 -10.18110 -10.17960 -10.17931 -10.17583
 Alpha  occ. eigenvalues --  -10.17184 -10.17161 -10.16248 -10.15561  -1.11791
 Alpha  occ. eigenvalues --   -1.09139  -1.06277  -1.01714  -1.01129  -0.98468
 Alpha  occ. eigenvalues --   -0.97976  -0.93523  -0.93212  -0.84629  -0.82787
 Alpha  occ. eigenvalues --   -0.82476  -0.81731  -0.81377  -0.81119  -0.80312
 Alpha  occ. eigenvalues --   -0.79891  -0.79670  -0.79317  -0.78297  -0.77500
 Alpha  occ. eigenvalues --   -0.76916  -0.76207  -0.75515  -0.75085  -0.74182
 Alpha  occ. eigenvalues --   -0.73778  -0.73597  -0.73222  -0.72103  -0.70679
 Alpha  occ. eigenvalues --   -0.70298  -0.69717  -0.69495  -0.68843  -0.67634
 Alpha  occ. eigenvalues --   -0.67283  -0.67032  -0.66334  -0.66221  -0.65073
 Alpha  occ. eigenvalues --   -0.64001  -0.62882  -0.62376  -0.60735  -0.60599
 Alpha  occ. eigenvalues --   -0.59174  -0.59046  -0.58910  -0.58379  -0.58127
 Alpha  occ. eigenvalues --   -0.57569  -0.56650  -0.55937  -0.55934  -0.55474
 Alpha  occ. eigenvalues --   -0.55394  -0.55025  -0.54378  -0.53969  -0.52893
 Alpha  occ. eigenvalues --   -0.52812  -0.52118  -0.51856  -0.51248  -0.50474
 Alpha  occ. eigenvalues --   -0.50034  -0.49802  -0.48967  -0.48880  -0.48544
 Alpha  occ. eigenvalues --   -0.48094  -0.47885  -0.47717  -0.47442  -0.47061
 Alpha  occ. eigenvalues --   -0.46629  -0.46577  -0.46249  -0.46139  -0.45990
 Alpha  occ. eigenvalues --   -0.45493  -0.45256  -0.45159  -0.44987  -0.44753
 Alpha  occ. eigenvalues --   -0.44344  -0.44095  -0.43769  -0.43740  -0.43477
 Alpha  occ. eigenvalues --   -0.43458  -0.43297  -0.43218  -0.43094  -0.42647
 Alpha  occ. eigenvalues --   -0.42438  -0.41998  -0.41888  -0.41660  -0.41527
 Alpha  occ. eigenvalues --   -0.41460  -0.41063  -0.40916  -0.40715  -0.40571
 Alpha  occ. eigenvalues --   -0.40360  -0.40074  -0.39880  -0.39747  -0.39592
 Alpha  occ. eigenvalues --   -0.39437  -0.39289  -0.39053  -0.38894  -0.38669
 Alpha  occ. eigenvalues --   -0.38557  -0.38378  -0.38124  -0.38093  -0.37365
 Alpha  occ. eigenvalues --   -0.37103  -0.37044  -0.36908  -0.36829  -0.36621
 Alpha  occ. eigenvalues --   -0.36394  -0.36260  -0.35963  -0.35954  -0.35632
 Alpha  occ. eigenvalues --   -0.35439  -0.35406  -0.35243  -0.35113  -0.34912
 Alpha  occ. eigenvalues --   -0.34680  -0.34449  -0.33939  -0.33469  -0.33383
 Alpha  occ. eigenvalues --   -0.33215  -0.33057  -0.33053  -0.32742  -0.32308
 Alpha  occ. eigenvalues --   -0.32158  -0.32005  -0.31663  -0.31533  -0.31288
 Alpha  occ. eigenvalues --   -0.31063  -0.30774  -0.30714  -0.30500  -0.30240
 Alpha  occ. eigenvalues --   -0.29691  -0.29407  -0.28878  -0.28656  -0.28353
 Alpha  occ. eigenvalues --   -0.27779  -0.27092  -0.26142  -0.25952  -0.25701
 Alpha  occ. eigenvalues --   -0.25365  -0.24117  -0.23804  -0.21699  -0.20526
 Alpha  occ. eigenvalues --   -0.18180
 Alpha virt. eigenvalues --   -0.10248  -0.08075  -0.04176  -0.02580  -0.01089
 Alpha virt. eigenvalues --   -0.00997  -0.00785   0.00519   0.02560   0.03690
 Alpha virt. eigenvalues --    0.03771   0.04488   0.04513   0.04722   0.05138

 Mulliken charges:
               1
     1  C    0.105827
     2  C   -0.048184
     3  C   -0.118993
     4  C   -0.081606
     5  N   -0.245133
     6  C   -0.077255
     7  C    0.011305
     8  C   -0.074351
     9  C   -0.045800
    10  C    0.052663
    11  C    0.057037
    12  C   -0.002992
    13  C    0.180816
    14  O   -0.230923
    15  O   -0.317791
    16  N   -0.084675
    17  C    0.106892
    18  C   -0.102413
    19  C    0.069140
    20  C    0.037032
    21  C    0.092447
    22  C   -0.146559
    23  C   -0.034843
    24  N   -0.226998
    25  C    0.078004
    26  C   -0.165530
    27  C   -0.070094
    28  C    0.096671
    29  C    0.152395
    30  C   -0.029261
    31  C    0.012420
    32  N   -0.057772
    33  C    0.116351
    34  C   -0.126155
    35  C   -0.043660
    36  C   -0.024368
    37  C    0.040943
    38  C    0.096929
    39  O   -0.103305
    40  C   -0.032881
    41  C    0.194907
    42  O   -0.236794
    43  O   -0.241668
    44  C    0.170348
    45  C    0.249829
    46  C   -0.108539
    47  C   -0.150552
    48  C    0.025326
    49  C    0.046258
    50  C   -0.027078
    51  C    0.041568
    52  C   -0.044236
    53  C    0.071662
    54  C    0.017328
    55  C    0.044293
    56  C    0.160152
    57  C   -0.042615
    58  C    0.205500
    59  C   -0.021470
    60  C    0.041642
    61  C   -0.010308
    62  C   -0.032215
    63  C    0.065771
    64  C   -0.073572
    65  H   -0.035141
    66  H    0.024574
    67  H   -0.075681
    68  H    0.027858
    69  H    0.021083
    70  H    0.048684
    71  H   -0.030098
    72  H    0.045980
    73  H    0.020788
    74  H   -0.017029
    75  H    0.039277
    76  H    0.048975
    77  H    0.050454
    78  H    0.001459
    79  H    0.040363
    80  H    0.020051
    81  H    0.009182
    82  H    0.036355
    83  H    0.045481
    84  H    0.002989
    85  H   -0.027229
    86  H    0.007581
    87  H    0.017968
    88  H    0.035499
    89  H    0.013640
    90  H    0.011124
    91  H    0.029921
    92  H    0.053230
    93  H    0.067499
    94  H    0.065534
    95  H    0.040139
    96  H    0.003211
    97  H    0.019840
    98  H    0.029352
    99  H   -0.000775
   100  H   -0.002233
   101  H    0.043564
   102  H    0.044994
   103  H    0.019755
   104  H    0.017108
   105  H   -0.002973
   106  H   -0.009575
   107  H   -0.002847
   108  H   -0.007520
   109  H    0.012840
   110  H   -0.009431
   111  H    0.023973
   112  H   -0.014302
   113  H   -0.006503
   114  H   -0.029429
   115  H   -0.022380
   116  H   -0.029381
   117  H    0.001233
   118  H   -0.033661
   119  H   -0.086420
   120  H    0.002458
   121  H   -0.074652
   122  H   -0.073543
   123  H   -0.010746
   124  H   -0.008719
   125  H   -0.000520
   126  H    0.014886
   127  H    0.000924
   128  H    0.004334
   129  H   -0.016182
   130  H   -0.014242
   131  H   -0.052506
   132  H   -0.003358
   133  H    0.020927
   134  H    0.025018
   135  H    0.041894
   136  H   -0.001424
   137  H    0.203627
   138  H    0.182010
 Sum of Mulliken charges =   0.00000

 Dipole moment (field-independent basis, Debye):
    X=              2.1660    Y=              3.3586    Z=              0.0594  Tot=              3.9969
 Quadrupole moment (field-independent basis, Debye-Ang):
   XX=           -359.4111   YY=           -378.4470   ZZ=           -399.1486
   XY=            -26.6274   XZ=              4.6103   YZ=              0.6583

 Normal termination of Gaussian 09 at Fri Aug  2 18:18:53 2019.
