 Gaussian 09, Revision D.01,
 Gaussian 09:  ES64L-G09RevD.01 24-Apr-2013

 --------------------------
 # td=(NStates=1) B3LYP/SVP
 --------------------------

 --
 TD
 --
 Symbolic Z-matrix:
 Charge =  0 Multiplicity = 1

                         Standard orientation:
 ---------------------------------------------------------------------
 Center     Atomic      Atomic             Coordinates (Angstroms)
 Number     Number       Type             X           Y           Z
 ---------------------------------------------------------------------
      1          6           0       -5.100676   -1.774569    0.428864
      2          6           0       -4.776587    2.811005    1.538533
      3          6           0       -9.356182    3.292430   -0.304564
      4          6           0       -9.848911   -1.485596   -1.025665
      5          7           0       -5.265062    0.524552    0.915704
      6          6           0       -4.535881   -0.632516    0.908478
      7          6           0       -3.149372   -0.454812    1.271048
      8          6           0       -3.151921    0.921142    1.794885
      9          6           0       -4.427042    1.446391    1.360812
     10          6           0       -2.861366    0.945403    3.335323
     11          6           0       -2.032562   -0.690383    0.220329
     12          6           0       -0.631257   -0.775364    0.763340
     13          6           0        0.374193   -1.152764   -0.454409
     14          8           0        0.092088   -1.537639   -1.472276
     15          8           0        1.690696   -0.898584   -0.028936
     16          7           0       -7.021931    2.654189    0.402412
     17          6           0       -6.033130    3.415142    1.102975
     18          6           0       -6.303084    4.798180    1.120002
     19          6           0       -7.605255    4.934887    0.600372
     20          6           0       -8.079471    3.580733    0.222526
     21          6           0       -5.420650    5.829484    1.671203
     22          6           0       -8.355832    6.250964    0.379944
     23          6           0       -9.117190    6.586190   -0.668141
     24          7           0       -9.176838    0.930657   -0.648957
     25          6           0       -9.946720    2.074580   -0.756698
     26          6           0      -11.296605    1.751611   -1.060559
     27          6           0      -11.415868    0.446835   -1.393587
     28          6           0      -10.144291   -0.077513   -1.087208
     29          6           0      -12.282839    2.918552   -1.262912
     30          6           0      -12.542426   -0.162825   -1.849734
     31          6           0      -12.501044   -0.224138   -3.419091
     32          7           0       -7.544136   -1.250960   -0.161337
     33          6           0       -8.517624   -1.934699   -0.557228
     34          6           0       -8.137735   -3.418396   -0.613461
     35          6           0       -6.875482   -3.343208   -0.217560
     36          6           0       -6.451651   -1.983797    0.095311
     37          6           0       -8.971485   -4.512156   -1.086621
     38          6           0       -5.739621   -4.171759    0.075035
     39          8           0       -5.645957   -5.404826   -0.174069
     40          6           0       -4.520288   -3.320388    0.417262
     41          6           0       -4.085376   -3.795726    1.840904
     42          8           0       -4.331895   -3.185391    2.861440
     43          8           0       -3.249962   -4.885029    1.703162
     44          6           0       -2.713767   -5.305271    2.931507
     45          6           0        2.649153   -1.167243   -1.084717
     46          6           0        3.988530   -0.971778   -0.439614
     47          6           0        5.041823   -0.183883   -0.965608
     48          6           0        4.868632    0.731956   -2.173238
     49          6           0        6.453231   -0.197603   -0.228497
     50          6           0        7.650558   -0.742546   -0.918598
     51          6           0        8.812536   -0.594121   -0.066149
     52          6           0       10.141725   -0.990308   -0.775716
     53          6           0       10.238715   -2.510185   -1.055931
     54          6           0       11.438997   -0.564082    0.050524
     55          6           0       12.786788   -0.631351   -0.856998
     56          6           0       13.940874   -0.115700    0.026189
     57          6           0       15.331984   -0.105407   -0.641982
     58          6           0       15.786418   -1.571801   -0.940069
     59          6           0       16.253940    0.725506    0.372222
     60          6           0       17.660296    1.016607   -0.365834
     61          6           0       18.569036    1.775381    0.604735
     62          6           0       20.051106    1.927764    0.125830
     63          6           0       20.293178    2.744995   -1.172236
     64          6           0       20.881736    2.481480    1.316487
     65          1           0       -3.939291    3.497516    1.852603
     66          1           0      -10.045918    4.291534   -0.513033
     67          1           0      -10.544432   -2.256422   -1.268709
     68          1           0       -2.880348   -1.141471    1.937214
     69          1           0       -2.274890    1.540807    1.214540
     70          1           0       -1.830880    0.659455    3.571895
     71          1           0       -3.282404    1.946799    3.768217
     72          1           0       -3.418587    0.201681    3.820593
     73          1           0       -2.210859   -1.706072   -0.380439
     74          1           0       -2.270224    0.076481   -0.664841
     75          1           0       -0.227731    0.259321    1.173204
     76          1           0       -0.568074   -1.581100    1.510781
     77          1           0       -4.568215    5.720290    1.052147
     78          1           0       -5.874255    6.818460    1.655291
     79          1           0       -5.124495    5.585282    2.536736
     80          1           0       -8.257416    6.867095    1.327932
     81          1           0       -9.277881    5.948230   -1.438247
     82          1           0       -9.711852    7.484067   -0.607221
     83          1           0      -12.227069    3.628885   -0.388343
     84          1           0      -11.989960    3.595797   -2.185613
     85          1           0      -13.370442    2.664608   -1.730496
     86          1           0      -12.811614   -1.202749   -1.344251
     87          1           0      -13.585834    0.357469   -1.467319
     88          1           0      -12.558269    0.813607   -3.610737
     89          1           0      -11.667862   -0.859791   -3.909285
     90          1           0      -13.406563   -0.784394   -3.752618
     91          1           0       -9.931638   -4.535130   -0.572500
     92          1           0       -9.025347   -4.373193   -2.038821
     93          1           0       -8.293899   -5.406711   -0.782913
     94          1           0       -3.832134   -3.623866   -0.331689
     95          1           0       -2.110255   -6.264318    2.776803
     96          1           0       -2.138059   -4.593150    3.706927
     97          1           0       -3.381226   -5.970580    3.449013
     98          1           0        2.243431   -2.179773   -1.553216
     99          1           0        2.508084   -0.484734   -1.976126
    100          1           0        4.268323   -1.442690    0.549522
    101          1           0        5.039222    1.868877   -1.813123
    102          1           0        5.517984    0.249963   -3.012749
    103          1           0        3.784731    0.827071   -2.729304
    104          1           0        6.747233    0.802995    0.088215
    105          1           0        6.346698   -0.808352    0.909798
    106          1           0        7.622103   -1.736842   -1.275891
    107          1           0        7.845465   -0.201185   -2.068498
    108          1           0        8.696239    0.514945    0.062160
    109          1           0        8.636344   -1.151220    0.910163
    110          1           0       10.136449   -0.431633   -1.790208
    111          1           0        9.323090   -2.941218   -1.449033
    112          1           0       11.109612   -2.604859   -1.516421
    113          1           0       10.307880   -2.907536    0.035827
    114          1           0       11.357756    0.473963    0.596772
    115          1           0       11.425251   -1.250707    0.978089
    116          1           0       13.007872   -1.663174   -1.144557
    117          1           0       12.436897    0.333887   -1.622061
    118          1           0       13.714030    0.919048    0.316617
    119          1           0       13.974399   -0.650171    1.009828
    120          1           0       15.362438    0.513603   -1.469499
    121          1           0       15.171118   -1.996789   -1.642393
    122          1           0       16.857216   -1.640495   -1.316922
    123          1           0       15.592327   -2.232831   -0.052191
    124          1           0       15.837068    1.738424    0.994464
    125          1           0       16.439076   -0.049320    1.269774
    126          1           0       17.951762   -0.067959   -0.870582
    127          1           0       17.477653    1.672872   -1.275391
    128          1           0       18.020216    2.599049    0.753761
    129          1           0       18.375247    1.303793    1.710800
    130          1           0       20.501631    0.854146   -0.065365
    131          1           0       19.937792    3.796547   -1.164998
    132          1           0       21.256814    2.789102   -1.491656
    133          1           0       19.787242    2.329022   -2.113070
    134          1           0       20.720086    1.907645    2.217523
    135          1           0       22.018063    2.595063    1.216145
    136          1           0       20.835515    3.566281    1.590578
    137          1           0       -7.015011    1.638945    0.376788
    138          1           0       -7.626956   -0.301512   -0.001803
 ---------------------------------------------------------------------

 SCF Done:  E(RB3LYP) =  -2733.00673152     A.U. after   17 cycles

 Excitation energies and oscillator strengths:

 Excited State   1:      Singlet-A      2.0181 eV  614.36 nm  f=0.1409  <S**2>=0.000
     235 -> 238       -0.32564
     236 -> 237        0.61603
 This state for optimization and/or second-order correction.
 Total Energy, E(TD-HF/TD-KS) =  -2732.93256773
 Copying the excited state density for this state as the 1-particle RhoCI density.

 The electronic state is 1-A.
 Alpha  occ. eigenvalues --  -19.19248 -19.16467 -19.14557 -19.13868 -19.11371
 Alpha  occ. eigenvalues --  -14.37740 -14.36508 -14.32339 -14.29712 -10.32871
 Alpha  occ. eigenvalues --  -10.31581 -10.27043 -10.25199 -10.25116 -10.24095
 Alpha  occ. eigenvalues --  -10.23918 -10.23292 -10.23244 -10.22212 -10.22191
 Alpha  occ. eigenvalues --  -10.22053 -10.22011 -10.21924 -10.21686 -10.21487
 Alpha  occ. eigenvalues --  -10.21208 -10.21129 -10.21128 -10.21108 -10.20839
 Alpha  occ. eigenvalues --  -10.20800 -10.20771 -10.20757 -10.20657 -10.20619
 Alpha  occ. eigenvalues --  -10.20591 -10.20586 -10.20537 -10.20243 -10.20199
 Alpha  occ. eigenvalues --  -10.20133 -10.19801 -10.19732 -10.19694 -10.19575
 Alpha  occ. eigenvalues --  -10.19573 -10.19190 -10.19078 -10.19049 -10.18970
 Alpha  occ. eigenvalues --  -10.18730 -10.18527 -10.18381 -10.18368 -10.18268
 Alpha  occ. eigenvalues --  -10.18177 -10.18146 -10.18144 -10.18100 -10.17979
 Alpha  occ. eigenvalues --  -10.17822 -10.17780 -10.17509 -10.17188  -1.11950
 Alpha  occ. eigenvalues --   -1.09835  -1.02563  -1.02176  -1.01905  -0.99766
 Alpha  occ. eigenvalues --   -0.96790  -0.95320  -0.91774  -0.84714  -0.82506
 Alpha  occ. eigenvalues --   -0.82210  -0.81967  -0.81679  -0.80987  -0.80666
 Alpha  occ. eigenvalues --   -0.79454  -0.79256  -0.78906  -0.78021  -0.77308
 Alpha  occ. eigenvalues --   -0.76758  -0.75946  -0.75300  -0.74133  -0.73947
 Alpha  occ. eigenvalues --   -0.73058  -0.72463  -0.72132  -0.72051  -0.71527
 Alpha  occ. eigenvalues --   -0.70752  -0.69898  -0.68879  -0.67780  -0.67172
 Alpha  occ. eigenvalues --   -0.67028  -0.66929  -0.65551  -0.65225  -0.64258
 Alpha  occ. eigenvalues --   -0.64007  -0.63138  -0.62510  -0.62057  -0.61152
 Alpha  occ. eigenvalues --   -0.60386  -0.59526  -0.57959  -0.57659  -0.57215
 Alpha  occ. eigenvalues --   -0.56790  -0.56516  -0.56433  -0.55471  -0.55337
 Alpha  occ. eigenvalues --   -0.55256  -0.55171  -0.54681  -0.53821  -0.53032
 Alpha  occ. eigenvalues --   -0.51860  -0.51606  -0.51355  -0.50609  -0.50032
 Alpha  occ. eigenvalues --   -0.49734  -0.49673  -0.49255  -0.48673  -0.48433
 Alpha  occ. eigenvalues --   -0.48174  -0.47912  -0.47663  -0.47430  -0.47141
 Alpha  occ. eigenvalues --   -0.47067  -0.46826  -0.46506  -0.45719  -0.45527
 Alpha  occ. eigenvalues --   -0.45438  -0.45344  -0.45060  -0.44926  -0.44830
 Alpha  occ. eigenvalues --   -0.44286  -0.44117  -0.43849  -0.43612  -0.43473
 Alpha  occ. eigenvalues --   -0.43310  -0.43187  -0.43121  -0.42927  -0.42879
 Alpha  occ. eigenvalues --   -0.42580  -0.42237  -0.41932  -0.41781  -0.41563
 Alpha  occ. eigenvalues --   -0.41437  -0.41288  -0.41006  -0.40901  -0.40835
 Alpha  occ. eigenvalues --   -0.40400  -0.39885  -0.39675  -0.39446  -0.39203
 Alpha  occ. eigenvalues --   -0.39145  -0.38814  -0.38774  -0.38217  -0.38093
 Alpha  occ. eigenvalues --   -0.37832  -0.37576  -0.37555  -0.37353  -0.37246
 Alpha  occ. eigenvalues --   -0.37069  -0.37012  -0.36937  -0.36760  -0.36491
 Alpha  occ. eigenvalues --   -0.36380  -0.36199  -0.36040  -0.35743  -0.35417
 Alpha  occ. eigenvalues --   -0.35275  -0.34965  -0.34841  -0.34694  -0.34641
 Alpha  occ. eigenvalues --   -0.34504  -0.34204  -0.34074  -0.33898  -0.33790
 Alpha  occ. eigenvalues --   -0.33185  -0.33025  -0.32592  -0.32305  -0.32120
 Alpha  occ. eigenvalues --   -0.31981  -0.31748  -0.31476  -0.31392  -0.31014
 Alpha  occ. eigenvalues --   -0.30997  -0.30907  -0.30622  -0.30493  -0.29908
 Alpha  occ. eigenvalues --   -0.29727  -0.29615  -0.29416  -0.28822  -0.28562
 Alpha  occ. eigenvalues --   -0.27900  -0.27265  -0.27044  -0.26565  -0.26181
 Alpha  occ. eigenvalues --   -0.24575  -0.24375  -0.23911  -0.22148  -0.19342
 Alpha  occ. eigenvalues --   -0.18337
 Alpha virt. eigenvalues --   -0.09726  -0.07764  -0.04893  -0.01802  -0.01319
 Alpha virt. eigenvalues --   -0.00856   0.00149   0.01320   0.02254   0.03248
 Alpha virt. eigenvalues --    0.03776   0.03984   0.04042   0.04287   0.04781

 Mulliken charges:
               1
     1  C   -0.002437
     2  C   -0.113245
     3  C   -0.122200
     4  C   -0.062112
     5  N   -0.176882
     6  C   -0.067632
     7  C    0.156143
     8  C   -0.069270
     9  C   -0.004048
    10  C    0.089216
    11  C   -0.074315
    12  C    0.014563
    13  C    0.154352
    14  O   -0.126392
    15  O   -0.356452
    16  N   -0.104151
    17  C    0.111406
    18  C   -0.185846
    19  C   -0.036273
    20  C    0.133283
    21  C    0.285238
    22  C   -0.064284
    23  C    0.042877
    24  N   -0.322740
    25  C    0.065159
    26  C   -0.095926
    27  C    0.019610
    28  C    0.104851
    29  C   -0.009767
    30  C   -0.100458
    31  C    0.033781
    32  N    0.195424
    33  C   -0.074848
    34  C   -0.226243
    35  C    0.071003
    36  C    0.030149
    37  C    0.186089
    38  C    0.012822
    39  O   -0.232743
    40  C    0.010018
    41  C    0.231353
    42  O   -0.215849
    43  O   -0.282742
    44  C    0.143418
    45  C    0.219416
    46  C   -0.046934
    47  C   -0.117519
    48  C   -0.039910
    49  C    0.029015
    50  C   -0.012185
    51  C    0.034506
    52  C   -0.093761
    53  C    0.100883
    54  C   -0.056181
    55  C    0.018697
    56  C    0.001486
    57  C    0.003165
    58  C    0.057864
    59  C   -0.112489
    60  C   -0.036144
    61  C    0.074385
    62  C   -0.041295
    63  C    0.045661
    64  C    0.006683
    65  H   -0.013076
    66  H    0.017335
    67  H   -0.034097
    68  H   -0.077259
    69  H    0.020122
    70  H    0.015264
    71  H    0.021983
    72  H    0.004691
    73  H    0.032226
    74  H    0.023160
    75  H    0.056258
    76  H    0.037640
    77  H    0.006094
    78  H    0.011869
    79  H   -0.040764
    80  H    0.028178
    81  H    0.006029
    82  H    0.022686
    83  H    0.040621
    84  H    0.027699
    85  H    0.028216
    86  H    0.008721
    87  H    0.025309
    88  H    0.012911
    89  H    0.037797
    90  H    0.007354
    91  H    0.029679
    92  H   -0.013292
    93  H    0.057461
    94  H    0.046897
    95  H    0.016430
    96  H    0.064066
    97  H    0.010306
    98  H    0.042423
    99  H    0.007587
   100  H    0.004663
   101  H    0.054786
   102  H    0.054613
   103  H    0.037477
   104  H   -0.000644
   105  H    0.016963
   106  H   -0.028974
   107  H    0.003771
   108  H   -0.008012
   109  H    0.005691
   110  H   -0.006713
   111  H    0.016061
   112  H   -0.025578
   113  H   -0.000345
   114  H    0.007027
   115  H   -0.004970
   116  H    0.023214
   117  H    0.036989
   118  H   -0.016792
   119  H   -0.006009
   120  H   -0.034234
   121  H   -0.011286
   122  H    0.021520
   123  H    0.007697
   124  H    0.027525
   125  H    0.009701
   126  H    0.015078
   127  H    0.009449
   128  H   -0.045547
   129  H    0.003243
   130  H    0.016135
   131  H    0.005038
   132  H   -0.016909
   133  H    0.005904
   134  H    0.006197
   135  H   -0.006113
   136  H   -0.003300
   137  H    0.143566
   138  H    0.095349
 Sum of Mulliken charges =   0.00000

 Dipole moment (field-independent basis, Debye):
    X=              2.2916    Y=              3.7538    Z=              0.5275  Tot=              4.4295
 Quadrupole moment (field-independent basis, Debye-Ang):
   XX=           -361.2805   YY=           -382.5858   ZZ=           -391.8010
   XY=            -18.2046   XZ=              2.3801   YZ=             -2.3621

 Normal termination of Gaussian 09 at Wed Jul 31 15:32:30 2019.
