 Gaussian 09, Revision D.01,
 Gaussian 09:  ES64L-G09RevD.01 24-Apr-2013

 --------------------------
 # td=(NStates=1) B3LYP/SVP
 --------------------------

 --
 TD
 --
 Symbolic Z-matrix:
 Charge =  0 Multiplicity = 1

                         Standard orientation:
 ---------------------------------------------------------------------
 Center     Atomic      Atomic             Coordinates (Angstroms)
 Number     Number       Type             X           Y           Z
 ---------------------------------------------------------------------
      1          6           0       -5.124345   -2.101482    0.570166
      2          6           0       -4.706560    2.633572    1.667244
      3          6           0       -9.180532    3.368546   -0.212239
      4          6           0       -9.800438   -1.334614   -1.139709
      5          7           0       -5.137253    0.398046    0.857977
      6          6           0       -4.514635   -0.832994    0.907958
      7          6           0       -3.129141   -0.693560    1.378284
      8          6           0       -3.099722    0.807586    2.051632
      9          6           0       -4.435028    1.384896    1.383472
     10          6           0       -3.070088    0.970513    3.517551
     11          6           0       -2.096921   -0.857181    0.222917
     12          6           0       -0.618238   -0.703387    0.718013
     13          6           0        0.357410   -0.928405   -0.385997
     14          8           0        0.181826   -1.586089   -1.445789
     15          8           0        1.607340   -0.569251   -0.010041
     16          7           0       -6.925833    2.703305    0.462428
     17          6           0       -5.877565    3.298408    1.225535
     18          6           0       -6.250554    4.665006    1.304852
     19          6           0       -7.425563    4.921632    0.691680
     20          6           0       -7.926043    3.624892    0.216055
     21          6           0       -5.337250    5.715414    1.980503
     22          6           0       -8.079926    6.216674    0.604270
     23          6           0       -8.885931    6.605659   -0.427175
     24          7           0       -9.186520    0.981469   -0.719473
     25          6           0       -9.760186    2.192015   -0.765379
     26          6           0      -11.198276    1.893310   -1.263695
     27          6           0      -11.340879    0.461095   -1.460501
     28          6           0      -10.035138    0.015706   -1.086800
     29          6           0      -12.074865    3.034704   -1.528145
     30          6           0      -12.506221   -0.068574   -2.099386
     31          6           0      -12.304123   -0.408944   -3.601543
     32          7           0       -7.375679   -1.279229   -0.217150
     33          6           0       -8.538436   -1.948590   -0.779392
     34          6           0       -8.084480   -3.437212   -0.844959
     35          6           0       -6.734541   -3.386794   -0.311914
     36          6           0       -6.477158   -2.069353    0.081667
     37          6           0       -8.896911   -4.599074   -1.376087
     38          6           0       -5.741510   -4.399985   -0.052838
     39          8           0       -5.857884   -5.648757   -0.032225
     40          6           0       -4.579158   -3.485028    0.584598
     41          6           0       -4.103472   -3.872679    1.964427
     42          8           0       -4.397713   -3.363138    2.909832
     43          8           0       -3.143094   -4.903129    1.761384
     44          6           0       -2.727047   -5.359404    3.031628
     45          6           0        2.692326   -1.038679   -1.017195
     46          6           0        3.939056   -0.506483   -0.329717
     47          6           0        4.901710    0.298545   -0.981756
     48          6           0        4.813370    0.756475   -2.516989
     49          6           0        6.218981    0.567019   -0.369950
     50          6           0        7.422468   -0.259472   -0.968085
     51          6           0        8.748839    0.145187   -0.263864
     52          6           0       10.054508   -0.577468   -0.883351
     53          6           0        9.808775   -2.117968   -1.092898
     54          6           0       11.262453   -0.124598    0.034099
     55          6           0       12.531663   -0.633201   -0.589839
     56          6           0       13.794470   -0.124591    0.097260
     57          6           0       15.210262   -0.256090   -0.511411
     58          6           0       15.556023   -1.736815   -0.491974
     59          6           0       16.242216    0.489966    0.350161
     60          6           0       17.650554    0.602910   -0.216972
     61          6           0       18.661022    1.495428    0.541444
     62          6           0       20.089301    1.520539    0.029235
     63          6           0       20.268698    2.025185   -1.369257
     64          6           0       20.905865    2.292559    0.973736
     65          1           0       -4.044517    3.204924    2.201775
     66          1           0       -9.799362    4.254115   -0.133128
     67          1           0      -10.615444   -2.037513   -1.776839
     68          1           0       -2.792925   -1.545444    2.334134
     69          1           0       -2.081380    1.369730    1.717710
     70          1           0       -2.190490    0.455052    3.992688
     71          1           0       -2.986786    2.037913    3.703756
     72          1           0       -3.788999    0.221639    4.119713
     73          1           0       -2.096648   -1.881020   -0.136392
     74          1           0       -2.550601   -0.389312   -0.599346
     75          1           0       -0.329950    0.274173    1.134743
     76          1           0       -0.540230   -1.306058    1.645318
     77          1           0       -4.318155    5.973564    1.332074
     78          1           0       -5.940315    6.672432    2.134238
     79          1           0       -4.863951    5.367640    2.886832
     80          1           0       -7.955028    6.956601    1.364853
     81          1           0       -9.242057    5.921657   -1.300513
     82          1           0       -9.386013    7.518929   -0.582793
     83          1           0      -12.407684    3.490928   -0.598250
     84          1           0      -11.651717    3.790967   -2.188489
     85          1           0      -13.059079    2.590393   -2.102782
     86          1           0      -12.790381   -0.979065   -1.697744
     87          1           0      -13.571792    0.551090   -1.958944
     88          1           0      -12.282843    0.615465   -4.139893
     89          1           0      -11.351001   -0.941455   -3.565465
     90          1           0      -13.282953   -0.743075   -4.116883
     91          1           0       -9.732444   -4.865332   -0.612975
     92          1           0       -9.473215   -4.478159   -2.308450
     93          1           0       -8.265952   -5.528226   -1.116672
     94          1           0       -3.694653   -3.756021   -0.248984
     95          1           0       -2.066693   -6.359189    3.034533
     96          1           0       -2.203315   -4.589697    3.477635
     97          1           0       -3.438450   -5.943187    3.572560
     98          1           0        2.461944   -2.115085   -1.073267
     99          1           0        2.292626   -0.779085   -2.033081
    100          1           0        4.224535   -0.706036    0.726616
    101          1           0        5.052331    1.820174   -2.582712
    102          1           0        5.326002   -0.008337   -3.354898
    103          1           0        3.752997    0.772752   -3.001898
    104          1           0        6.497199    1.771203   -0.629240
    105          1           0        6.196304    0.359400    0.616162
    106          1           0        7.212427   -1.253111   -1.087840
    107          1           0        7.640726    0.255485   -2.126838
    108          1           0        9.052142    1.265236   -0.088402
    109          1           0        8.562816   -0.353457    0.930372
    110          1           0       10.220385   -0.164479   -2.081445
    111          1           0        8.803675   -2.089453   -1.767123
    112          1           0       10.674606   -2.580881   -1.605261
    113          1           0        9.770068   -2.655249   -0.079387
    114          1           0       11.152882    1.043447    0.291603
    115          1           0       11.234839   -0.693601    1.003320
    116          1           0       12.531868   -1.698459   -0.550318
    117          1           0       12.631254   -0.199995   -1.675375
    118          1           0       13.457890    0.890193    0.116236
    119          1           0       13.725181   -0.417514    1.186538
    120          1           0       15.197824    0.260620   -1.464210
    121          1           0       14.956146   -2.350230   -0.999353
    122          1           0       16.475656   -1.993314   -1.074265
    123          1           0       15.573813   -1.969933    0.565545
    124          1           0       15.848134    1.434752    0.415811
    125          1           0       16.048765    0.029971    1.249363
    126          1           0       17.909223   -0.515297   -0.400999
    127          1           0       17.695727    0.851414   -1.249344
    128          1           0       18.302698    2.506857    0.715868
    129          1           0       18.677616    1.154834    1.559012
    130          1           0       20.333996    0.367305   -0.090922
    131          1           0       19.994315    3.194319   -1.375735
    132          1           0       21.301102    1.728665   -1.737894
    133          1           0       19.468451    1.603483   -2.151246
    134          1           0       20.785757    2.071227    1.987873
    135          1           0       21.936644    2.493880    0.632155
    136          1           0       20.594313    3.429862    1.299671
    137          1           0       -6.856519    1.674404    0.066196
    138          1           0       -7.484664   -0.267557    0.162708
 ---------------------------------------------------------------------

 SCF Done:  E(RB3LYP) =  -2732.97495035     A.U. after   17 cycles

 Excitation energies and oscillator strengths:

 Excited State   1:      Singlet-A      2.0332 eV  609.80 nm  f=0.1514  <S**2>=0.000
     235 -> 237       -0.11374
     235 -> 238       -0.29419
     236 -> 237        0.62452
 This state for optimization and/or second-order correction.
 Total Energy, E(TD-HF/TD-KS) =  -2732.90023161
 Copying the excited state density for this state as the 1-particle RhoCI density.

 The electronic state is 1-A.
 Alpha  occ. eigenvalues --  -19.16861 -19.16511 -19.14348 -19.12466 -19.11750
 Alpha  occ. eigenvalues --  -14.38623 -14.37438 -14.32407 -14.29661 -10.31237
 Alpha  occ. eigenvalues --  -10.31145 -10.28254 -10.25564 -10.24950 -10.24401
 Alpha  occ. eigenvalues --  -10.23851 -10.23705 -10.23335 -10.23307 -10.23298
 Alpha  occ. eigenvalues --  -10.22520 -10.22381 -10.22009 -10.21853 -10.21740
 Alpha  occ. eigenvalues --  -10.21638 -10.21595 -10.21572 -10.21524 -10.21523
 Alpha  occ. eigenvalues --  -10.21156 -10.21096 -10.20918 -10.20887 -10.20866
 Alpha  occ. eigenvalues --  -10.20860 -10.20793 -10.20724 -10.20717 -10.20630
 Alpha  occ. eigenvalues --  -10.20503 -10.20078 -10.20066 -10.20010 -10.19725
 Alpha  occ. eigenvalues --  -10.19525 -10.19466 -10.19435 -10.19382 -10.19202
 Alpha  occ. eigenvalues --  -10.19135 -10.19109 -10.19059 -10.19056 -10.18598
 Alpha  occ. eigenvalues --  -10.18371 -10.18319 -10.18286 -10.18041 -10.17972
 Alpha  occ. eigenvalues --  -10.17516 -10.17331 -10.16579 -10.16107  -1.12300
 Alpha  occ. eigenvalues --   -1.06842  -1.02972  -1.00841  -1.00042  -0.97142
 Alpha  occ. eigenvalues --   -0.97105  -0.94200  -0.93637  -0.84953  -0.82434
 Alpha  occ. eigenvalues --   -0.82272  -0.81807  -0.81612  -0.81130  -0.80473
 Alpha  occ. eigenvalues --   -0.80054  -0.79470  -0.79405  -0.78964  -0.77252
 Alpha  occ. eigenvalues --   -0.76804  -0.75980  -0.75343  -0.74592  -0.74273
 Alpha  occ. eigenvalues --   -0.73334  -0.73049  -0.72577  -0.71065  -0.70479
 Alpha  occ. eigenvalues --   -0.69667  -0.69279  -0.68117  -0.67980  -0.67344
 Alpha  occ. eigenvalues --   -0.66994  -0.66863  -0.66626  -0.65960  -0.64431
 Alpha  occ. eigenvalues --   -0.63623  -0.63058  -0.62582  -0.62022  -0.61537
 Alpha  occ. eigenvalues --   -0.60965  -0.59486  -0.58934  -0.57972  -0.56661
 Alpha  occ. eigenvalues --   -0.56528  -0.55837  -0.55517  -0.55397  -0.54980
 Alpha  occ. eigenvalues --   -0.54717  -0.54631  -0.54532  -0.53538  -0.53071
 Alpha  occ. eigenvalues --   -0.52637  -0.52423  -0.51394  -0.51026  -0.50407
 Alpha  occ. eigenvalues --   -0.49852  -0.49451  -0.49345  -0.48938  -0.48705
 Alpha  occ. eigenvalues --   -0.48270  -0.47969  -0.47515  -0.47020  -0.46917
 Alpha  occ. eigenvalues --   -0.46780  -0.46513  -0.46280  -0.46186  -0.45882
 Alpha  occ. eigenvalues --   -0.45736  -0.45475  -0.45276  -0.45125  -0.45008
 Alpha  occ. eigenvalues --   -0.44824  -0.44362  -0.44213  -0.44058  -0.43778
 Alpha  occ. eigenvalues --   -0.43590  -0.43340  -0.43090  -0.42982  -0.42784
 Alpha  occ. eigenvalues --   -0.42486  -0.42009  -0.41765  -0.41707  -0.41525
 Alpha  occ. eigenvalues --   -0.41347  -0.41187  -0.41095  -0.40390  -0.40071
 Alpha  occ. eigenvalues --   -0.40020  -0.39923  -0.39851  -0.39568  -0.39345
 Alpha  occ. eigenvalues --   -0.39132  -0.38909  -0.38600  -0.38472  -0.38464
 Alpha  occ. eigenvalues --   -0.38237  -0.38046  -0.37830  -0.37558  -0.37430
 Alpha  occ. eigenvalues --   -0.37302  -0.36942  -0.36779  -0.36662  -0.36376
 Alpha  occ. eigenvalues --   -0.36182  -0.36102  -0.35968  -0.35565  -0.35215
 Alpha  occ. eigenvalues --   -0.35138  -0.35092  -0.34938  -0.34732  -0.34407
 Alpha  occ. eigenvalues --   -0.34212  -0.34091  -0.33959  -0.33622  -0.33299
 Alpha  occ. eigenvalues --   -0.33185  -0.32926  -0.32475  -0.32081  -0.32014
 Alpha  occ. eigenvalues --   -0.31999  -0.31746  -0.31639  -0.31458  -0.31165
 Alpha  occ. eigenvalues --   -0.30817  -0.30487  -0.30144  -0.29941  -0.29650
 Alpha  occ. eigenvalues --   -0.29619  -0.29352  -0.29342  -0.28485  -0.28029
 Alpha  occ. eigenvalues --   -0.27366  -0.26960  -0.26231  -0.25754  -0.25135
 Alpha  occ. eigenvalues --   -0.24805  -0.24637  -0.24424  -0.21714  -0.20212
 Alpha  occ. eigenvalues --   -0.19174
 Alpha virt. eigenvalues --   -0.10522  -0.08293  -0.04776  -0.02542  -0.02262
 Alpha virt. eigenvalues --   -0.01176  -0.00467   0.00899   0.01578   0.02638
 Alpha virt. eigenvalues --    0.03098   0.03521   0.04102   0.04299   0.04615

 Mulliken charges:
               1
     1  C   -0.039276
     2  C   -0.040251
     3  C   -0.055647
     4  C   -0.119881
     5  N   -0.182614
     6  C   -0.002239
     7  C   -0.158227
     8  C   -0.115765
     9  C    0.090589
    10  C    0.058692
    11  C    0.104344
    12  C    0.044982
    13  C    0.217408
    14  O   -0.298661
    15  O   -0.345310
    16  N   -0.164913
    17  C    0.121250
    18  C   -0.114837
    19  C    0.077920
    20  C    0.104423
    21  C    0.044614
    22  C   -0.043227
    23  C   -0.064095
    24  N   -0.195104
    25  C    0.032801
    26  C   -0.147019
    27  C   -0.058750
    28  C    0.056028
    29  C    0.063056
    30  C    0.024045
    31  C   -0.001492
    32  N    0.035511
    33  C    0.039892
    34  C   -0.098003
    35  C   -0.101439
    36  C    0.073156
    37  C    0.058811
    38  C    0.109893
    39  O   -0.208544
    40  C   -0.130418
    41  C    0.211002
    42  O   -0.093287
    43  O   -0.347590
    44  C    0.194832
    45  C    0.240012
    46  C   -0.018553
    47  C   -0.132579
    48  C   -0.019914
    49  C    0.094251
    50  C   -0.012972
    51  C   -0.038134
    52  C   -0.142998
    53  C   -0.020881
    54  C   -0.006048
    55  C    0.047886
    56  C   -0.005920
    57  C   -0.044569
    58  C    0.111481
    59  C    0.107832
    60  C    0.067158
    61  C    0.063831
    62  C   -0.067572
    63  C   -0.043657
    64  C    0.056525
    65  H   -0.070391
    66  H   -0.023850
    67  H    0.051422
    68  H    0.036081
    69  H    0.014716
    70  H   -0.000518
    71  H    0.019120
    72  H    0.032287
    73  H    0.009601
    74  H   -0.007836
    75  H    0.020796
    76  H    0.037037
    77  H    0.041182
    78  H    0.029369
    79  H    0.022107
    80  H    0.002399
    81  H    0.044538
    82  H    0.014574
    83  H    0.024415
    84  H    0.024142
    85  H    0.013374
    86  H   -0.026025
    87  H    0.019452
    88  H    0.010118
    89  H    0.022434
    90  H    0.023534
    91  H    0.028718
    92  H    0.043843
    93  H    0.054269
    94  H    0.104227
    95  H    0.018788
    96  H    0.008723
    97  H    0.016433
    98  H    0.026891
    99  H    0.045845
   100  H    0.009700
   101  H    0.024506
   102  H    0.060012
   103  H    0.015935
   104  H    0.023198
   105  H   -0.034893
   106  H    0.006992
   107  H    0.018341
   108  H    0.031945
   109  H    0.000342
   110  H    0.015971
   111  H    0.048350
   112  H    0.025225
   113  H    0.021863
   114  H    0.021517
   115  H    0.000530
   116  H   -0.007971
   117  H   -0.001278
   118  H   -0.032921
   119  H   -0.021403
   120  H   -0.027845
   121  H   -0.038559
   122  H    0.001740
   123  H   -0.002734
   124  H   -0.047615
   125  H   -0.041744
   126  H   -0.019694
   127  H   -0.037805
   128  H   -0.022747
   129  H   -0.022827
   130  H    0.007501
   131  H    0.017415
   132  H    0.030829
   133  H    0.021320
   134  H   -0.019871
   135  H    0.009274
   136  H   -0.008118
   137  H    0.189070
   138  H    0.182793
 Sum of Mulliken charges =   0.00000

 Dipole moment (field-independent basis, Debye):
    X=              1.6900    Y=              4.8272    Z=              1.3332  Tot=              5.2854
 Quadrupole moment (field-independent basis, Debye-Ang):
   XX=           -359.9229   YY=           -386.9665   ZZ=           -390.6984
   XY=            -29.9316   XZ=              9.6037   YZ=              0.2472

 Normal termination of Gaussian 09 at Mon Aug  5 08:09:58 2019.
