 Gaussian 09, Revision D.01,
 Gaussian 09:  ES64L-G09RevD.01 24-Apr-2013

 --------------------------
 # td=(NStates=1) B3LYP/SVP
 --------------------------

 --
 TD
 --
 Symbolic Z-matrix:
 Charge =  0 Multiplicity = 1

                         Standard orientation:
 ---------------------------------------------------------------------
 Center     Atomic      Atomic             Coordinates (Angstroms)
 Number     Number       Type             X           Y           Z
 ---------------------------------------------------------------------
      1          6           0       -5.064675   -1.968159    0.443905
      2          6           0       -4.776104    2.753174    1.299582
      3          6           0       -9.430570    3.320147   -0.176438
      4          6           0       -9.912918   -1.475398   -0.755663
      5          7           0       -5.240871    0.496156    0.800596
      6          6           0       -4.534045   -0.700573    0.866879
      7          6           0       -3.092969   -0.514036    1.292466
      8          6           0       -3.016968    0.929144    1.804178
      9          6           0       -4.463590    1.498703    1.339268
     10          6           0       -2.894664    0.909785    3.386008
     11          6           0       -2.135648   -0.773321    0.040211
     12          6           0       -0.650587   -0.688205    0.428661
     13          6           0        0.371936   -1.104045   -0.636953
     14          8           0        0.137976   -1.686733   -1.689785
     15          8           0        1.611428   -0.637348   -0.373521
     16          7           0       -7.034385    2.745260    0.317168
     17          6           0       -6.029597    3.375660    0.993886
     18          6           0       -6.324896    4.756302    1.022802
     19          6           0       -7.599893    4.819645    0.514586
     20          6           0       -8.107285    3.562667    0.085043
     21          6           0       -5.350473    5.755973    1.577442
     22          6           0       -8.225064    6.139683    0.306049
     23          6           0       -9.079429    6.494857   -0.713580
     24          7           0       -9.252666    0.831461   -0.395481
     25          6           0       -9.999314    1.941468   -0.398054
     26          6           0      -11.414511    1.825528   -0.781882
     27          6           0      -11.605333    0.458236   -0.842075
     28          6           0      -10.243751   -0.137502   -0.706472
     29          6           0      -12.399803    2.890253   -0.884832
     30          6           0      -12.789212   -0.299484   -1.411825
     31          6           0      -12.700230   -0.346002   -3.081705
     32          7           0       -7.487042   -1.218771   -0.278124
     33          6           0       -8.597191   -2.035261   -0.602203
     34          6           0       -8.093063   -3.329630   -0.646298
     35          6           0       -6.748788   -3.301902   -0.293511
     36          6           0       -6.491721   -1.995034    0.043683
     37          6           0       -8.942490   -4.641485   -0.953768
     38          6           0       -5.730886   -4.176124    0.034948
     39          8           0       -5.627851   -5.404006   -0.024198
     40          6           0       -4.473156   -3.327540    0.417329
     41          6           0       -3.850102   -3.814178    1.767736
     42          8           0       -4.177569   -3.488041    2.926726
     43          8           0       -2.884746   -4.757650    1.446536
     44          6           0       -2.462334   -5.480612    2.659500
     45          6           0        2.709917   -1.052089   -1.268302
     46          6           0        3.938978   -0.483928   -0.723412
     47          6           0        4.945399    0.088813   -1.451914
     48          6           0        4.813208    0.437501   -2.881229
     49          6           0        6.171056    0.489731   -0.734250
     50          6           0        7.484730   -0.293698   -1.118641
     51          6           0        8.815357    0.245500   -0.237654
     52          6           0       10.108137   -0.512446   -0.761162
     53          6           0        9.997431   -2.228950   -0.616272
     54          6           0       11.308350   -0.000030   -0.151266
     55          6           0       12.645838   -0.522321   -0.659673
     56          6           0       13.822227    0.250034    0.095156
     57          6           0       15.274114   -0.204998   -0.181985
     58          6           0       15.522210   -1.755320   -0.109892
     59          6           0       16.369697    0.645349    0.531445
     60          6           0       17.723574    0.605888    0.001301
     61          6           0       18.783562    1.655914    0.603829
     62          6           0       20.292612    1.513683    0.323763
     63          6           0       20.558903    1.655500   -1.219158
     64          6           0       21.164059    2.496408    1.161213
     65          1           0       -4.295853    3.237044    1.981725
     66          1           0       -9.979583    4.201223   -0.192301
     67          1           0      -10.796317   -2.296304   -0.962243
     68          1           0       -2.621980   -1.094414    2.105330
     69          1           0       -2.230483    1.415970    1.218530
     70          1           0       -1.736866    0.628530    3.495167
     71          1           0       -3.108009    1.870428    3.853208
     72          1           0       -3.449396    0.023656    3.856374
     73          1           0       -2.441583   -1.871085   -0.422358
     74          1           0       -2.078054   -0.193111   -0.956268
     75          1           0       -0.252035    0.272364    0.637831
     76          1           0       -0.444998   -1.127301    1.351075
     77          1           0       -4.529768    5.799015    0.778559
     78          1           0       -5.866152    6.636140    1.494105
     79          1           0       -5.140942    5.672537    2.610562
     80          1           0       -8.052169    6.876341    1.154683
     81          1           0       -9.410951    5.720370   -1.646320
     82          1           0       -9.404716    7.576160   -0.853946
     83          1           0      -12.645832    3.339490    0.079575
     84          1           0      -12.031797    3.718644   -1.587447
     85          1           0      -13.292556    2.446781   -1.372461
     86          1           0      -12.616235   -1.481143   -1.093874
     87          1           0      -13.583114    0.264144   -1.160710
     88          1           0      -12.751503    0.547999   -3.672039
     89          1           0      -11.761031   -0.919377   -3.080979
     90          1           0      -13.549253   -0.895748   -3.573012
     91          1           0      -10.022660   -4.663079   -0.650483
     92          1           0       -9.030472   -4.763567   -2.131968
     93          1           0       -8.519650   -5.503268   -0.804106
     94          1           0       -3.736853   -3.326564   -0.365852
     95          1           0       -1.701968   -6.154472    2.049091
     96          1           0       -1.652331   -4.978048    3.260219
     97          1           0       -3.177811   -6.142379    3.216106
     98          1           0        2.549949   -2.152118   -1.437090
     99          1           0        2.392539   -0.571882   -2.164291
    100          1           0        3.999922   -0.700861    0.482590
    101          1           0        5.323548    1.411889   -3.250735
    102          1           0        5.179280   -0.354989   -3.521819
    103          1           0        3.722913    0.663249   -3.046637
    104          1           0        6.521449    1.459353   -0.793874
    105          1           0        6.035929    0.291897    0.358178
    106          1           0        7.285162   -1.555373   -0.855870
    107          1           0        7.631151   -0.226890   -2.336407
    108          1           0        8.912307    1.383371   -0.371477
    109          1           0        8.896658   -0.161355    0.822325
    110          1           0       10.300750   -0.290472   -1.929386
    111          1           0        9.263469   -2.663937   -1.279278
    112          1           0       10.929151   -2.916133   -0.954704
    113          1           0        9.621679   -2.474420    0.578024
    114          1           0       11.066408    1.089764   -0.082837
    115          1           0       11.100839   -0.152890    0.902184
    116          1           0       12.766079   -1.560836   -0.384986
    117          1           0       12.698707   -0.490698   -1.784894
    118          1           0       13.737593    1.348570   -0.091731
    119          1           0       13.920726   -0.001045    1.204673
    120          1           0       15.454719   -0.043377   -1.325345
    121          1           0       14.805970   -2.321932   -0.484261
    122          1           0       16.571485   -2.000703   -0.689734
    123          1           0       15.527669   -2.311505    0.883307
    124          1           0       15.893322    1.767066    0.494163
    125          1           0       16.349673    0.430715    1.622233
    126          1           0       18.289045   -0.330225    0.264381
    127          1           0       17.847916    0.749233   -1.068842
    128          1           0       18.413110    2.613799    0.454255
    129          1           0       18.619664    1.575159    1.836288
    130          1           0       20.537462    0.414942    0.575636
    131          1           0       19.995891    2.664878   -1.626419
    132          1           0       21.621519    1.728033   -1.616104
    133          1           0       20.070088    0.665270   -1.830801
    134          1           0       20.901544    2.315878    2.164040
    135          1           0       22.289450    2.642699    0.899345
    136          1           0       20.792783    3.521437    1.145939
    137          1           0       -7.136967    1.728211    0.012144
    138          1           0       -7.696990   -0.328939   -0.027939
 ---------------------------------------------------------------------

 SCF Done:  E(RB3LYP) =  -2733.02643804     A.U. after   17 cycles

 Excitation energies and oscillator strengths:

 Excited State   1:      Singlet-A      2.0689 eV  599.29 nm  f=0.2266  <S**2>=0.000
     235 -> 237       -0.21544
     235 -> 238        0.23682
     236 -> 237        0.60947
     236 -> 238        0.16698
 This state for optimization and/or second-order correction.
 Total Energy, E(TD-HF/TD-KS) =  -2732.95040919
 Copying the excited state density for this state as the 1-particle RhoCI density.

 The electronic state is 1-A.
 Alpha  occ. eigenvalues --  -19.18203 -19.16678 -19.12883 -19.11583 -19.10849
 Alpha  occ. eigenvalues --  -14.36957 -14.36631 -14.31830 -14.31408 -10.31980
 Alpha  occ. eigenvalues --  -10.31101 -10.26516 -10.25100 -10.24348 -10.23964
 Alpha  occ. eigenvalues --  -10.23196 -10.23180 -10.23169 -10.23087 -10.22754
 Alpha  occ. eigenvalues --  -10.22602 -10.22270 -10.22038 -10.22031 -10.21883
 Alpha  occ. eigenvalues --  -10.21714 -10.21402 -10.21369 -10.21177 -10.20974
 Alpha  occ. eigenvalues --  -10.20884 -10.20769 -10.20767 -10.20719 -10.20629
 Alpha  occ. eigenvalues --  -10.20570 -10.20512 -10.20508 -10.20389 -10.20383
 Alpha  occ. eigenvalues --  -10.20357 -10.20339 -10.20107 -10.20093 -10.19994
 Alpha  occ. eigenvalues --  -10.19963 -10.19830 -10.19806 -10.19595 -10.19488
 Alpha  occ. eigenvalues --  -10.19304 -10.19271 -10.19220 -10.19143 -10.19103
 Alpha  occ. eigenvalues --  -10.19061 -10.19007 -10.18543 -10.18438 -10.18150
 Alpha  occ. eigenvalues --  -10.18143 -10.17557 -10.17467 -10.16830  -1.08142
 Alpha  occ. eigenvalues --   -1.07106  -1.00974  -0.99922  -0.98896  -0.98819
 Alpha  occ. eigenvalues --   -0.98787  -0.93726  -0.92353  -0.85398  -0.82785
 Alpha  occ. eigenvalues --   -0.82217  -0.81831  -0.81594  -0.80552  -0.80451
 Alpha  occ. eigenvalues --   -0.80208  -0.80082  -0.79044  -0.78662  -0.77322
 Alpha  occ. eigenvalues --   -0.76960  -0.75462  -0.75402  -0.74561  -0.74385
 Alpha  occ. eigenvalues --   -0.72823  -0.72654  -0.71743  -0.71515  -0.70874
 Alpha  occ. eigenvalues --   -0.69762  -0.69428  -0.68218  -0.68042  -0.67457
 Alpha  occ. eigenvalues --   -0.67161  -0.66993  -0.66149  -0.65634  -0.64887
 Alpha  occ. eigenvalues --   -0.63837  -0.63685  -0.62560  -0.62447  -0.61660
 Alpha  occ. eigenvalues --   -0.60922  -0.58693  -0.58306  -0.58103  -0.57057
 Alpha  occ. eigenvalues --   -0.56661  -0.56265  -0.55482  -0.55263  -0.54999
 Alpha  occ. eigenvalues --   -0.54877  -0.54680  -0.53716  -0.53392  -0.53123
 Alpha  occ. eigenvalues --   -0.52725  -0.52039  -0.51316  -0.50684  -0.50337
 Alpha  occ. eigenvalues --   -0.49826  -0.49620  -0.48773  -0.48456  -0.48035
 Alpha  occ. eigenvalues --   -0.47277  -0.47125  -0.47074  -0.46807  -0.46519
 Alpha  occ. eigenvalues --   -0.46484  -0.46311  -0.46199  -0.45685  -0.45410
 Alpha  occ. eigenvalues --   -0.45322  -0.45073  -0.44710  -0.44361  -0.44255
 Alpha  occ. eigenvalues --   -0.44053  -0.43978  -0.43804  -0.43652  -0.43308
 Alpha  occ. eigenvalues --   -0.43199  -0.43046  -0.42930  -0.42669  -0.42479
 Alpha  occ. eigenvalues --   -0.41853  -0.41843  -0.41635  -0.41526  -0.41491
 Alpha  occ. eigenvalues --   -0.41375  -0.40886  -0.40820  -0.40244  -0.40230
 Alpha  occ. eigenvalues --   -0.39891  -0.39780  -0.39579  -0.39190  -0.39085
 Alpha  occ. eigenvalues --   -0.38854  -0.38569  -0.38324  -0.38173  -0.37987
 Alpha  occ. eigenvalues --   -0.37923  -0.37768  -0.37729  -0.37406  -0.37372
 Alpha  occ. eigenvalues --   -0.37033  -0.36876  -0.36737  -0.36617  -0.36529
 Alpha  occ. eigenvalues --   -0.36265  -0.36151  -0.36003  -0.35807  -0.35632
 Alpha  occ. eigenvalues --   -0.35559  -0.35400  -0.35160  -0.34977  -0.34691
 Alpha  occ. eigenvalues --   -0.34611  -0.34394  -0.34268  -0.34217  -0.34117
 Alpha  occ. eigenvalues --   -0.33446  -0.32964  -0.32868  -0.32582  -0.32433
 Alpha  occ. eigenvalues --   -0.31916  -0.31780  -0.31488  -0.31292  -0.30978
 Alpha  occ. eigenvalues --   -0.30585  -0.30561  -0.30459  -0.30324  -0.29595
 Alpha  occ. eigenvalues --   -0.29392  -0.29204  -0.29025  -0.28829  -0.28192
 Alpha  occ. eigenvalues --   -0.27863  -0.27221  -0.26763  -0.26470  -0.26125
 Alpha  occ. eigenvalues --   -0.24653  -0.24432  -0.24219  -0.23327  -0.20585
 Alpha  occ. eigenvalues --   -0.18762
 Alpha virt. eigenvalues --   -0.10662  -0.07803  -0.03859  -0.02206  -0.01164
 Alpha virt. eigenvalues --   -0.00837   0.00091   0.00776   0.01972   0.03066
 Alpha virt. eigenvalues --    0.03690   0.04254   0.04276   0.04643   0.04697

 Mulliken charges:
               1
     1  C   -0.114314
     2  C    0.068785
     3  C   -0.052744
     4  C   -0.086352
     5  N   -0.220935
     6  C    0.041175
     7  C   -0.043441
     8  C   -0.020693
     9  C   -0.000854
    10  C    0.008895
    11  C   -0.044351
    12  C    0.087076
    13  C    0.157342
    14  O   -0.255181
    15  O   -0.346852
    16  N   -0.078816
    17  C    0.045505
    18  C   -0.176186
    19  C   -0.005911
    20  C    0.089155
    21  C    0.216038
    22  C   -0.061032
    23  C   -0.106719
    24  N   -0.252489
    25  C    0.077705
    26  C   -0.156421
    27  C   -0.087424
    28  C    0.067833
    29  C    0.112844
    30  C    0.051225
    31  C   -0.021822
    32  N    0.074589
    33  C    0.015440
    34  C   -0.122937
    35  C    0.019052
    36  C    0.062019
    37  C    0.144602
    38  C    0.028642
    39  O   -0.198979
    40  C    0.060762
    41  C    0.238533
    42  O   -0.250779
    43  O   -0.317653
    44  C    0.135613
    45  C    0.291161
    46  C   -0.127332
    47  C   -0.110820
    48  C    0.052067
    49  C    0.153884
    50  C   -0.138724
    51  C   -0.001259
    52  C   -0.138999
    53  C   -0.076607
    54  C    0.097294
    55  C    0.098877
    56  C   -0.013359
    57  C   -0.075570
    58  C    0.020189
    59  C    0.033625
    60  C    0.056129
    61  C   -0.049655
    62  C   -0.056064
    63  C   -0.082247
    64  C    0.064798
    65  H   -0.084406
    66  H   -0.051183
    67  H    0.029256
    68  H    0.012295
    69  H    0.009076
    70  H    0.023107
    71  H    0.026006
    72  H    0.059440
    73  H    0.043038
    74  H    0.029157
    75  H    0.007562
    76  H   -0.005376
    77  H    0.046353
    78  H   -0.043412
    79  H    0.028908
    80  H    0.034217
    81  H    0.066986
    82  H    0.043902
    83  H    0.035359
    84  H    0.024989
    85  H    0.011169
    86  H    0.041107
    87  H   -0.014900
    88  H    0.015513
    89  H    0.026668
    90  H    0.015972
    91  H    0.024357
    92  H    0.017904
    93  H   -0.029087
    94  H    0.054178
    95  H    0.026514
    96  H    0.038343
    97  H    0.072352
    98  H    0.042768
    99  H   -0.010609
   100  H    0.032380
   101  H    0.026012
   102  H    0.036619
   103  H    0.029715
   104  H   -0.026678
   105  H   -0.007020
   106  H    0.030779
   107  H    0.032014
   108  H    0.035001
   109  H    0.028824
   110  H   -0.004226
   111  H    0.018053
   112  H    0.035124
   113  H    0.026930
   114  H   -0.029060
   115  H   -0.046249
   116  H    0.001697
   117  H    0.007023
   118  H    0.010130
   119  H    0.008802
   120  H   -0.011871
   121  H   -0.034644
   122  H    0.029877
   123  H   -0.003413
   124  H   -0.000694
   125  H   -0.003789
   126  H    0.002160
   127  H   -0.001060
   128  H   -0.022947
   129  H   -0.007645
   130  H    0.011599
   131  H    0.023583
   132  H    0.027354
   133  H    0.030277
   134  H   -0.013267
   135  H    0.032595
   136  H   -0.012651
   137  H    0.174868
   138  H    0.088943
 Sum of Mulliken charges =   0.00000

 Dipole moment (field-independent basis, Debye):
    X=              0.8884    Y=              6.3872    Z=              0.3538  Tot=              6.4584
 Quadrupole moment (field-independent basis, Debye-Ang):
   XX=           -341.3164   YY=           -384.2902   ZZ=           -394.1899
   XY=            -33.8984   XZ=              8.6296   YZ=              0.2534

 Normal termination of Gaussian 09 at Wed Jul 31 10:13:45 2019.
