 Gaussian 09, Revision D.01,
 Gaussian 09:  ES64L-G09RevD.01 24-Apr-2013

 --------------------------
 # td=(NStates=1) B3LYP/SVP
 --------------------------

 --
 TD
 --
 Symbolic Z-matrix:
 Charge =  0 Multiplicity = 1

                         Standard orientation:
 ---------------------------------------------------------------------
 Center     Atomic      Atomic             Coordinates (Angstroms)
 Number     Number       Type             X           Y           Z
 ---------------------------------------------------------------------
      1          6           0       -5.161972   -1.916237    0.493007
      2          6           0       -4.676191    2.755227    1.484834
      3          6           0       -9.321452    3.298959   -0.311394
      4          6           0       -9.746479   -1.319177   -1.093636
      5          7           0       -5.235087    0.359454    0.838411
      6          6           0       -4.497987   -0.723715    0.725223
      7          6           0       -3.036080   -0.482926    1.243953
      8          6           0       -3.129942    0.923787    1.803222
      9          6           0       -4.445813    1.357062    1.475004
     10          6           0       -2.886243    0.849469    3.344647
     11          6           0       -2.034139   -0.745090    0.086357
     12          6           0       -0.546345   -0.789308    0.600826
     13          6           0        0.313335   -1.152591   -0.526946
     14          8           0       -0.065509   -1.717093   -1.598906
     15          8           0        1.618851   -0.662560   -0.330585
     16          7           0       -6.960267    2.792626    0.398205
     17          6           0       -5.939894    3.390807    1.037888
     18          6           0       -6.258294    4.771220    1.139419
     19          6           0       -7.534126    5.006561    0.564113
     20          6           0       -7.959445    3.680482    0.191669
     21          6           0       -5.335541    5.799311    1.585858
     22          6           0       -8.220718    6.275823    0.481439
     23          6           0       -8.951360    6.748086   -0.489102
     24          7           0       -9.133150    0.921224   -0.583351
     25          6           0       -9.910015    2.041033   -0.682959
     26          6           0      -11.181686    1.834261   -1.095600
     27          6           0      -11.319273    0.440652   -1.307353
     28          6           0      -10.029237    0.029982   -0.928707
     29          6           0      -12.275979    2.896215   -1.105196
     30          6           0      -12.518502   -0.223622   -1.788411
     31          6           0      -12.784192   -0.372557   -3.321252
     32          7           0       -7.510289   -1.236085   -0.256417
     33          6           0       -8.523702   -2.013517   -0.775745
     34          6           0       -8.160674   -3.396719   -0.718252
     35          6           0       -6.827469   -3.394979   -0.165683
     36          6           0       -6.380521   -2.087330    0.004061
     37          6           0       -8.986587   -4.513974   -1.141653
     38          6           0       -5.732832   -4.330321    0.168109
     39          8           0       -5.635635   -5.544915    0.100659
     40          6           0       -4.518738   -3.300131    0.470975
     41          6           0       -4.024706   -3.791150    1.872648
     42          8           0       -4.284767   -3.385057    2.947356
     43          8           0       -2.997567   -4.696461    1.754385
     44          6           0       -2.543512   -5.323512    2.836756
     45          6           0        2.579632   -1.138319   -1.073818
     46          6           0        3.921858   -0.900855   -0.548318
     47          6           0        4.904346   -0.063176   -0.959068
     48          6           0        4.873477    0.785663   -2.249356
     49          6           0        6.279263    0.064754   -0.211086
     50          6           0        7.481012   -0.558625   -0.925248
     51          6           0        8.785153   -0.435992   -0.109490
     52          6           0       10.049075   -0.901646   -0.867407
     53          6           0       10.147412   -2.389000   -1.082761
     54          6           0       11.266559   -0.354879    0.015063
     55          6           0       12.631128   -0.678222   -0.595731
     56          6           0       13.821914    0.133296    0.117330
     57          6           0       15.234845   -0.215631   -0.395241
     58          6           0       15.630515   -1.618093   -0.473310
     59          6           0       16.300437    0.652393    0.389063
     60          6           0       17.663035    0.851247   -0.207123
     61          6           0       18.528637    1.824941    0.499993
     62          6           0       20.058414    1.725854    0.025607
     63          6           0       20.255644    2.267473   -1.327424
     64          6           0       20.829247    2.618210    1.093612
     65          1           0       -4.041739    3.544724    1.600148
     66          1           0       -9.961389    4.327786   -0.173900
     67          1           0      -10.581535   -1.979645   -1.381186
     68          1           0       -2.782262   -1.328578    2.112014
     69          1           0       -2.469173    1.431898    1.164250
     70          1           0       -1.837685    0.638174    3.624452
     71          1           0       -2.938490    1.925633    3.776875
     72          1           0       -3.756895    0.134337    3.797731
     73          1           0       -2.198292   -1.610975   -0.469791
     74          1           0       -1.940315    0.104399   -0.555920
     75          1           0       -0.125076    0.193561    1.230929
     76          1           0       -0.140393   -1.545781    1.487020
     77          1           0       -4.304146    5.839658    1.142698
     78          1           0       -5.782508    6.857016    1.419332
     79          1           0       -5.015295    5.730933    2.669760
     80          1           0       -7.735322    6.981171    1.301051
     81          1           0       -9.283733    6.129489   -1.294037
     82          1           0       -9.502291    7.719151   -0.439385
     83          1           0      -12.317679    3.430650   -0.106307
     84          1           0      -12.196494    3.732732   -1.938111
     85          1           0      -13.341381    2.577154   -1.450248
     86          1           0      -12.760239   -1.196315   -1.322561
     87          1           0      -13.401271    0.341911   -1.545972
     88          1           0      -13.063340    0.641411   -3.982615
     89          1           0      -11.956051   -0.833887   -3.727112
     90          1           0      -13.892797   -0.999756   -3.473386
     91          1           0       -9.851183   -4.672984   -0.606967
     92          1           0       -9.077401   -4.504620   -2.455349
     93          1           0       -8.436795   -5.522691   -1.109611
     94          1           0       -3.620992   -3.428289   -0.277633
     95          1           0       -1.895932   -6.098508    2.517982
     96          1           0       -2.047611   -4.741539    3.551079
     97          1           0       -3.287113   -5.814594    3.591161
     98          1           0        2.418352   -2.075955   -1.304257
     99          1           0        2.306118   -0.573546   -1.956018
    100          1           0        4.212902   -1.320165    0.391368
    101          1           0        5.049759    1.871601   -2.001188
    102          1           0        5.634996    0.586552   -2.987265
    103          1           0        3.830944    0.630226   -2.790384
    104          1           0        6.358728    1.129094   -0.013113
    105          1           0        6.164884   -0.428237    0.686217
    106          1           0        7.426354   -1.585704   -1.366159
    107          1           0        7.876701    0.061031   -1.780588
    108          1           0        8.880572    0.605089    0.394743
    109          1           0        8.513622   -0.996833    0.865036
    110          1           0       10.036880   -0.416849   -1.882254
    111          1           0        9.292040   -2.837636   -1.432632
    112          1           0       11.059369   -2.551322   -1.618145
    113          1           0       10.235418   -2.923327   -0.043005
    114          1           0       11.188594    0.711242    0.440611
    115          1           0       11.087303   -0.957256    0.997698
    116          1           0       12.956041   -1.711708   -0.628822
    117          1           0       12.401195   -0.273959   -1.649776
    118          1           0       13.577976    1.136800    0.224953
    119          1           0       13.815548   -0.218627    1.258045
    120          1           0       15.135418    0.282842   -1.643367
    121          1           0       14.984462   -2.179125   -1.101023
    122          1           0       16.609086   -1.805993   -0.964011
    123          1           0       15.831458   -2.061118    0.466107
    124          1           0       15.986023    1.626008    0.367651
    125          1           0       16.368793    0.374648    1.256806
    126          1           0       18.323448   -0.158114   -0.382683
    127          1           0       17.553116    0.864912   -1.442484
    128          1           0       18.197605    2.895594    0.567760
    129          1           0       18.685948    1.664719    1.510860
    130          1           0       20.159783    0.538170    0.071765
    131          1           0       19.990456    3.226341   -1.590470
    132          1           0       21.249907    2.062159   -1.741864
    133          1           0       19.672820    1.639213   -1.981747
    134          1           0       20.753684    2.367653    2.128821
    135          1           0       21.984286    2.654277    1.105664
    136          1           0       20.355724    3.579430    1.160733
    137          1           0       -7.149423    1.734128    0.411477
    138          1           0       -7.617261   -0.330574   -0.083077
 ---------------------------------------------------------------------

 SCF Done:  E(RB3LYP) =  -2733.00589993     A.U. after   17 cycles

 Excitation energies and oscillator strengths:

 Excited State   1:      Singlet-A      2.0075 eV  617.60 nm  f=0.1578  <S**2>=0.000
     235 -> 237       -0.31402
     235 -> 238        0.25452
     236 -> 237        0.53798
     236 -> 238        0.21061
 This state for optimization and/or second-order correction.
 Total Energy, E(TD-HF/TD-KS) =  -2732.93212517
 Copying the excited state density for this state as the 1-particle RhoCI density.

 The electronic state is 1-A.
 Alpha  occ. eigenvalues --  -19.17081 -19.16705 -19.13564 -19.13053 -19.12828
 Alpha  occ. eigenvalues --  -14.37541 -14.35599 -14.32838 -14.29632 -10.32650
 Alpha  occ. eigenvalues --  -10.31613 -10.28678 -10.24238 -10.23663 -10.23595
 Alpha  occ. eigenvalues --  -10.23283 -10.23281 -10.23163 -10.23143 -10.22674
 Alpha  occ. eigenvalues --  -10.22616 -10.22457 -10.22292 -10.22096 -10.21549
 Alpha  occ. eigenvalues --  -10.21232 -10.21141 -10.21100 -10.21082 -10.20807
 Alpha  occ. eigenvalues --  -10.20753 -10.20716 -10.20677 -10.20640 -10.20610
 Alpha  occ. eigenvalues --  -10.20467 -10.20195 -10.20175 -10.20154 -10.20128
 Alpha  occ. eigenvalues --  -10.20009 -10.19757 -10.19752 -10.19736 -10.19618
 Alpha  occ. eigenvalues --  -10.19604 -10.19591 -10.19419 -10.19380 -10.19316
 Alpha  occ. eigenvalues --  -10.18977 -10.18955 -10.18904 -10.18864 -10.18818
 Alpha  occ. eigenvalues --  -10.18660 -10.18548 -10.17997 -10.17754 -10.17685
 Alpha  occ. eigenvalues --  -10.17637 -10.17155 -10.16125 -10.15675  -1.10911
 Alpha  occ. eigenvalues --   -1.10255  -1.02762  -1.02187  -1.00167  -0.99267
 Alpha  occ. eigenvalues --   -0.97650  -0.96137  -0.94954  -0.86134  -0.82449
 Alpha  occ. eigenvalues --   -0.82198  -0.82072  -0.81771  -0.81088  -0.80559
 Alpha  occ. eigenvalues --   -0.80226  -0.80030  -0.79695  -0.79322  -0.78401
 Alpha  occ. eigenvalues --   -0.77143  -0.76151  -0.75441  -0.75218  -0.74392
 Alpha  occ. eigenvalues --   -0.73809  -0.73101  -0.72714  -0.72202  -0.70916
 Alpha  occ. eigenvalues --   -0.70022  -0.69427  -0.68967  -0.68955  -0.68083
 Alpha  occ. eigenvalues --   -0.67788  -0.67678  -0.66807  -0.66475  -0.65949
 Alpha  occ. eigenvalues --   -0.64790  -0.63475  -0.62689  -0.62076  -0.61713
 Alpha  occ. eigenvalues --   -0.61361  -0.59050  -0.58661  -0.57977  -0.57885
 Alpha  occ. eigenvalues --   -0.57186  -0.56659  -0.56631  -0.56060  -0.55873
 Alpha  occ. eigenvalues --   -0.55724  -0.55397  -0.54533  -0.54125  -0.53758
 Alpha  occ. eigenvalues --   -0.53485  -0.52505  -0.51623  -0.51495  -0.50725
 Alpha  occ. eigenvalues --   -0.50402  -0.49980  -0.48917  -0.48639  -0.48597
 Alpha  occ. eigenvalues --   -0.48391  -0.48189  -0.47736  -0.47393  -0.47358
 Alpha  occ. eigenvalues --   -0.47051  -0.46783  -0.46420  -0.46254  -0.46113
 Alpha  occ. eigenvalues --   -0.45933  -0.45721  -0.45524  -0.44926  -0.44803
 Alpha  occ. eigenvalues --   -0.44470  -0.44293  -0.44145  -0.43976  -0.43886
 Alpha  occ. eigenvalues --   -0.43837  -0.43443  -0.43335  -0.42955  -0.42657
 Alpha  occ. eigenvalues --   -0.42477  -0.42166  -0.41800  -0.41617  -0.41503
 Alpha  occ. eigenvalues --   -0.41312  -0.41252  -0.40819  -0.40566  -0.40468
 Alpha  occ. eigenvalues --   -0.40154  -0.39984  -0.39828  -0.39604  -0.39489
 Alpha  occ. eigenvalues --   -0.39233  -0.39138  -0.39069  -0.38981  -0.38901
 Alpha  occ. eigenvalues --   -0.38716  -0.38491  -0.38252  -0.38217  -0.38142
 Alpha  occ. eigenvalues --   -0.37633  -0.37324  -0.37205  -0.37148  -0.36616
 Alpha  occ. eigenvalues --   -0.36296  -0.36185  -0.36166  -0.35985  -0.35723
 Alpha  occ. eigenvalues --   -0.35278  -0.35044  -0.34998  -0.34837  -0.34647
 Alpha  occ. eigenvalues --   -0.34529  -0.34440  -0.34105  -0.34015  -0.33628
 Alpha  occ. eigenvalues --   -0.33465  -0.33353  -0.33259  -0.32940  -0.32781
 Alpha  occ. eigenvalues --   -0.32677  -0.32288  -0.32111  -0.31991  -0.31429
 Alpha  occ. eigenvalues --   -0.30884  -0.30129  -0.29685  -0.29133  -0.29001
 Alpha  occ. eigenvalues --   -0.28847  -0.28752  -0.28598  -0.28385  -0.28264
 Alpha  occ. eigenvalues --   -0.27855  -0.27759  -0.27601  -0.26820  -0.25805
 Alpha  occ. eigenvalues --   -0.25211  -0.25076  -0.24307  -0.22870  -0.20076
 Alpha  occ. eigenvalues --   -0.19219
 Alpha virt. eigenvalues --   -0.10955  -0.08446  -0.05271  -0.02735  -0.02267
 Alpha virt. eigenvalues --   -0.00725   0.00373   0.00530   0.01504   0.03098
 Alpha virt. eigenvalues --    0.03657   0.03955   0.04223   0.04765   0.05016

 Mulliken charges:
               1
     1  C    0.036329
     2  C    0.006524
     3  C   -0.097842
     4  C   -0.122188
     5  N   -0.196479
     6  C   -0.061252
     7  C   -0.152951
     8  C    0.102087
     9  C    0.035220
    10  C    0.018774
    11  C    0.138009
    12  C   -0.091608
    13  C    0.212629
    14  O   -0.276641
    15  O   -0.299521
    16  N   -0.025540
    17  C   -0.005525
    18  C   -0.095277
    19  C    0.031268
    20  C   -0.030934
    21  C    0.017880
    22  C   -0.057738
    23  C   -0.026110
    24  N   -0.197869
    25  C    0.099139
    26  C   -0.092762
    27  C   -0.068910
    28  C    0.088707
    29  C    0.016573
    30  C    0.075332
    31  C   -0.065981
    32  N   -0.031654
    33  C    0.081057
    34  C   -0.096339
    35  C   -0.010222
    36  C    0.170676
    37  C    0.027572
    38  C    0.085864
    39  O   -0.164542
    40  C   -0.156827
    41  C    0.198423
    42  O   -0.184684
    43  O   -0.274050
    44  C    0.204796
    45  C    0.398830
    46  C   -0.061072
    47  C   -0.179240
    48  C    0.035070
    49  C    0.148879
    50  C    0.017989
    51  C   -0.043306
    52  C   -0.076184
    53  C    0.085983
    54  C   -0.032392
    55  C    0.039736
    56  C    0.032170
    57  C   -0.141559
    58  C    0.115157
    59  C    0.231813
    60  C   -0.060629
    61  C    0.061089
    62  C   -0.151263
    63  C    0.134995
    64  C    0.039925
    65  H   -0.062916
    66  H    0.027947
    67  H   -0.023329
    68  H    0.058028
    69  H   -0.026464
    70  H    0.017497
    71  H    0.010386
    72  H    0.072222
    73  H    0.017704
    74  H    0.005578
    75  H    0.061721
    76  H    0.060914
    77  H    0.031037
    78  H    0.025505
    79  H    0.023484
    80  H    0.027527
    81  H    0.022077
    82  H    0.034169
    83  H    0.041856
    84  H    0.021940
    85  H    0.020285
    86  H    0.006584
    87  H   -0.013353
    88  H    0.034961
    89  H    0.010597
    90  H    0.028702
    91  H    0.026778
    92  H    0.052801
    93  H    0.040876
    94  H    0.097190
    95  H    0.009924
    96  H   -0.018970
    97  H    0.007765
    98  H   -0.049941
    99  H   -0.032672
   100  H   -0.038796
   101  H    0.015696
   102  H    0.022384
   103  H    0.024307
   104  H    0.001465
   105  H   -0.036325
   106  H    0.009905
   107  H   -0.008905
   108  H   -0.003526
   109  H   -0.015570
   110  H    0.002323
   111  H   -0.012049
   112  H    0.013065
   113  H    0.001049
   114  H    0.011056
   115  H   -0.006022
   116  H    0.015818
   117  H    0.004558
   118  H   -0.024892
   119  H   -0.012991
   120  H   -0.011345
   121  H    0.000042
   122  H   -0.004283
   123  H   -0.010615
   124  H   -0.035080
   125  H   -0.091544
   126  H   -0.014355
   127  H    0.011650
   128  H   -0.009436
   129  H   -0.031390
   130  H    0.017158
   131  H   -0.014027
   132  H   -0.006791
   133  H   -0.027086
   134  H   -0.021566
   135  H    0.014288
   136  H   -0.006017
   137  H    0.193355
   138  H    0.056676
 Sum of Mulliken charges =   0.00000

 Dipole moment (field-independent basis, Debye):
    X=              1.3501    Y=              4.6321    Z=              1.2404  Tot=              4.9817
 Quadrupole moment (field-independent basis, Debye-Ang):
   XX=           -352.9867   YY=           -387.0842   ZZ=           -398.2497
   XY=            -25.5060   XZ=             17.5569   YZ=              3.7850

 Normal termination of Gaussian 09 at Sat Aug  3 07:48:02 2019.
