 Gaussian 09, Revision D.01,
 Gaussian 09:  ES64L-G09RevD.01 24-Apr-2013

 --------------------------
 # td=(NStates=1) B3LYP/SVP
 --------------------------

 --
 TD
 --
 Symbolic Z-matrix:
 Charge =  0 Multiplicity = 1

                         Standard orientation:
 ---------------------------------------------------------------------
 Center     Atomic      Atomic             Coordinates (Angstroms)
 Number     Number       Type             X           Y           Z
 ---------------------------------------------------------------------
      1          6           0       -5.118478   -2.013319    0.463660
      2          6           0       -4.750653    2.829103    1.235888
      3          6           0       -9.305042    3.238434   -0.111521
      4          6           0       -9.916482   -1.458965   -0.931362
      5          7           0       -5.190343    0.376784    0.739544
      6          6           0       -4.514284   -0.754855    0.805925
      7          6           0       -3.049057   -0.612239    1.235741
      8          6           0       -3.046765    0.892921    1.741991
      9          6           0       -4.373983    1.392181    1.201426
     10          6           0       -2.952589    1.112816    3.305570
     11          6           0       -1.936590   -0.829762    0.089432
     12          6           0       -0.498655   -0.748955    0.583764
     13          6           0        0.423952   -0.997773   -0.598147
     14          8           0        0.129871   -1.574099   -1.661618
     15          8           0        1.705489   -0.770002   -0.263459
     16          7           0       -7.113238    2.748904    0.499467
     17          6           0       -5.974966    3.365006    0.957098
     18          6           0       -6.344217    4.796759    1.108466
     19          6           0       -7.540072    4.988242    0.497910
     20          6           0       -8.071212    3.706141    0.202050
     21          6           0       -5.259300    5.723558    1.439158
     22          6           0       -8.208263    6.195129    0.518549
     23          6           0       -9.081948    6.614081   -0.448519
     24          7           0       -9.323962    0.869803   -0.297846
     25          6           0       -9.947216    2.031405   -0.382510
     26          6           0      -11.314161    1.911863   -0.949593
     27          6           0      -11.443330    0.535340   -1.224004
     28          6           0      -10.253109   -0.095929   -0.799208
     29          6           0      -12.305511    2.954360   -1.062870
     30          6           0      -12.650475   -0.142695   -1.690763
     31          6           0      -12.520025   -0.554178   -3.207665
     32          7           0       -7.471332   -1.280438   -0.204417
     33          6           0       -8.696114   -1.982948   -0.571214
     34          6           0       -8.129632   -3.410342   -0.683323
     35          6           0       -6.890763   -3.419057   -0.241586
     36          6           0       -6.453159   -2.067430   -0.005452
     37          6           0       -8.835007   -4.631634   -1.122907
     38          6           0       -5.671156   -4.266145   -0.071351
     39          8           0       -5.666522   -5.476637   -0.083027
     40          6           0       -4.493242   -3.399340    0.429156
     41          6           0       -3.919747   -3.868467    1.705842
     42          8           0       -4.203975   -3.361999    2.764881
     43          8           0       -3.097789   -4.912654    1.536728
     44          6           0       -2.708299   -5.682091    2.636282
     45          6           0        2.746892   -1.096566   -1.134741
     46          6           0        4.039260   -0.578394   -0.602595
     47          6           0        4.922537    0.254796   -1.120791
     48          6           0        4.747700    1.093131   -2.381773
     49          6           0        6.231758    0.480257   -0.347410
     50          6           0        7.446816   -0.135771   -1.012129
     51          6           0        8.726134    0.083500   -0.243631
     52          6           0       10.015742   -0.605701   -0.682704
     53          6           0        9.935146   -2.202980   -0.791830
     54          6           0       11.237332   -0.246310    0.108574
     55          6           0       12.577642   -0.682770   -0.445831
     56          6           0       13.882184   -0.116085    0.247953
     57          6           0       15.332405   -0.193075   -0.380208
     58          6           0       15.586064   -1.737975   -0.449967
     59          6           0       16.364097    0.560635    0.415203
     60          6           0       17.672333    0.664969   -0.077926
     61          6           0       18.786919    1.414792    0.631659
     62          6           0       20.198704    1.507247    0.083794
     63          6           0       20.238078    2.025728   -1.378792
     64          6           0       21.111059    2.373334    0.992504
     65          1           0       -3.888396    3.478706    1.643487
     66          1           0      -10.241976    3.975329   -0.276653
     67          1           0      -10.623371   -2.049904   -1.202663
     68          1           0       -2.719231   -1.277693    1.918770
     69          1           0       -2.198658    1.418484    1.467839
     70          1           0       -2.143181    0.578063    3.685064
     71          1           0       -2.798691    2.187482    3.513061
     72          1           0       -4.057571    0.746232    3.819510
     73          1           0       -2.146111   -1.867510   -0.292756
     74          1           0       -2.091858   -0.092757   -0.852331
     75          1           0       -0.390797    0.349766    1.178454
     76          1           0       -0.267670   -1.511166    1.452752
     77          1           0       -4.394432    5.710047    0.743577
     78          1           0       -5.546595    6.982310    1.825828
     79          1           0       -4.814572    5.374786    2.370444
     80          1           0       -7.664443    6.834578    1.125157
     81          1           0       -9.236188    5.849322   -1.322840
     82          1           0       -9.544509    7.480436   -0.790149
     83          1           0      -12.447109    3.453955    0.018129
     84          1           0      -12.125918    3.654063   -1.889473
     85          1           0      -13.298673    2.482628   -1.170389
     86          1           0      -12.955980   -1.086141   -1.116575
     87          1           0      -13.768199    0.350181   -1.788754
     88          1           0      -12.664880    0.342632   -3.714726
     89          1           0      -11.500714   -1.155971   -3.505659
     90          1           0      -13.381921   -1.050291   -3.295894
     91          1           0       -9.745365   -5.029995   -0.440293
     92          1           0       -8.968388   -4.718616   -2.202770
     93          1           0       -8.102903   -5.533639   -0.849306
     94          1           0       -3.640313   -3.318777   -0.252752
     95          1           0       -1.876038   -6.435477    2.287064
     96          1           0       -2.430837   -4.980854    3.472640
     97          1           0       -3.424384   -6.316514    3.124770
     98          1           0        2.853808   -2.189505   -1.259412
     99          1           0        2.688006   -0.443480   -2.092175
    100          1           0        4.470821   -1.303415    0.385630
    101          1           0        4.904273    2.178660   -2.034599
    102          1           0        5.580709    0.954446   -3.164656
    103          1           0        3.715220    1.017818   -2.946676
    104          1           0        6.324874    1.585781   -0.326189
    105          1           0        5.976693    0.042859    0.621746
    106          1           0        7.143191   -1.196038   -1.040141
    107          1           0        7.503591    0.087603   -2.163511
    108          1           0        9.189391    1.184076    0.087630
    109          1           0        8.357371   -0.288611    0.875934
    110          1           0       10.217212   -0.127621   -1.629613
    111          1           0        9.058551   -2.392296   -1.442161
    112          1           0       10.966720   -2.734488   -1.174942
    113          1           0        9.593823   -2.388947    0.399541
    114          1           0       11.174146    0.851194    0.134947
    115          1           0       11.321485   -0.641319    1.184824
    116          1           0       12.518759   -1.725310   -0.630960
    117          1           0       12.641411    0.067371   -1.340125
    118          1           0       13.631851    1.203335    0.259211
    119          1           0       13.708216   -0.542127    1.306592
    120          1           0       15.163377    0.085129   -1.392951
    121          1           0       15.025067   -2.098281   -1.383663
    122          1           0       16.666239   -1.906734   -0.874915
    123          1           0       15.517525   -2.177763    0.508774
    124          1           0       15.741891    1.505011    0.592129
    125          1           0       16.323901    0.397037    1.573262
    126          1           0       18.164937   -0.348863   -0.126525
    127          1           0       17.565158    1.286687   -1.086350
    128          1           0       18.320251    2.466766    0.737563
    129          1           0       18.953749    1.108446    1.699165
    130          1           0       20.574128    0.606844    0.117615
    131          1           0       19.803516    3.080234   -1.513700
    132          1           0       21.257248    2.122910   -1.842490
    133          1           0       19.770007    1.377532   -1.907626
    134          1           0       21.057112    1.656264    1.942108
    135          1           0       22.120736    2.610857    0.437109
    136          1           0       20.614317    3.361281    1.109280
    137          1           0       -7.186288    1.636176    0.437513
    138          1           0       -7.433110   -0.319304   -0.136654
 ---------------------------------------------------------------------

 SCF Done:  E(RB3LYP) =  -2732.99613513     A.U. after   17 cycles

 Excitation energies and oscillator strengths:

 Excited State   1:      Singlet-A      2.0635 eV  600.85 nm  f=0.1083  <S**2>=0.000
     235 -> 238        0.35998
     236 -> 237        0.60516
 This state for optimization and/or second-order correction.
 Total Energy, E(TD-HF/TD-KS) =  -2732.92030362
 Copying the excited state density for this state as the 1-particle RhoCI density.

 The electronic state is 1-A.
 Alpha  occ. eigenvalues --  -19.18585 -19.18246 -19.12874 -19.12774 -19.12670
 Alpha  occ. eigenvalues --  -14.37022 -14.36919 -14.32932 -14.28919 -10.32698
 Alpha  occ. eigenvalues --  -10.32050 -10.28512 -10.25649 -10.25322 -10.24194
 Alpha  occ. eigenvalues --  -10.24086 -10.23634 -10.23519 -10.23440 -10.23095
 Alpha  occ. eigenvalues --  -10.23094 -10.21635 -10.21626 -10.21564 -10.21382
 Alpha  occ. eigenvalues --  -10.21292 -10.21225 -10.21217 -10.20852 -10.20799
 Alpha  occ. eigenvalues --  -10.20414 -10.20366 -10.20313 -10.20308 -10.20274
 Alpha  occ. eigenvalues --  -10.20214 -10.20208 -10.20178 -10.20141 -10.20127
 Alpha  occ. eigenvalues --  -10.20078 -10.20071 -10.19986 -10.19685 -10.19660
 Alpha  occ. eigenvalues --  -10.19595 -10.19557 -10.19453 -10.19336 -10.19333
 Alpha  occ. eigenvalues --  -10.19254 -10.19129 -10.19042 -10.18813 -10.18665
 Alpha  occ. eigenvalues --  -10.18557 -10.18417 -10.18331 -10.18235 -10.17927
 Alpha  occ. eigenvalues --  -10.17779 -10.17754 -10.17485 -10.16776  -1.10726
 Alpha  occ. eigenvalues --   -1.10193  -1.03468  -1.01753  -0.99938  -0.98475
 Alpha  occ. eigenvalues --   -0.97605  -0.94758  -0.92221  -0.84811  -0.83338
 Alpha  occ. eigenvalues --   -0.83219  -0.82698  -0.81742  -0.81446  -0.80882
 Alpha  occ. eigenvalues --   -0.80555  -0.80126  -0.79462  -0.78942  -0.78392
 Alpha  occ. eigenvalues --   -0.77349  -0.76245  -0.75817  -0.75290  -0.74616
 Alpha  occ. eigenvalues --   -0.74327  -0.73663  -0.72502  -0.71779  -0.70272
 Alpha  occ. eigenvalues --   -0.70030  -0.69706  -0.68997  -0.68042  -0.67763
 Alpha  occ. eigenvalues --   -0.66988  -0.66905  -0.65813  -0.65597  -0.65008
 Alpha  occ. eigenvalues --   -0.64320  -0.63219  -0.62671  -0.62461  -0.61148
 Alpha  occ. eigenvalues --   -0.60769  -0.59520  -0.58865  -0.58119  -0.57877
 Alpha  occ. eigenvalues --   -0.56889  -0.56605  -0.55905  -0.55790  -0.55490
 Alpha  occ. eigenvalues --   -0.55244  -0.54886  -0.54372  -0.53730  -0.52986
 Alpha  occ. eigenvalues --   -0.52804  -0.51803  -0.51654  -0.51418  -0.51083
 Alpha  occ. eigenvalues --   -0.50570  -0.49502  -0.49134  -0.48847  -0.48577
 Alpha  occ. eigenvalues --   -0.48462  -0.48290  -0.48252  -0.47735  -0.47586
 Alpha  occ. eigenvalues --   -0.46736  -0.46567  -0.46434  -0.45942  -0.45836
 Alpha  occ. eigenvalues --   -0.45432  -0.45347  -0.45052  -0.44810  -0.44588
 Alpha  occ. eigenvalues --   -0.44529  -0.44377  -0.44234  -0.44169  -0.43941
 Alpha  occ. eigenvalues --   -0.43714  -0.43362  -0.43293  -0.43146  -0.43047
 Alpha  occ. eigenvalues --   -0.42835  -0.42290  -0.42169  -0.42009  -0.41782
 Alpha  occ. eigenvalues --   -0.41553  -0.41273  -0.41164  -0.41099  -0.41028
 Alpha  occ. eigenvalues --   -0.40532  -0.40350  -0.39814  -0.39698  -0.39471
 Alpha  occ. eigenvalues --   -0.39225  -0.39071  -0.39023  -0.38562  -0.38366
 Alpha  occ. eigenvalues --   -0.38220  -0.38066  -0.37710  -0.37482  -0.37271
 Alpha  occ. eigenvalues --   -0.36884  -0.36759  -0.36679  -0.36586  -0.36213
 Alpha  occ. eigenvalues --   -0.36188  -0.35928  -0.35822  -0.35722  -0.35522
 Alpha  occ. eigenvalues --   -0.35447  -0.35176  -0.35083  -0.34511  -0.34458
 Alpha  occ. eigenvalues --   -0.34355  -0.34167  -0.34119  -0.33808  -0.33230
 Alpha  occ. eigenvalues --   -0.33025  -0.32832  -0.32681  -0.32480  -0.32065
 Alpha  occ. eigenvalues --   -0.31990  -0.31696  -0.31573  -0.31556  -0.31252
 Alpha  occ. eigenvalues --   -0.31251  -0.30658  -0.30323  -0.30054  -0.29808
 Alpha  occ. eigenvalues --   -0.29527  -0.28789  -0.28641  -0.28422  -0.28165
 Alpha  occ. eigenvalues --   -0.28082  -0.27941  -0.27207  -0.26126  -0.26093
 Alpha  occ. eigenvalues --   -0.25666  -0.25376  -0.23341  -0.21568  -0.19673
 Alpha  occ. eigenvalues --   -0.18328
 Alpha virt. eigenvalues --   -0.09204  -0.08236  -0.04638  -0.02493  -0.02198
 Alpha virt. eigenvalues --   -0.00427  -0.00030   0.00195   0.01661   0.03095
 Alpha virt. eigenvalues --    0.03211   0.03484   0.03685   0.04213   0.04287

 Mulliken charges:
               1
     1  C   -0.055231
     2  C   -0.111459
     3  C   -0.076109
     4  C    0.022880
     5  N   -0.163821
     6  C   -0.036654
     7  C    0.061967
     8  C   -0.023163
     9  C   -0.002015
    10  C    0.025196
    11  C   -0.024836
    12  C   -0.063284
    13  C    0.225477
    14  O   -0.260531
    15  O   -0.285457
    16  N   -0.141709
    17  C    0.139403
    18  C   -0.121483
    19  C    0.066719
    20  C    0.157340
    21  C    0.017278
    22  C    0.016485
    23  C   -0.040891
    24  N   -0.251983
    25  C   -0.054895
    26  C   -0.128205
    27  C    0.022555
    28  C    0.051762
    29  C    0.078225
    30  C   -0.102493
    31  C    0.058607
    32  N    0.024523
    33  C    0.136460
    34  C   -0.165162
    35  C    0.022044
    36  C    0.031068
    37  C   -0.007750
    38  C    0.090495
    39  O   -0.163651
    40  C    0.055886
    41  C    0.173818
    42  O   -0.212276
    43  O   -0.273904
    44  C    0.157513
    45  C    0.287569
    46  C   -0.169967
    47  C   -0.146655
    48  C    0.004021
    49  C    0.089870
    50  C    0.023486
    51  C   -0.038026
    52  C   -0.020632
    53  C   -0.060079
    54  C    0.013790
    55  C    0.019247
    56  C   -0.099173
    57  C   -0.011257
    58  C    0.012082
    59  C    0.037572
    60  C    0.079965
    61  C   -0.029334
    62  C   -0.017570
    63  C    0.066888
    64  C   -0.015380
    65  H   -0.003544
    66  H   -0.003580
    67  H   -0.110027
    68  H   -0.049975
    69  H   -0.030686
    70  H    0.005483
    71  H    0.016245
    72  H    0.050370
    73  H    0.025361
    74  H    0.040078
    75  H    0.056519
    76  H    0.064227
    77  H    0.044497
    78  H    0.042249
    79  H    0.018515
    80  H   -0.038991
    81  H    0.036816
    82  H    0.010728
    83  H    0.040761
    84  H    0.033308
    85  H    0.000097
    86  H    0.017252
    87  H    0.015810
    88  H   -0.005630
    89  H    0.044205
    90  H   -0.030913
    91  H    0.050685
    92  H    0.038285
    93  H    0.044662
    94  H    0.049913
    95  H    0.049675
    96  H    0.029413
    97  H    0.024779
    98  H    0.031043
    99  H    0.016148
   100  H    0.011764
   101  H    0.030013
   102  H    0.040811
   103  H    0.043108
   104  H   -0.000162
   105  H    0.007487
   106  H    0.001397
   107  H    0.007888
   108  H    0.018443
   109  H   -0.001401
   110  H   -0.021709
   111  H    0.022827
   112  H    0.057349
   113  H    0.032602
   114  H   -0.018564
   115  H   -0.009922
   116  H    0.004743
   117  H   -0.004097
   118  H    0.002508
   119  H    0.010370
   120  H   -0.022811
   121  H    0.020709
   122  H    0.002352
   123  H    0.009469
   124  H   -0.023633
   125  H   -0.013312
   126  H    0.005214
   127  H    0.015404
   128  H   -0.015773
   129  H   -0.017595
   130  H   -0.051812
   131  H    0.008103
   132  H   -0.001375
   133  H   -0.037957
   134  H    0.030305
   135  H    0.028250
   136  H    0.013318
   137  H    0.206660
   138  H    0.090085
 Sum of Mulliken charges =   0.00000

 Dipole moment (field-independent basis, Debye):
    X=              3.7778    Y=              3.0592    Z=             -0.1328  Tot=              4.8629
 Quadrupole moment (field-independent basis, Debye-Ang):
   XX=           -372.8845   YY=           -384.6191   ZZ=           -397.7504
   XY=            -18.9163   XZ=              2.1607   YZ=             -7.0603

 Normal termination of Gaussian 09 at Fri Jul 26 06:47:44 2019.
