 Gaussian 09, Revision D.01,
 Gaussian 09:  ES64L-G09RevD.01 24-Apr-2013

 --------------------------
 # td=(NStates=1) B3LYP/SVP
 --------------------------

 --
 TD
 --
 Symbolic Z-matrix:
 Charge =  0 Multiplicity = 1

                         Standard orientation:
 ---------------------------------------------------------------------
 Center     Atomic      Atomic             Coordinates (Angstroms)
 Number     Number       Type             X           Y           Z
 ---------------------------------------------------------------------
      1          6           0       -5.157678   -1.938892    0.485728
      2          6           0       -4.686319    2.740542    1.339397
      3          6           0       -9.282918    3.418206   -0.221835
      4          6           0       -9.858703   -1.344747   -0.857840
      5          7           0       -5.187613    0.522102    0.848481
      6          6           0       -4.501347   -0.702390    0.912394
      7          6           0       -3.067186   -0.554565    1.264169
      8          6           0       -2.982014    0.896229    1.783885
      9          6           0       -4.334322    1.470451    1.327078
     10          6           0       -2.876866    1.051298    3.317825
     11          6           0       -2.112569   -0.868855   -0.015140
     12          6           0       -0.621148   -0.768643    0.425783
     13          6           0        0.393137   -1.215299   -0.701097
     14          8           0        0.028929   -1.582338   -1.746922
     15          8           0        1.567853   -1.030773   -0.105131
     16          7           0       -6.986512    2.718848    0.451112
     17          6           0       -5.901161    3.420834    0.896781
     18          6           0       -6.162995    4.819544    0.929084
     19          6           0       -7.444309    4.998795    0.460356
     20          6           0       -7.994900    3.756934    0.130976
     21          6           0       -5.098669    5.808081    1.323926
     22          6           0       -8.025306    6.316566    0.251679
     23          6           0       -9.138795    6.654033   -0.586927
     24          7           0       -9.116688    1.071534   -0.426089
     25          6           0       -9.804911    2.140015   -0.491273
     26          6           0      -11.153897    1.997551   -0.972629
     27          6           0      -11.388778    0.621570   -1.247799
     28          6           0      -10.094936   -0.022977   -0.889377
     29          6           0      -12.117346    3.077646   -1.108521
     30          6           0      -12.638227   -0.063280   -1.576264
     31          6           0      -12.470412   -0.496344   -3.042736
     32          7           0       -7.542475   -1.270165   -0.017076
     33          6           0       -8.608131   -1.974875   -0.493630
     34          6           0       -8.150233   -3.305251   -0.639385
     35          6           0       -6.844051   -3.380009   -0.190858
     36          6           0       -6.427319   -2.064757    0.193877
     37          6           0       -8.982715   -4.522253   -1.118853
     38          6           0       -5.821665   -4.277979    0.059252
     39          8           0       -5.653499   -5.554476   -0.099128
     40          6           0       -4.574974   -3.295071    0.508023
     41          6           0       -4.037304   -3.791925    1.766313
     42          8           0       -4.206719   -3.492569    2.895364
     43          8           0       -3.233587   -4.947274    1.553281
     44          6           0       -2.543793   -5.394175    2.673102
     45          6           0        2.691320   -1.341637   -1.030824
     46          6           0        3.950087   -0.951693   -0.545217
     47          6           0        4.875511   -0.126184   -1.011231
     48          6           0        4.786752    0.515628   -2.364079
     49          6           0        6.216218   -0.027061   -0.214402
     50          6           0        7.473534   -0.497167   -0.981669
     51          6           0        8.753243   -0.268267   -0.148705
     52          6           0       10.058009   -0.942204   -0.800831
     53          6           0        9.968474   -2.435090   -0.925551
     54          6           0       11.268929   -0.426676   -0.074724
     55          6           0       12.622215   -0.729572   -0.617798
     56          6           0       13.771939   -0.081280    0.209343
     57          6           0       15.281637    0.014419   -0.466939
     58          6           0       15.653529   -1.449659   -0.734661
     59          6           0       16.176325    0.781626    0.383360
     60          6           0       17.668510    0.901616   -0.158217
     61          6           0       18.499297    1.869548    0.648749
     62          6           0       20.005587    1.780963    0.267496
     63          6           0       20.272195    2.186137   -1.231118
     64          6           0       20.849489    2.751970    1.155312
     65          1           0       -3.996745    3.448875    1.785669
     66          1           0      -10.042665    4.173821   -0.330529
     67          1           0      -10.659502   -2.095446   -1.114987
     68          1           0       -2.932010   -1.067971    2.121844
     69          1           0       -2.004055    1.547309    1.407164
     70          1           0       -1.880471    0.727531    3.640921
     71          1           0       -3.065299    2.241270    3.569011
     72          1           0       -3.541733    0.446142    3.772030
     73          1           0       -2.332360   -1.747499   -0.584785
     74          1           0       -2.238310   -0.145018   -0.708797
     75          1           0       -0.248266    0.170016    0.651186
     76          1           0       -0.334880   -1.451070    1.231074
     77          1           0       -3.893970    5.678233    0.942401
     78          1           0       -5.346948    6.928742    0.971819
     79          1           0       -4.946173    5.921190    2.681951
     80          1           0       -7.299112    7.369983    0.648744
     81          1           0       -9.747055    5.895654   -1.229824
     82          1           0       -9.400929    7.702692   -0.427925
     83          1           0      -12.413764    3.444520   -0.096382
     84          1           0      -11.717632    3.946523   -1.903097
     85          1           0      -13.158455    2.654726   -1.466080
     86          1           0      -12.850388   -1.299359   -1.129343
     87          1           0      -13.367261    0.696059   -1.570535
     88          1           0      -12.159997    0.429886   -3.767271
     89          1           0      -11.884171   -1.315694   -3.069472
     90          1           0      -13.639855   -0.842342   -3.513579
     91          1           0       -9.810038   -4.788327   -0.467966
     92          1           0       -9.626811   -4.317704   -1.990522
     93          1           0       -8.436066   -5.462319   -1.207384
     94          1           0       -3.799536   -3.388462   -0.253934
     95          1           0       -2.164539   -6.450762    2.162447
     96          1           0       -1.584227   -4.830943    3.104500
     97          1           0       -3.439998   -5.351693    3.511475
     98          1           0        2.568943   -2.510131   -1.171467
     99          1           0        2.629753   -0.990328   -2.081565
    100          1           0        4.284110   -1.372267    0.446929
    101          1           0        5.276323    1.431942   -2.477603
    102          1           0        5.271532   -0.117674   -3.126470
    103          1           0        3.554829    0.714928   -2.570287
    104          1           0        6.289116    1.114402    0.068866
    105          1           0        6.040611   -0.650535    0.841796
    106          1           0        7.442689   -1.534108   -1.192655
    107          1           0        7.287075   -0.002284   -2.031741
    108          1           0        8.959097    0.827410    0.086400
    109          1           0        8.692890   -0.690084    0.992843
    110          1           0       10.002678   -0.353631   -1.894515
    111          1           0        9.012490   -2.849155   -1.504368
    112          1           0       10.856891   -3.143828   -1.397657
    113          1           0        9.945213   -2.969007   -0.040744
    114          1           0       11.135348    0.562680    0.148283
    115          1           0       11.298340   -0.978845    1.123298
    116          1           0       12.631601   -1.954157   -0.654177
    117          1           0       12.753657   -0.553993   -1.743413
    118          1           0       13.482652    0.961366    0.439246
    119          1           0       13.787846   -0.541868    1.286482
    120          1           0       15.256871    0.549224   -1.521122
    121          1           0       14.982144   -2.030098   -1.327167
    122          1           0       16.717271   -1.664097   -1.332375
    123          1           0       15.525754   -2.269071    0.047909
    124          1           0       15.743416    1.646714    0.615086
    125          1           0       16.153572    0.236602    1.420706
    126          1           0       18.399436    0.027091   -0.115415
    127          1           0       17.484842    1.124051   -1.232336
    128          1           0       17.995460    2.960772    0.607246
    129          1           0       18.364680    1.500318    1.664380
    130          1           0       20.404579    0.701125    0.428178
    131          1           0       19.914078    3.113344   -1.283709
    132          1           0       21.446321    2.183402   -1.367668
    133          1           0       19.768543    1.451262   -1.958827
    134          1           0       20.639018    2.538121    2.272318
    135          1           0       21.911536    2.430108    1.150104
    136          1           0       20.595404    3.875809    0.991033
    137          1           0       -7.328169    1.705141    0.394841
    138          1           0       -7.386266   -0.174568    0.132260
 ---------------------------------------------------------------------

 SCF Done:  E(RB3LYP) =  -2732.94744361     A.U. after   17 cycles

 Excitation energies and oscillator strengths:

 Excited State   1:      Singlet-A      1.8746 eV  661.39 nm  f=0.3323  <S**2>=0.000
     235 -> 238        0.18755
     236 -> 237        0.67921
     236 <- 237       -0.10537
 This state for optimization and/or second-order correction.
 Total Energy, E(TD-HF/TD-KS) =  -2732.87855318
 Copying the excited state density for this state as the 1-particle RhoCI density.

 The electronic state is 1-A.
 Alpha  occ. eigenvalues --  -19.18866 -19.14545 -19.13297 -19.12481 -19.11348
 Alpha  occ. eigenvalues --  -14.37501 -14.37283 -14.32873 -14.31285 -10.31205
 Alpha  occ. eigenvalues --  -10.30496 -10.27517 -10.25498 -10.24997 -10.24872
 Alpha  occ. eigenvalues --  -10.24535 -10.24176 -10.24105 -10.24053 -10.23755
 Alpha  occ. eigenvalues --  -10.22653 -10.22640 -10.22353 -10.21801 -10.21766
 Alpha  occ. eigenvalues --  -10.21707 -10.21685 -10.21659 -10.21601 -10.21533
 Alpha  occ. eigenvalues --  -10.21528 -10.21407 -10.21376 -10.21345 -10.21051
 Alpha  occ. eigenvalues --  -10.20953 -10.20900 -10.20894 -10.20619 -10.20437
 Alpha  occ. eigenvalues --  -10.20284 -10.20232 -10.20103 -10.20025 -10.20019
 Alpha  occ. eigenvalues --  -10.19974 -10.19918 -10.19900 -10.19821 -10.19478
 Alpha  occ. eigenvalues --  -10.19474 -10.19426 -10.19418 -10.19375 -10.18935
 Alpha  occ. eigenvalues --  -10.18900 -10.18742 -10.18716 -10.18594 -10.18593
 Alpha  occ. eigenvalues --  -10.18460 -10.18433 -10.18018 -10.17695  -1.10489
 Alpha  occ. eigenvalues --   -1.08669  -1.03536  -0.99685  -0.98722  -0.97069
 Alpha  occ. eigenvalues --   -0.96965  -0.93985  -0.93479  -0.86532  -0.83387
 Alpha  occ. eigenvalues --   -0.82457  -0.82078  -0.81965  -0.81160  -0.80811
 Alpha  occ. eigenvalues --   -0.80387  -0.79922  -0.79309  -0.79167  -0.77942
 Alpha  occ. eigenvalues --   -0.77133  -0.76317  -0.76127  -0.74743  -0.74538
 Alpha  occ. eigenvalues --   -0.73810  -0.73327  -0.72457  -0.71997  -0.70805
 Alpha  occ. eigenvalues --   -0.70059  -0.68804  -0.68377  -0.67724  -0.67578
 Alpha  occ. eigenvalues --   -0.67031  -0.66633  -0.66605  -0.66065  -0.65484
 Alpha  occ. eigenvalues --   -0.64035  -0.63365  -0.62662  -0.62274  -0.61360
 Alpha  occ. eigenvalues --   -0.60593  -0.59192  -0.58794  -0.57848  -0.57149
 Alpha  occ. eigenvalues --   -0.56993  -0.56656  -0.56203  -0.55706  -0.55602
 Alpha  occ. eigenvalues --   -0.55199  -0.54039  -0.53527  -0.52972  -0.52778
 Alpha  occ. eigenvalues --   -0.52365  -0.51809  -0.51439  -0.51144  -0.50592
 Alpha  occ. eigenvalues --   -0.50180  -0.49238  -0.48855  -0.48417  -0.48114
 Alpha  occ. eigenvalues --   -0.47748  -0.47443  -0.47100  -0.46876  -0.46642
 Alpha  occ. eigenvalues --   -0.46551  -0.46245  -0.46078  -0.46000  -0.45925
 Alpha  occ. eigenvalues --   -0.45723  -0.45108  -0.44948  -0.44765  -0.44508
 Alpha  occ. eigenvalues --   -0.44385  -0.44095  -0.43907  -0.43760  -0.43580
 Alpha  occ. eigenvalues --   -0.43310  -0.43224  -0.42798  -0.42511  -0.42431
 Alpha  occ. eigenvalues --   -0.42270  -0.41765  -0.41678  -0.41457  -0.41325
 Alpha  occ. eigenvalues --   -0.41009  -0.40694  -0.40468  -0.40312  -0.40203
 Alpha  occ. eigenvalues --   -0.39994  -0.39764  -0.39754  -0.39561  -0.39467
 Alpha  occ. eigenvalues --   -0.39412  -0.39209  -0.39161  -0.38756  -0.38712
 Alpha  occ. eigenvalues --   -0.38308  -0.37996  -0.37878  -0.37785  -0.37505
 Alpha  occ. eigenvalues --   -0.37440  -0.37163  -0.37002  -0.36934  -0.36537
 Alpha  occ. eigenvalues --   -0.36496  -0.36190  -0.36021  -0.35732  -0.35631
 Alpha  occ. eigenvalues --   -0.35596  -0.35315  -0.35270  -0.34948  -0.34837
 Alpha  occ. eigenvalues --   -0.34693  -0.34503  -0.34338  -0.34227  -0.34205
 Alpha  occ. eigenvalues --   -0.33869  -0.33217  -0.32968  -0.32893  -0.32715
 Alpha  occ. eigenvalues --   -0.32528  -0.32473  -0.32453  -0.31799  -0.31436
 Alpha  occ. eigenvalues --   -0.31356  -0.31215  -0.31125  -0.30500  -0.29741
 Alpha  occ. eigenvalues --   -0.29624  -0.28690  -0.28511  -0.28447  -0.27886
 Alpha  occ. eigenvalues --   -0.27755  -0.27557  -0.27153  -0.26563  -0.26082
 Alpha  occ. eigenvalues --   -0.25476  -0.24146  -0.24027  -0.22881  -0.21474
 Alpha  occ. eigenvalues --   -0.18519
 Alpha virt. eigenvalues --   -0.11420  -0.08326  -0.05643  -0.03277  -0.01397
 Alpha virt. eigenvalues --   -0.01068   0.00092   0.00363   0.01523   0.02297
 Alpha virt. eigenvalues --    0.02548   0.03017   0.03150   0.03413   0.03863

 Mulliken charges:
               1
     1  C   -0.012005
     2  C   -0.058540
     3  C   -0.107622
     4  C   -0.108278
     5  N   -0.222111
     6  C   -0.103436
     7  C    0.189903
     8  C   -0.176060
     9  C    0.069579
    10  C    0.078193
    11  C    0.171916
    12  C    0.020256
    13  C    0.145854
    14  O   -0.178865
    15  O   -0.309548
    16  N   -0.142338
    17  C    0.098073
    18  C   -0.037188
    19  C    0.086927
    20  C    0.138740
    21  C   -0.108269
    22  C   -0.144996
    23  C   -0.053805
    24  N   -0.265733
    25  C    0.071241
    26  C   -0.145646
    27  C   -0.073209
    28  C    0.132081
    29  C    0.016284
    30  C    0.111081
    31  C   -0.073456
    32  N   -0.110994
    33  C    0.068907
    34  C   -0.130807
    35  C    0.068428
    36  C    0.086580
    37  C    0.115375
    38  C    0.048468
    39  O   -0.242903
    40  C   -0.038699
    41  C    0.201445
    42  O   -0.190696
    43  O   -0.323941
    44  C    0.061423
    45  C    0.258882
    46  C   -0.077283
    47  C   -0.156394
    48  C    0.034080
    49  C   -0.013481
    50  C    0.064962
    51  C   -0.037091
    52  C   -0.051286
    53  C   -0.002871
    54  C    0.012666
    55  C    0.018630
    56  C   -0.013670
    57  C   -0.072285
    58  C    0.000657
    59  C    0.115844
    60  C    0.001506
    61  C    0.028857
    62  C   -0.150841
    63  C    0.046748
    64  C    0.005850
    65  H   -0.044686
    66  H   -0.043437
    67  H   -0.006756
    68  H   -0.055435
    69  H    0.030187
    70  H    0.017909
    71  H    0.037020
    72  H   -0.002837
    73  H    0.007916
    74  H   -0.030338
    75  H   -0.000799
    76  H    0.020100
    77  H    0.072422
    78  H    0.045746
    79  H    0.051652
    80  H    0.054491
    81  H    0.066296
    82  H    0.036557
    83  H    0.040449
    84  H    0.058648
    85  H    0.020080
    86  H    0.051081
    87  H   -0.024757
    88  H    0.042796
    89  H    0.004897
    90  H    0.015309
    91  H    0.007175
    92  H    0.004693
    93  H    0.041581
    94  H    0.053293
    95  H    0.052756
    96  H    0.032318
    97  H    0.061184
    98  H    0.031404
    99  H    0.017456
   100  H   -0.010148
   101  H    0.001275
   102  H    0.044932
   103  H    0.051230
   104  H    0.023285
   105  H    0.023856
   106  H   -0.014146
   107  H    0.009395
   108  H    0.006956
   109  H    0.013576
   110  H    0.012015
   111  H    0.025417
   112  H    0.026977
   113  H   -0.013048
   114  H   -0.035631
   115  H   -0.004469
   116  H    0.009778
   117  H    0.006863
   118  H   -0.009100
   119  H    0.013687
   120  H    0.007722
   121  H   -0.016968
   122  H    0.018612
   123  H   -0.002598
   124  H   -0.051880
   125  H   -0.011550
   126  H    0.010287
   127  H   -0.000238
   128  H    0.005469
   129  H   -0.006472
   130  H    0.011004
   131  H   -0.021534
   132  H    0.020252
   133  H    0.029584
   134  H   -0.000041
   135  H    0.011096
   136  H    0.030847
   137  H    0.176969
   138  H    0.205274
 Sum of Mulliken charges =   0.00000

 Dipole moment (field-independent basis, Debye):
    X=              1.9857    Y=              7.0859    Z=             -0.6679  Tot=              7.3891
 Quadrupole moment (field-independent basis, Debye-Ang):
   XX=           -339.9466   YY=           -401.2381   ZZ=           -404.2917
   XY=            -34.7950   XZ=             11.4458   YZ=              3.9445

 Normal termination of Gaussian 09 at Sun Aug  4 08:46:42 2019.
