 Gaussian 09, Revision D.01,
 Gaussian 09:  ES64L-G09RevD.01 24-Apr-2013

 --------------------------
 # td=(NStates=1) B3LYP/SVP
 --------------------------

 --
 TD
 --
 Symbolic Z-matrix:
 Charge =  0 Multiplicity = 1

                         Standard orientation:
 ---------------------------------------------------------------------
 Center     Atomic      Atomic             Coordinates (Angstroms)
 Number     Number       Type             X           Y           Z
 ---------------------------------------------------------------------
      1          6           0       -5.100789   -1.960087    0.445423
      2          6           0       -4.848589    2.833161    1.217617
      3          6           0       -9.418302    3.201107   -0.122160
      4          6           0       -9.830671   -1.451647   -0.902414
      5          7           0       -5.272592    0.397702    0.781777
      6          6           0       -4.493125   -0.783112    0.810040
      7          6           0       -3.084561   -0.549734    1.247614
      8          6           0       -3.115168    0.947112    1.793452
      9          6           0       -4.509761    1.438633    1.254250
     10          6           0       -3.074278    1.040563    3.239294
     11          6           0       -2.051939   -0.750585   -0.011336
     12          6           0       -0.608940   -0.784774    0.518388
     13          6           0        0.473470   -0.861316   -0.572448
     14          8           0        0.117291   -1.089255   -1.752012
     15          8           0        1.715563   -0.717696   -0.158583
     16          7           0       -7.089235    2.680817    0.273102
     17          6           0       -6.076830    3.347064    0.873696
     18          6           0       -6.461467    4.753628    1.051998
     19          6           0       -7.694864    4.906245    0.559329
     20          6           0       -8.210054    3.616851    0.174456
     21          6           0       -5.463031    5.838447    1.535701
     22          6           0       -8.346971    6.193889    0.494762
     23          6           0       -9.066193    6.506305   -0.721244
     24          7           0       -9.237668    0.880366   -0.362874
     25          6           0       -9.963996    1.942914   -0.414412
     26          6           0      -11.305979    1.763195   -0.778555
     27          6           0      -11.465519    0.425802   -1.017369
     28          6           0      -10.154169   -0.109937   -0.759811
     29          6           0      -12.394333    2.871834   -1.170852
     30          6           0      -12.701731   -0.381105   -1.590874
     31          6           0      -12.741654   -0.585059   -3.131611
     32          7           0       -7.469489   -1.311412   -0.148973
     33          6           0       -8.641490   -2.078760   -0.492057
     34          6           0       -8.172377   -3.452351   -0.628233
     35          6           0       -6.768295   -3.396285   -0.150264
     36          6           0       -6.383471   -2.128246    0.042009
     37          6           0       -8.881666   -4.672083   -1.033172
     38          6           0       -5.722045   -4.389259    0.054857
     39          8           0       -5.708003   -5.590977   -0.112201
     40          6           0       -4.558092   -3.361715    0.452730
     41          6           0       -4.005845   -3.727416    1.783342
     42          8           0       -4.247404   -3.298714    2.804744
     43          8           0       -2.974029   -4.721522    1.544762
     44          6           0       -2.451573   -5.207997    2.779056
     45          6           0        2.714246   -0.895954   -1.257961
     46          6           0        4.057790   -0.641811   -0.662841
     47          6           0        5.074380    0.170028   -1.095939
     48          6           0        4.926042    1.020883   -2.364491
     49          6           0        6.341152    0.197723   -0.371222
     50          6           0        7.530017   -0.493846   -1.088679
     51          6           0        8.868069    0.007294   -0.437313
     52          6           0       10.100983   -0.616441   -0.937265
     53          6           0        9.999729   -2.231297   -0.907068
     54          6           0       11.354964   -0.162059   -0.124912
     55          6           0       12.731595   -0.660783   -0.625227
     56          6           0       13.959811   -0.119804    0.147000
     57          6           0       15.318856   -0.316774   -0.264471
     58          6           0       15.631821   -1.890721   -0.089345
     59          6           0       16.398521    0.576602    0.315577
     60          6           0       17.889279    0.531837   -0.059929
     61          6           0       18.642910    1.684039    0.510484
     62          6           0       20.214953    1.592607    0.194831
     63          6           0       20.491357    1.999517   -1.130185
     64          6           0       20.962529    2.562822    1.291603
     65          1           0       -4.118420    3.324972    1.873420
     66          1           0      -10.047623    4.003969   -0.091964
     67          1           0      -10.662602   -2.044495   -1.224660
     68          1           0       -2.794707   -1.333344    2.067119
     69          1           0       -2.442343    1.551965    1.191836
     70          1           0       -2.107576    0.721791    3.613468
     71          1           0       -3.361965    1.952882    3.572994
     72          1           0       -3.892803    0.264234    3.667191
     73          1           0       -2.238421   -1.525830   -0.704847
     74          1           0       -2.280750    0.060412   -0.872002
     75          1           0       -0.157713    0.007088    1.072918
     76          1           0       -0.232155   -1.689410    1.179905
     77          1           0       -4.919085    6.171645    0.517970
     78          1           0       -5.978183    6.823597    2.086633
     79          1           0       -4.743390    5.499151    2.428974
     80          1           0       -8.052625    6.826343    1.207449
     81          1           0       -9.092884    6.019004   -1.661061
     82          1           0       -9.314209    7.502277   -0.750137
     83          1           0      -12.818750    3.461111   -0.090236
     84          1           0      -11.977735    3.439116   -1.976421
     85          1           0      -13.423404    2.487070   -1.624331
     86          1           0      -12.561439   -1.118858   -0.967235
     87          1           0      -13.664034    0.071924   -1.232598
     88          1           0      -12.825908    0.484450   -3.676302
     89          1           0      -11.884961   -1.166217   -3.540244
     90          1           0      -13.559037   -1.073300   -3.558966
     91          1           0       -9.745801   -4.682586   -0.242203
     92          1           0       -9.533815   -4.550250   -2.056824
     93          1           0       -8.387944   -5.525963   -1.077015
     94          1           0       -3.872960   -3.476111   -0.284058
     95          1           0       -1.961505   -6.149641    2.360202
     96          1           0       -1.708208   -4.389542    3.260146
     97          1           0       -3.176039   -5.361313    3.685997
     98          1           0        2.681769   -1.795676   -1.659845
     99          1           0        2.236778   -0.162280   -2.054284
    100          1           0        4.443845   -1.177923    0.291831
    101          1           0        5.408553    2.156339   -2.289603
    102          1           0        5.403603    0.626009   -3.233399
    103          1           0        3.971390    1.285548   -2.578715
    104          1           0        6.780069    1.325547   -0.390847
    105          1           0        6.101116    0.076686    0.641092
    106          1           0        7.336802   -1.579091   -1.160733
    107          1           0        7.407735   -0.263387   -2.153490
    108          1           0        9.125149    1.078773   -0.672525
    109          1           0        8.670784   -0.135894    0.776349
    110          1           0       10.252225   -0.522881   -2.023177
    111          1           0        9.140143   -2.473310   -1.564030
    112          1           0       10.986381   -2.627329   -1.387407
    113          1           0        9.958599   -2.638330   -0.083106
    114          1           0       11.164181    1.039731   -0.239438
    115          1           0       11.205731   -0.459818    1.059522
    116          1           0       12.821234   -1.788965   -0.448401
    117          1           0       12.986723   -0.265893   -1.528430
    118          1           0       13.510882    0.987852    0.285404
    119          1           0       13.811862   -0.394255    1.319662
    120          1           0       15.425903   -0.263351   -1.496045
    121          1           0       15.026546   -2.613459   -0.681253
    122          1           0       16.770940   -2.122879   -0.497247
    123          1           0       15.599834   -2.375225    0.836665
    124          1           0       16.110616    1.596162    0.448383
    125          1           0       16.338542    0.329860    1.398327
    126          1           0       18.333747   -0.534927   -0.050662
    127          1           0       17.685570    0.840487   -1.331921
    128          1           0       18.446051    2.629802    0.277150
    129          1           0       18.661013    1.568336    1.658465
    130          1           0       20.567486    0.697884    0.377173
    131          1           0       20.392717    3.163760   -1.244307
    132          1           0       21.529819    2.107674   -1.483922
    133          1           0       19.922273    1.544303   -1.898345
    134          1           0       20.527562    2.012117    2.321696
    135          1           0       22.029167    2.717581    1.088665
    136          1           0       20.363018    3.587766    1.060935
    137          1           0       -7.261045    1.616102    0.395027
    138          1           0       -7.569012   -0.421453    0.101653
 ---------------------------------------------------------------------

 SCF Done:  E(RB3LYP) =  -2732.93064034     A.U. after   17 cycles

 Excitation energies and oscillator strengths:

 Excited State   1:      Singlet-A      2.2122 eV  560.45 nm  f=0.1165  <S**2>=0.000
     235 -> 237       -0.10433
     235 -> 238        0.34282
     236 -> 237        0.60093
 This state for optimization and/or second-order correction.
 Total Energy, E(TD-HF/TD-KS) =  -2732.84934292
 Copying the excited state density for this state as the 1-particle RhoCI density.

 The electronic state is 1-A.
 Alpha  occ. eigenvalues --  -19.18602 -19.15544 -19.13932 -19.12301 -19.11096
 Alpha  occ. eigenvalues --  -14.36163 -14.35259 -14.32022 -14.29594 -10.31000
 Alpha  occ. eigenvalues --  -10.30679 -10.27539 -10.25438 -10.24611 -10.24094
 Alpha  occ. eigenvalues --  -10.23704 -10.23279 -10.23162 -10.23016 -10.22801
 Alpha  occ. eigenvalues --  -10.21973 -10.21863 -10.21606 -10.21525 -10.21479
 Alpha  occ. eigenvalues --  -10.21080 -10.21071 -10.21035 -10.20988 -10.20954
 Alpha  occ. eigenvalues --  -10.20765 -10.20617 -10.20593 -10.20592 -10.20413
 Alpha  occ. eigenvalues --  -10.20403 -10.20386 -10.20383 -10.20335 -10.20115
 Alpha  occ. eigenvalues --  -10.20024 -10.19877 -10.19712 -10.19584 -10.19444
 Alpha  occ. eigenvalues --  -10.19428 -10.19321 -10.19320 -10.19232 -10.19150
 Alpha  occ. eigenvalues --  -10.18942 -10.18927 -10.18853 -10.18737 -10.18614
 Alpha  occ. eigenvalues --  -10.18419 -10.18264 -10.18202 -10.18179 -10.17753
 Alpha  occ. eigenvalues --  -10.17674 -10.17658 -10.17035 -10.16490  -1.10578
 Alpha  occ. eigenvalues --   -1.09346  -1.02391  -1.00814  -0.98265  -0.97061
 Alpha  occ. eigenvalues --   -0.96750  -0.94967  -0.92192  -0.85998  -0.82973
 Alpha  occ. eigenvalues --   -0.82896  -0.82302  -0.81306  -0.81269  -0.80395
 Alpha  occ. eigenvalues --   -0.80026  -0.79524  -0.79268  -0.78452  -0.77864
 Alpha  occ. eigenvalues --   -0.76822  -0.76134  -0.75387  -0.75107  -0.74202
 Alpha  occ. eigenvalues --   -0.73521  -0.73258  -0.72624  -0.71895  -0.70515
 Alpha  occ. eigenvalues --   -0.69722  -0.68676  -0.68500  -0.67647  -0.67534
 Alpha  occ. eigenvalues --   -0.67117  -0.66229  -0.66163  -0.65490  -0.65301
 Alpha  occ. eigenvalues --   -0.64436  -0.63790  -0.63491  -0.63253  -0.61709
 Alpha  occ. eigenvalues --   -0.61543  -0.59542  -0.58724  -0.57895  -0.57179
 Alpha  occ. eigenvalues --   -0.57011  -0.56640  -0.56373  -0.55630  -0.55349
 Alpha  occ. eigenvalues --   -0.54973  -0.54524  -0.54185  -0.53918  -0.52721
 Alpha  occ. eigenvalues --   -0.52568  -0.52298  -0.51826  -0.51390  -0.50421
 Alpha  occ. eigenvalues --   -0.49847  -0.49018  -0.48646  -0.48120  -0.47910
 Alpha  occ. eigenvalues --   -0.47833  -0.47540  -0.47448  -0.47281  -0.46866
 Alpha  occ. eigenvalues --   -0.46640  -0.46523  -0.46347  -0.46088  -0.45805
 Alpha  occ. eigenvalues --   -0.45503  -0.44899  -0.44798  -0.44470  -0.44394
 Alpha  occ. eigenvalues --   -0.44260  -0.44152  -0.44014  -0.43727  -0.43504
 Alpha  occ. eigenvalues --   -0.43291  -0.43277  -0.42885  -0.42754  -0.42544
 Alpha  occ. eigenvalues --   -0.42390  -0.42113  -0.42029  -0.41879  -0.41759
 Alpha  occ. eigenvalues --   -0.41565  -0.41118  -0.41037  -0.40783  -0.40589
 Alpha  occ. eigenvalues --   -0.40220  -0.40042  -0.39849  -0.39788  -0.39421
 Alpha  occ. eigenvalues --   -0.39225  -0.39174  -0.38966  -0.38717  -0.38432
 Alpha  occ. eigenvalues --   -0.38339  -0.38268  -0.37961  -0.37826  -0.37754
 Alpha  occ. eigenvalues --   -0.37583  -0.37480  -0.37168  -0.36919  -0.36686
 Alpha  occ. eigenvalues --   -0.36120  -0.36022  -0.35942  -0.35848  -0.35747
 Alpha  occ. eigenvalues --   -0.35498  -0.35194  -0.35183  -0.34965  -0.34866
 Alpha  occ. eigenvalues --   -0.34784  -0.34583  -0.34244  -0.33797  -0.33619
 Alpha  occ. eigenvalues --   -0.33484  -0.33259  -0.33257  -0.33112  -0.32693
 Alpha  occ. eigenvalues --   -0.32489  -0.31918  -0.31781  -0.31629  -0.31028
 Alpha  occ. eigenvalues --   -0.30785  -0.30473  -0.30186  -0.29690  -0.29160
 Alpha  occ. eigenvalues --   -0.28983  -0.28563  -0.28440  -0.28235  -0.28136
 Alpha  occ. eigenvalues --   -0.27729  -0.26735  -0.26435  -0.26096  -0.24902
 Alpha  occ. eigenvalues --   -0.24870  -0.24409  -0.24236  -0.23136  -0.19991
 Alpha  occ. eigenvalues --   -0.19135
 Alpha virt. eigenvalues --   -0.09609  -0.07904  -0.04719  -0.03051  -0.00869
 Alpha virt. eigenvalues --    0.00603   0.00933   0.01414   0.02103   0.03657
 Alpha virt. eigenvalues --    0.03887   0.03935   0.04014   0.04055   0.04530

 Mulliken charges:
               1
     1  C    0.024087
     2  C   -0.058434
     3  C   -0.064279
     4  C   -0.047257
     5  N   -0.227732
     6  C   -0.081078
     7  C   -0.080677
     8  C    0.008689
     9  C   -0.087765
    10  C    0.132973
    11  C    0.056186
    12  C    0.065459
    13  C    0.140320
    14  O   -0.301999
    15  O   -0.305120
    16  N   -0.138276
    17  C    0.142896
    18  C   -0.103906
    19  C    0.064723
    20  C    0.088192
    21  C   -0.035269
    22  C   -0.005012
    23  C    0.012149
    24  N   -0.196619
    25  C    0.078134
    26  C   -0.126178
    27  C   -0.105208
    28  C    0.028050
    29  C    0.002756
    30  C    0.151650
    31  C    0.014002
    32  N   -0.018251
    33  C    0.086444
    34  C   -0.107104
    35  C   -0.065376
    36  C    0.147778
    37  C    0.101401
    38  C    0.063082
    39  O   -0.158115
    40  C    0.006563
    41  C    0.187821
    42  O   -0.122917
    43  O   -0.365716
    44  C    0.112715
    45  C    0.311867
    46  C   -0.091229
    47  C   -0.180394
    48  C    0.083550
    49  C    0.058600
    50  C    0.048871
    51  C    0.023571
    52  C   -0.079123
    53  C    0.067894
    54  C   -0.062963
    55  C    0.114186
    56  C   -0.082424
    57  C    0.002115
    58  C   -0.029212
    59  C    0.079471
    60  C   -0.032418
    61  C    0.067753
    62  C   -0.031117
    63  C    0.056579
    64  C   -0.065936
    65  H   -0.025749
    66  H   -0.084735
    67  H   -0.033531
    68  H    0.041195
    69  H   -0.003703
    70  H    0.014450
    71  H   -0.020792
    72  H    0.035368
    73  H    0.009876
    74  H    0.027854
    75  H    0.004740
    76  H    0.045831
    77  H    0.073187
    78  H    0.043727
    79  H    0.056609
    80  H   -0.040418
    81  H    0.041168
    82  H    0.007982
    83  H    0.045276
    84  H    0.031143
    85  H    0.028682
    86  H   -0.039288
    87  H   -0.001735
    88  H    0.023358
    89  H    0.018034
    90  H   -0.000635
    91  H    0.043597
    92  H    0.035773
    93  H   -0.000389
    94  H    0.008560
    95  H    0.053426
    96  H    0.020082
    97  H    0.045766
    98  H   -0.004222
    99  H    0.056621
   100  H    0.009858
   101  H    0.012803
   102  H    0.024134
   103  H   -0.017405
   104  H    0.002344
   105  H   -0.009419
   106  H    0.003116
   107  H   -0.016078
   108  H    0.010630
   109  H    0.026105
   110  H   -0.005383
   111  H    0.012432
   112  H    0.009727
   113  H   -0.063989
   114  H    0.009051
   115  H    0.021181
   116  H    0.023968
   117  H   -0.025326
   118  H   -0.007178
   119  H   -0.005895
   120  H    0.003078
   121  H    0.013099
   122  H    0.012125
   123  H   -0.007578
   124  H   -0.023211
   125  H   -0.027249
   126  H    0.034037
   127  H    0.002377
   128  H   -0.034518
   129  H   -0.003933
   130  H   -0.048647
   131  H   -0.021788
   132  H   -0.009182
   133  H    0.003025
   134  H    0.042431
   135  H    0.029447
   136  H    0.023613
   137  H    0.202759
   138  H    0.064911
 Sum of Mulliken charges =   0.00000

 Dipole moment (field-independent basis, Debye):
    X=              1.7232    Y=              5.4740    Z=              0.5104  Tot=              5.7615
 Quadrupole moment (field-independent basis, Debye-Ang):
   XX=           -340.1932   YY=           -386.3139   ZZ=           -392.0260
   XY=            -32.1466   XZ=              6.7001   YZ=              0.3761

 Normal termination of Gaussian 09 at Thu Aug  1 10:37:12 2019.
