 Gaussian 09, Revision D.01,
 Gaussian 09:  ES64L-G09RevD.01 24-Apr-2013

 --------------------------
 # td=(NStates=1) B3LYP/SVP
 --------------------------

 --
 TD
 --
 Symbolic Z-matrix:
 Charge =  0 Multiplicity = 1

                         Standard orientation:
 ---------------------------------------------------------------------
 Center     Atomic      Atomic             Coordinates (Angstroms)
 Number     Number       Type             X           Y           Z
 ---------------------------------------------------------------------
      1          6           0       -5.120055   -2.033805    0.418592
      2          6           0       -4.867840    2.670804    1.374885
      3          6           0       -9.369132    3.388139   -0.145088
      4          6           0       -9.786998   -1.468081   -0.896169
      5          7           0       -5.237710    0.411177    0.740605
      6          6           0       -4.526514   -0.834369    0.842728
      7          6           0       -3.087369   -0.631458    1.258778
      8          6           0       -3.109432    0.841177    1.775630
      9          6           0       -4.419914    1.369524    1.128588
     10          6           0       -2.842621    1.098881    3.242168
     11          6           0       -2.043863   -0.883304   -0.005668
     12          6           0       -0.532418   -0.762828    0.421585
     13          6           0        0.403820   -0.964438   -0.753140
     14          8           0        0.075817   -1.644139   -1.741323
     15          8           0        1.601804   -0.636851   -0.368246
     16          7           0       -7.114316    2.760103    0.492531
     17          6           0       -6.013425    3.340899    0.994147
     18          6           0       -6.234750    4.753144    1.000479
     19          6           0       -7.503582    4.942787    0.579856
     20          6           0       -8.103818    3.665307    0.258192
     21          6           0       -5.285821    5.822118    1.365982
     22          6           0       -8.241053    6.242274    0.430185
     23          6           0       -9.188954    6.571032   -0.508925
     24          7           0       -9.214937    0.946518   -0.474705
     25          6           0       -9.983969    2.098617   -0.436514
     26          6           0      -11.238755    1.854043   -0.934830
     27          6           0      -11.468378    0.479931   -1.077254
     28          6           0      -10.145941   -0.039138   -0.877953
     29          6           0      -12.293734    2.868308   -1.009038
     30          6           0      -12.665271   -0.193005   -1.590090
     31          6           0      -12.715093   -0.497383   -3.134129
     32          7           0       -7.430373   -1.225161   -0.120298
     33          6           0       -8.577420   -2.010054   -0.496069
     34          6           0       -8.276084   -3.466267   -0.478134
     35          6           0       -6.887486   -3.483052   -0.230414
     36          6           0       -6.401228   -2.156302    0.118357
     37          6           0       -9.069051   -4.542754   -1.031547
     38          6           0       -5.743279   -4.311745   -0.025105
     39          8           0       -5.640768   -5.493845   -0.024985
     40          6           0       -4.537070   -3.335427    0.466207
     41          6           0       -3.884319   -3.811811    1.784284
     42          8           0       -4.193153   -3.371122    2.891063
     43          8           0       -3.078788   -4.874475    1.609221
     44          6           0       -2.490398   -5.530346    2.679756
     45          6           0        2.722516   -0.855978   -1.316623
     46          6           0        4.025654   -0.675528   -0.646236
     47          6           0        5.022103    0.221817   -1.082686
     48          6           0        5.006797    1.223442   -2.237263
     49          6           0        6.229891    0.305882   -0.258070
     50          6           0        7.514721   -0.188739   -0.888757
     51          6           0        8.775762   -0.211689   -0.114843
     52          6           0        9.976776   -0.666383   -0.931840
     53          6           0        9.986766   -2.132677   -1.314884
     54          6           0       11.237272   -0.385080    0.046076
     55          6           0       12.622054   -0.685177   -0.561202
     56          6           0       13.800819   -0.120017    0.227897
     57          6           0       15.202729   -0.134556   -0.447151
     58          6           0       15.716729   -1.599462   -0.681622
     59          6           0       16.327627    0.581075    0.419091
     60          6           0       17.692938    0.746570   -0.332923
     61          6           0       18.765328    1.332256    0.801103
     62          6           0       20.197406    1.504155    0.272484
     63          6           0       20.277915    2.208431   -1.073246
     64          6           0       20.978513    2.306896    1.339654
     65          1           0       -4.085467    3.226103    1.851929
     66          1           0       -9.881527    4.200215   -0.285816
     67          1           0      -10.753599   -2.264867   -0.946369
     68          1           0       -3.080909   -1.389318    2.074151
     69          1           0       -2.323976    1.380037    1.244672
     70          1           0       -1.795036    0.586303    3.496575
     71          1           0       -2.819562    2.142836    3.461049
     72          1           0       -3.503123    0.438087    3.732327
     73          1           0       -2.088558   -1.871091   -0.330820
     74          1           0       -2.122431   -0.199559   -0.649953
     75          1           0       -0.320648    0.348226    0.634307
     76          1           0       -0.215924   -1.485797    1.219284
     77          1           0       -4.135042    5.822336    0.724590
     78          1           0       -5.517415    6.980666    1.148809
     79          1           0       -4.742366    5.950588    2.357352
     80          1           0       -7.872944    6.858452    1.042267
     81          1           0       -9.574594    6.011796   -1.327875
     82          1           0       -9.585883    7.589659   -0.551609
     83          1           0      -12.369493    3.579243   -0.140334
     84          1           0      -11.904421    3.531041   -1.810740
     85          1           0      -13.265598    2.404118   -1.103640
     86          1           0      -12.842332   -1.158518   -1.146987
     87          1           0      -13.633263    0.024286   -1.355134
     88          1           0      -12.743838    0.304648   -3.752507
     89          1           0      -11.674154   -0.748945   -3.530367
     90          1           0      -13.478779   -1.191147   -3.527468
     91          1           0      -10.127714   -4.736406   -0.454482
     92          1           0       -9.485260   -4.311629   -1.958228
     93          1           0       -8.625268   -5.489245   -0.695041
     94          1           0       -3.537099   -3.703615   -0.238534
     95          1           0       -1.665961   -6.160418    2.132474
     96          1           0       -2.186469   -4.805024    3.500685
     97          1           0       -3.286600   -6.194830    3.072335
     98          1           0        2.663616   -1.891281   -1.742920
     99          1           0        2.457853   -0.161226   -2.184321
    100          1           0        4.475645   -1.388641    0.082977
    101          1           0        5.034584    2.427277   -1.837167
    102          1           0        5.973089    1.056097   -2.844806
    103          1           0        3.893418    1.078864   -2.824418
    104          1           0        6.400652    1.322483    0.276579
    105          1           0        6.013127   -0.264126    0.571337
    106          1           0        7.310256   -1.286378   -1.382620
    107          1           0        7.734552    0.586336   -1.842302
    108          1           0        8.918703    0.846587    0.278455
    109          1           0        8.755300   -0.846870    0.771878
    110          1           0       10.032968   -0.187021   -1.919447
    111          1           0        9.014220   -2.394240   -1.791575
    112          1           0       10.778988   -2.346879   -2.132873
    113          1           0        9.926559   -2.983076   -0.533884
    114          1           0       11.218825    0.656035    0.146085
    115          1           0       11.158967   -1.030358    0.980585
    116          1           0       12.686663   -1.747033   -0.648534
    117          1           0       12.477168   -0.344191   -1.568599
    118          1           0       13.617389    0.982770    0.432030
    119          1           0       13.990834   -0.576135    1.238272
    120          1           0       15.180433    0.336246   -1.415479
    121          1           0       15.034483   -2.180564   -1.335053
    122          1           0       16.743658   -1.685288   -1.109372
    123          1           0       15.512373   -2.094544    0.318403
    124          1           0       15.844678    1.594653    0.601981
    125          1           0       16.593251    0.157582    1.425948
    126          1           0       18.105949   -0.198268   -0.830413
    127          1           0       17.688889    1.433215   -1.195688
    128          1           0       18.401785    2.336010    1.146087
    129          1           0       18.563269    0.868363    1.793059
    130          1           0       20.858621    0.591204    0.305321
    131          1           0       19.822322    3.290471   -0.883438
    132          1           0       21.398734    2.551793   -1.186657
    133          1           0       19.980729    1.671848   -1.835142
    134          1           0       21.022416    1.694948    2.193756
    135          1           0       22.107109    2.697911    1.034669
    136          1           0       20.271989    3.186129    1.506014
    137          1           0       -7.025246    1.752838    0.145854
    138          1           0       -7.506087   -0.226698    0.139986
 ---------------------------------------------------------------------

 SCF Done:  E(RB3LYP) =  -2733.07127719     A.U. after   17 cycles

 Excitation energies and oscillator strengths:

 Excited State   1:      Singlet-A      2.0304 eV  610.63 nm  f=0.0795  <S**2>=0.000
     235 -> 237       -0.14245
     235 -> 238       -0.38052
     236 -> 237        0.55539
     236 -> 238       -0.14495
 This state for optimization and/or second-order correction.
 Total Energy, E(TD-HF/TD-KS) =  -2732.99666046
 Copying the excited state density for this state as the 1-particle RhoCI density.

 The electronic state is 1-A.
 Alpha  occ. eigenvalues --  -19.18652 -19.17843 -19.12117 -19.11856 -19.11649
 Alpha  occ. eigenvalues --  -14.36726 -14.36538 -14.32342 -14.29022 -10.31811
 Alpha  occ. eigenvalues --  -10.31083 -10.27351 -10.26435 -10.25430 -10.23625
 Alpha  occ. eigenvalues --  -10.23555 -10.23406 -10.23242 -10.23173 -10.22762
 Alpha  occ. eigenvalues --  -10.22657 -10.22457 -10.22430 -10.21813 -10.21793
 Alpha  occ. eigenvalues --  -10.21533 -10.21190 -10.21007 -10.20683 -10.20648
 Alpha  occ. eigenvalues --  -10.20552 -10.20464 -10.20346 -10.20253 -10.20214
 Alpha  occ. eigenvalues --  -10.20144 -10.20005 -10.19964 -10.19823 -10.19416
 Alpha  occ. eigenvalues --  -10.19282 -10.19188 -10.19158 -10.19139 -10.19074
 Alpha  occ. eigenvalues --  -10.19068 -10.19049 -10.19033 -10.19016 -10.19003
 Alpha  occ. eigenvalues --  -10.18991 -10.18670 -10.18531 -10.18447 -10.18351
 Alpha  occ. eigenvalues --  -10.18296 -10.18179 -10.18164 -10.17841 -10.17816
 Alpha  occ. eigenvalues --  -10.17658 -10.17633 -10.17197 -10.16975  -1.10057
 Alpha  occ. eigenvalues --   -1.09839  -1.03918  -1.00088  -0.99191  -0.99158
 Alpha  occ. eigenvalues --   -0.95812  -0.93443  -0.91664  -0.85940  -0.83650
 Alpha  occ. eigenvalues --   -0.82241  -0.81795  -0.81255  -0.80716  -0.80565
 Alpha  occ. eigenvalues --   -0.80227  -0.79586  -0.78788  -0.78182  -0.78016
 Alpha  occ. eigenvalues --   -0.76728  -0.76177  -0.75590  -0.75265  -0.74769
 Alpha  occ. eigenvalues --   -0.73656  -0.73280  -0.72844  -0.71436  -0.70798
 Alpha  occ. eigenvalues --   -0.69752  -0.68786  -0.68390  -0.68258  -0.67669
 Alpha  occ. eigenvalues --   -0.66940  -0.66579  -0.66124  -0.65787  -0.65225
 Alpha  occ. eigenvalues --   -0.64156  -0.63464  -0.63147  -0.63004  -0.61265
 Alpha  occ. eigenvalues --   -0.61211  -0.58814  -0.58540  -0.58075  -0.57500
 Alpha  occ. eigenvalues --   -0.56890  -0.56475  -0.56096  -0.56024  -0.55804
 Alpha  occ. eigenvalues --   -0.55411  -0.54810  -0.54483  -0.54351  -0.52841
 Alpha  occ. eigenvalues --   -0.52657  -0.51594  -0.51388  -0.50726  -0.49887
 Alpha  occ. eigenvalues --   -0.49681  -0.49021  -0.48857  -0.48624  -0.48440
 Alpha  occ. eigenvalues --   -0.48181  -0.47866  -0.47648  -0.47449  -0.47201
 Alpha  occ. eigenvalues --   -0.47079  -0.46740  -0.46381  -0.46090  -0.45656
 Alpha  occ. eigenvalues --   -0.45486  -0.45371  -0.45315  -0.45161  -0.44994
 Alpha  occ. eigenvalues --   -0.44808  -0.44715  -0.44324  -0.43967  -0.43880
 Alpha  occ. eigenvalues --   -0.43673  -0.43457  -0.42818  -0.42690  -0.42614
 Alpha  occ. eigenvalues --   -0.42437  -0.42145  -0.42019  -0.41690  -0.41374
 Alpha  occ. eigenvalues --   -0.41149  -0.40945  -0.40379  -0.40192  -0.40040
 Alpha  occ. eigenvalues --   -0.40004  -0.39877  -0.39830  -0.39672  -0.39339
 Alpha  occ. eigenvalues --   -0.38826  -0.38617  -0.38486  -0.38267  -0.38180
 Alpha  occ. eigenvalues --   -0.37925  -0.37780  -0.37696  -0.37468  -0.37410
 Alpha  occ. eigenvalues --   -0.37291  -0.36993  -0.36711  -0.36550  -0.36475
 Alpha  occ. eigenvalues --   -0.36400  -0.36265  -0.35949  -0.35729  -0.35449
 Alpha  occ. eigenvalues --   -0.35274  -0.35133  -0.35070  -0.34903  -0.34663
 Alpha  occ. eigenvalues --   -0.34445  -0.34342  -0.34207  -0.34194  -0.34017
 Alpha  occ. eigenvalues --   -0.33596  -0.33488  -0.33178  -0.33118  -0.33039
 Alpha  occ. eigenvalues --   -0.32786  -0.31968  -0.31652  -0.31608  -0.31548
 Alpha  occ. eigenvalues --   -0.30680  -0.30628  -0.30571  -0.30434  -0.30346
 Alpha  occ. eigenvalues --   -0.29892  -0.29842  -0.28652  -0.28294  -0.27312
 Alpha  occ. eigenvalues --   -0.27017  -0.26934  -0.26265  -0.26043  -0.25536
 Alpha  occ. eigenvalues --   -0.24898  -0.24607  -0.24402  -0.21262  -0.19605
 Alpha  occ. eigenvalues --   -0.18755
 Alpha virt. eigenvalues --   -0.09683  -0.08695  -0.04704  -0.03027  -0.02186
 Alpha virt. eigenvalues --   -0.00876  -0.00438   0.00690   0.01527   0.02781
 Alpha virt. eigenvalues --    0.03836   0.04104   0.04322   0.04475   0.04786

 Mulliken charges:
               1
     1  C    0.136989
     2  C   -0.064888
     3  C    0.031137
     4  C   -0.120575
     5  N   -0.215607
     6  C   -0.095798
     7  C   -0.034941
     8  C   -0.026784
     9  C   -0.023757
    10  C    0.106126
    11  C    0.218882
    12  C   -0.032059
    13  C    0.162574
    14  O   -0.278518
    15  O   -0.285826
    16  N   -0.047190
    17  C    0.103805
    18  C    0.012012
    19  C    0.010855
    20  C    0.068283
    21  C   -0.089157
    22  C    0.073592
    23  C   -0.008307
    24  N   -0.288278
    25  C    0.087847
    26  C   -0.147108
    27  C   -0.042901
    28  C    0.031915
    29  C    0.115112
    30  C    0.125172
    31  C    0.014753
    32  N   -0.103715
    33  C    0.111974
    34  C   -0.126100
    35  C    0.017535
    36  C    0.064082
    37  C    0.115711
    38  C    0.056017
    39  O   -0.136867
    40  C   -0.182537
    41  C    0.198618
    42  O   -0.252718
    43  O   -0.275482
    44  C    0.142467
    45  C    0.246743
    46  C   -0.058959
    47  C   -0.157175
    48  C   -0.040171
    49  C    0.143127
    50  C   -0.088588
    51  C    0.084600
    52  C   -0.089961
    53  C   -0.019933
    54  C    0.034575
    55  C    0.081813
    56  C    0.034764
    57  C   -0.060207
    58  C    0.006848
    59  C    0.007251
    60  C   -0.005797
    61  C   -0.006351
    62  C   -0.083971
    63  C    0.069996
    64  C   -0.020326
    65  H   -0.050731
    66  H   -0.155237
    67  H    0.040970
    68  H    0.018310
    69  H   -0.020078
    70  H    0.019001
    71  H    0.020235
    72  H    0.014907
    73  H    0.004539
    74  H   -0.061084
    75  H    0.026693
    76  H    0.049789
    77  H    0.022670
    78  H    0.042194
    79  H    0.037791
    80  H   -0.086165
    81  H    0.028143
    82  H    0.025712
    83  H    0.016665
    84  H    0.012080
    85  H    0.008830
    86  H   -0.034697
    87  H   -0.041758
    88  H   -0.030166
    89  H   -0.002543
    90  H    0.012766
    91  H    0.014469
    92  H    0.026905
    93  H    0.045687
    94  H    0.086121
    95  H    0.055506
    96  H    0.045945
    97  H    0.035472
    98  H    0.041636
    99  H    0.033869
   100  H    0.013571
   101  H    0.052810
   102  H    0.058855
   103  H    0.040931
   104  H    0.011839
   105  H   -0.051005
   106  H    0.021335
   107  H    0.008511
   108  H   -0.004435
   109  H   -0.012333
   110  H   -0.009082
   111  H   -0.010082
   112  H    0.029913
   113  H    0.013406
   114  H   -0.021361
   115  H    0.010067
   116  H   -0.010428
   117  H   -0.024098
   118  H   -0.008947
   119  H   -0.000522
   120  H   -0.020064
   121  H   -0.000419
   122  H    0.022336
   123  H   -0.000416
   124  H    0.000930
   125  H    0.006883
   126  H    0.014635
   127  H    0.005696
   128  H   -0.015963
   129  H   -0.009987
   130  H    0.001082
   131  H    0.010249
   132  H    0.006253
   133  H   -0.009979
   134  H    0.001095
   135  H    0.029562
   136  H    0.004806
   137  H    0.178698
   138  H    0.156587
 Sum of Mulliken charges =   0.00000

 Dipole moment (field-independent basis, Debye):
    X=              4.1910    Y=              3.8768    Z=              0.5505  Tot=              5.7356
 Quadrupole moment (field-independent basis, Debye-Ang):
   XX=           -368.7832   YY=           -379.2408   ZZ=           -398.9731
   XY=            -18.6677   XZ=              5.7824   YZ=             -3.3698

 Normal termination of Gaussian 09 at Sat Aug  3 06:05:29 2019.
