 Gaussian 09, Revision D.01,
 Gaussian 09:  ES64L-G09RevD.01 24-Apr-2013

 --------------------------
 # td=(NStates=1) B3LYP/SVP
 --------------------------

 --
 TD
 --
 Symbolic Z-matrix:
 Charge =  0 Multiplicity = 1

                         Standard orientation:
 ---------------------------------------------------------------------
 Center     Atomic      Atomic             Coordinates (Angstroms)
 Number     Number       Type             X           Y           Z
 ---------------------------------------------------------------------
      1          6           0       -5.057750   -1.962252    0.371077
      2          6           0       -4.873403    2.695065    1.365287
      3          6           0       -9.453141    3.290134   -0.365450
      4          6           0       -9.910995   -1.588698   -0.862829
      5          7           0       -5.236818    0.420357    0.790368
      6          6           0       -4.524078   -0.718942    0.731230
      7          6           0       -3.063195   -0.458882    1.245974
      8          6           0       -3.093553    0.981822    1.698261
      9          6           0       -4.498988    1.430975    1.258173
     10          6           0       -3.018466    1.072983    3.255935
     11          6           0       -2.070558   -0.735963    0.191992
     12          6           0       -0.586433   -0.626171    0.617136
     13          6           0        0.325105   -0.885018   -0.478631
     14          8           0        0.028221   -1.318900   -1.646985
     15          8           0        1.623763   -0.685335   -0.213071
     16          7           0       -7.146468    2.743894    0.519190
     17          6           0       -6.004161    3.425154    0.948028
     18          6           0       -6.306765    4.771842    0.968084
     19          6           0       -7.576500    4.900307    0.515355
     20          6           0       -8.131328    3.586173    0.134530
     21          6           0       -5.433768    5.835387    1.505671
     22          6           0       -8.274167    6.195891    0.414165
     23          6           0       -9.033817    6.649919   -0.544943
     24          7           0       -9.174685    0.790147   -0.638441
     25          6           0       -9.882118    1.953613   -0.646640
     26          6           0      -11.205687    1.759742   -0.923521
     27          6           0      -11.403352    0.364240   -1.158191
     28          6           0      -10.155739   -0.198593   -0.859308
     29          6           0      -12.355000    2.804741   -1.037537
     30          6           0      -12.731651   -0.330313   -1.715391
     31          6           0      -12.567731   -0.624216   -3.207712
     32          7           0       -7.586693   -1.333485   -0.025936
     33          6           0       -8.601637   -2.090318   -0.477499
     34          6           0       -8.114266   -3.499032   -0.464657
     35          6           0       -6.828444   -3.370866   -0.144774
     36          6           0       -6.464059   -2.111388    0.122975
     37          6           0       -8.881986   -4.668171   -1.050546
     38          6           0       -5.737515   -4.363066    0.135181
     39          8           0       -5.541264   -5.545943    0.163134
     40          6           0       -4.440344   -3.343683    0.461376
     41          6           0       -3.912721   -3.770315    1.785538
     42          8           0       -4.084896   -3.244718    2.915507
     43          8           0       -3.014532   -4.725730    1.665302
     44          6           0       -2.344853   -5.234996    2.772264
     45          6           0        2.638602   -1.059387   -1.197937
     46          6           0        3.925319   -0.530220   -0.627479
     47          6           0        4.926260    0.095454   -1.217794
     48          6           0        4.871798    0.660472   -2.539921
     49          6           0        6.292820    0.351398   -0.341153
     50          6           0        7.442900   -0.184781   -1.132940
     51          6           0        8.764003   -0.113775   -0.300566
     52          6           0       10.104104   -0.634871   -0.949525
     53          6           0       10.088236   -2.151765   -1.112074
     54          6           0       11.279398   -0.176276   -0.134140
     55          6           0       12.727786   -0.594945   -0.599867
     56          6           0       13.944864   -0.094221    0.228931
     57          6           0       15.314523   -0.275459   -0.484600
     58          6           0       15.802028   -1.679521   -0.612172
     59          6           0       16.313390    0.579621    0.474471
     60          6           0       17.665217    0.549469    0.009152
     61          6           0       18.528077    1.538260    0.807858
     62          6           0       19.995241    1.633801    0.273145
     63          6           0       20.237282    1.964574   -1.098516
     64          6           0       21.044215    2.493475    1.142337
     65          1           0       -3.923092    3.206213    1.750822
     66          1           0      -10.217862    4.146931   -0.576097
     67          1           0      -10.526115   -2.488345   -1.279582
     68          1           0       -3.095518   -1.183190    1.972308
     69          1           0       -2.354591    1.674759    1.212154
     70          1           0       -1.929279    0.624290    3.761993
     71          1           0       -3.527241    2.309876    3.623081
     72          1           0       -3.626370    0.250835    3.820825
     73          1           0       -2.256051   -1.709795   -0.229507
     74          1           0       -2.080766    0.126448   -0.670109
     75          1           0       -0.173481    0.359903    0.926193
     76          1           0       -0.195879   -1.343573    1.421265
     77          1           0       -4.308269    6.078219    0.941867
     78          1           0       -5.943224    6.820920    1.526390
     79          1           0       -5.285440    5.513300    2.534206
     80          1           0       -7.847574    6.990059    1.227652
     81          1           0       -9.502957    6.226447   -1.263814
     82          1           0       -9.305472    7.830308   -0.645433
     83          1           0      -12.507311    3.212195    0.117867
     84          1           0      -12.047025    3.635635   -1.609743
     85          1           0      -13.278364    2.406543   -1.503893
     86          1           0      -12.775686   -1.235670   -1.242284
     87          1           0      -13.702632    0.375618   -1.514654
     88          1           0      -12.423571    0.367003   -3.775617
     89          1           0      -11.655798   -1.005338   -3.619282
     90          1           0      -13.426493   -1.397556   -3.429423
     91          1           0       -9.571042   -5.114614   -0.290910
     92          1           0       -9.667045   -4.257216   -1.925990
     93          1           0       -8.226322   -5.482606   -1.543787
     94          1           0       -3.694848   -3.567193   -0.427079
     95          1           0       -1.985404   -6.415515    2.582107
     96          1           0       -1.351541   -4.470430    3.250563
     97          1           0       -3.106736   -5.359531    3.796274
     98          1           0        2.636741   -2.023028   -1.556548
     99          1           0        2.515383   -0.358422   -2.149689
    100          1           0        4.123594   -0.953804    0.403511
    101          1           0        5.388296    1.658603   -2.627512
    102          1           0        5.484668    0.070149   -3.261856
    103          1           0        3.825232    0.720830   -3.035391
    104          1           0        6.383360    1.459350   -0.178073
    105          1           0        6.102955   -0.109265    0.626447
    106          1           0        7.039649   -1.257893   -1.241445
    107          1           0        7.412274    0.338214   -2.088543
    108          1           0        8.920898    0.960334   -0.014550
    109          1           0        8.621509   -0.475871    0.980673
    110          1           0       10.193598   -0.121977   -2.013446
    111          1           0        9.163989   -2.290091   -1.692902
    112          1           0       10.853070   -2.549394   -1.777221
    113          1           0       10.204863   -2.578058   -0.161852
    114          1           0       11.300300    0.959933   -0.198887
    115          1           0       11.229738   -0.547119    1.002491
    116          1           0       13.011538   -1.716876   -0.529473
    117          1           0       12.618686   -0.273697   -1.718038
    118          1           0       13.846668    0.842278    0.293099
    119          1           0       13.926453   -0.496995    1.309976
    120          1           0       15.501684    0.256774   -1.548103
    121          1           0       15.399278   -2.070743   -1.751832
    122          1           0       16.885812   -1.950851   -0.762003
    123          1           0       15.452015   -2.243439    0.466839
    124          1           0       15.890771    1.447243    0.674608
    125          1           0       16.488819    0.055269    1.453688
    126          1           0       18.098581   -0.333248    0.099965
    127          1           0       17.595908    0.894751   -0.952796
    128          1           0       18.112910    2.484615    0.501321
    129          1           0       18.584492    1.295190    1.837778
    130          1           0       20.182437    0.464287    0.246082
    131          1           0       20.045561    3.059845   -1.109236
    132          1           0       21.364894    2.029982   -1.426206
    133          1           0       19.684470    1.516683   -1.879134
    134          1           0       21.072014    2.208933    2.222998
    135          1           0       22.068687    2.365571    0.820781
    136          1           0       20.693265    3.382596    1.193452
    137          1           0       -7.129440    1.795009    0.271451
    138          1           0       -7.512323   -0.272444   -0.123039
 ---------------------------------------------------------------------

 SCF Done:  E(RB3LYP) =  -2732.93439020     A.U. after   17 cycles

 Excitation energies and oscillator strengths:

 Excited State   1:      Singlet-A      2.0732 eV  598.03 nm  f=0.1403  <S**2>=0.000
     235 -> 237       -0.17386
     235 -> 238        0.31948
     236 -> 237        0.58772
     236 -> 238        0.13247
 This state for optimization and/or second-order correction.
 Total Energy, E(TD-HF/TD-KS) =  -2732.85820054
 Copying the excited state density for this state as the 1-particle RhoCI density.

 The electronic state is 1-A.
 Alpha  occ. eigenvalues --  -19.19057 -19.17524 -19.14643 -19.11806 -19.10596
 Alpha  occ. eigenvalues --  -14.37406 -14.36971 -14.32070 -14.29438 -10.32203
 Alpha  occ. eigenvalues --  -10.30968 -10.29887 -10.28737 -10.25014 -10.24318
 Alpha  occ. eigenvalues --  -10.24159 -10.23967 -10.23373 -10.23172 -10.23023
 Alpha  occ. eigenvalues --  -10.22427 -10.22284 -10.22152 -10.21862 -10.21837
 Alpha  occ. eigenvalues --  -10.21610 -10.21431 -10.21417 -10.21348 -10.21206
 Alpha  occ. eigenvalues --  -10.21108 -10.20972 -10.20823 -10.20753 -10.20665
 Alpha  occ. eigenvalues --  -10.20648 -10.20551 -10.20306 -10.20182 -10.19982
 Alpha  occ. eigenvalues --  -10.19981 -10.19981 -10.19879 -10.19841 -10.19542
 Alpha  occ. eigenvalues --  -10.19446 -10.19379 -10.19365 -10.19256 -10.19147
 Alpha  occ. eigenvalues --  -10.19102 -10.19045 -10.18933 -10.18909 -10.18363
 Alpha  occ. eigenvalues --  -10.18230 -10.17966 -10.17723 -10.17409 -10.17217
 Alpha  occ. eigenvalues --  -10.16881 -10.16851 -10.16292 -10.15272  -1.11245
 Alpha  occ. eigenvalues --   -1.08129  -1.05230  -0.99763  -0.99146  -0.98554
 Alpha  occ. eigenvalues --   -0.96191  -0.95016  -0.92982  -0.85327  -0.83014
 Alpha  occ. eigenvalues --   -0.82885  -0.82648  -0.82066  -0.81483  -0.80829
 Alpha  occ. eigenvalues --   -0.80368  -0.79747  -0.79210  -0.78292  -0.77868
 Alpha  occ. eigenvalues --   -0.77591  -0.76869  -0.76185  -0.75868  -0.74506
 Alpha  occ. eigenvalues --   -0.73716  -0.73143  -0.72654  -0.71900  -0.70957
 Alpha  occ. eigenvalues --   -0.70334  -0.69037  -0.68545  -0.68168  -0.67542
 Alpha  occ. eigenvalues --   -0.67253  -0.67083  -0.66958  -0.66574  -0.65230
 Alpha  occ. eigenvalues --   -0.64190  -0.62913  -0.62245  -0.61808  -0.61158
 Alpha  occ. eigenvalues --   -0.61090  -0.59256  -0.58779  -0.58369  -0.57540
 Alpha  occ. eigenvalues --   -0.56568  -0.56179  -0.55952  -0.55795  -0.54961
 Alpha  occ. eigenvalues --   -0.54917  -0.54274  -0.54193  -0.53608  -0.52975
 Alpha  occ. eigenvalues --   -0.52103  -0.51596  -0.51299  -0.51054  -0.50195
 Alpha  occ. eigenvalues --   -0.50115  -0.49929  -0.49801  -0.48756  -0.48323
 Alpha  occ. eigenvalues --   -0.48160  -0.47839  -0.47742  -0.47406  -0.47038
 Alpha  occ. eigenvalues --   -0.46956  -0.46391  -0.46179  -0.45798  -0.45709
 Alpha  occ. eigenvalues --   -0.45631  -0.45290  -0.45015  -0.44933  -0.44833
 Alpha  occ. eigenvalues --   -0.44668  -0.44534  -0.44238  -0.43902  -0.43821
 Alpha  occ. eigenvalues --   -0.43209  -0.42889  -0.42827  -0.42697  -0.42555
 Alpha  occ. eigenvalues --   -0.42422  -0.42204  -0.41957  -0.41568  -0.41447
 Alpha  occ. eigenvalues --   -0.41312  -0.40998  -0.40967  -0.40841  -0.40621
 Alpha  occ. eigenvalues --   -0.40331  -0.40256  -0.39955  -0.39826  -0.39652
 Alpha  occ. eigenvalues --   -0.39553  -0.39290  -0.39124  -0.39055  -0.38682
 Alpha  occ. eigenvalues --   -0.38360  -0.38125  -0.38001  -0.37663  -0.37500
 Alpha  occ. eigenvalues --   -0.37139  -0.37015  -0.36922  -0.36831  -0.36722
 Alpha  occ. eigenvalues --   -0.36542  -0.36440  -0.36356  -0.36048  -0.35721
 Alpha  occ. eigenvalues --   -0.35212  -0.35004  -0.34909  -0.34664  -0.34254
 Alpha  occ. eigenvalues --   -0.34075  -0.33995  -0.33867  -0.33127  -0.33062
 Alpha  occ. eigenvalues --   -0.33035  -0.32976  -0.32609  -0.32559  -0.32347
 Alpha  occ. eigenvalues --   -0.32299  -0.31943  -0.31237  -0.31180  -0.31100
 Alpha  occ. eigenvalues --   -0.31015  -0.30935  -0.30134  -0.29812  -0.29737
 Alpha  occ. eigenvalues --   -0.29022  -0.28993  -0.27641  -0.27633  -0.27413
 Alpha  occ. eigenvalues --   -0.26946  -0.26901  -0.26716  -0.26578  -0.26143
 Alpha  occ. eigenvalues --   -0.25548  -0.25066  -0.24765  -0.21464  -0.20154
 Alpha  occ. eigenvalues --   -0.19507
 Alpha virt. eigenvalues --   -0.10681  -0.08529  -0.04492  -0.01728  -0.01399
 Alpha virt. eigenvalues --   -0.00195   0.00168   0.00913   0.02100   0.02564
 Alpha virt. eigenvalues --    0.02955   0.03456   0.03894   0.03911   0.04192

 Mulliken charges:
               1
     1  C   -0.016393
     2  C   -0.023716
     3  C   -0.140238
     4  C   -0.084929
     5  N   -0.156122
     6  C   -0.114975
     7  C    0.129602
     8  C   -0.001323
     9  C   -0.095008
    10  C   -0.094239
    11  C    0.044944
    12  C    0.047273
    13  C    0.158249
    14  O   -0.316010
    15  O   -0.320605
    16  N   -0.030773
    17  C    0.113405
    18  C   -0.078926
    19  C    0.006886
    20  C    0.088217
    21  C    0.047681
    22  C   -0.041065
    23  C   -0.012400
    24  N   -0.283042
    25  C    0.110996
    26  C   -0.181251
    27  C   -0.126822
    28  C    0.120845
    29  C    0.087958
    30  C    0.119623
    31  C   -0.023520
    32  N   -0.034574
    33  C   -0.030758
    34  C   -0.108018
    35  C   -0.029674
    36  C    0.106986
    37  C    0.004103
    38  C    0.114828
    39  O   -0.125245
    40  C   -0.146692
    41  C    0.244649
    42  O   -0.276794
    43  O   -0.225824
    44  C    0.020672
    45  C    0.304979
    46  C   -0.126224
    47  C   -0.138921
    48  C    0.037336
    49  C    0.066722
    50  C    0.019382
    51  C   -0.033476
    52  C   -0.081265
    53  C    0.103368
    54  C   -0.012257
    55  C   -0.034081
    56  C    0.171313
    57  C   -0.131529
    58  C   -0.058385
    59  C    0.065402
    60  C    0.133988
    61  C    0.073483
    62  C   -0.124425
    63  C    0.037783
    64  C    0.109842
    65  H   -0.011142
    66  H    0.025017
    67  H    0.014825
    68  H   -0.030872
    69  H    0.017560
    70  H    0.035918
    71  H    0.041845
    72  H    0.054214
    73  H    0.009896
    74  H    0.031569
    75  H    0.034216
    76  H    0.044886
    77  H    0.055053
    78  H    0.012306
    79  H    0.031977
    80  H    0.034242
    81  H   -0.045221
    82  H    0.035964
    83  H    0.041573
    84  H    0.007243
    85  H    0.017594
    86  H   -0.023934
    87  H    0.035928
    88  H    0.011139
    89  H    0.004222
    90  H    0.031663
    91  H    0.043375
    92  H    0.045006
    93  H    0.061878
    94  H    0.098344
    95  H    0.071751
    96  H    0.056093
    97  H    0.064864
    98  H    0.023169
    99  H    0.018299
   100  H   -0.006213
   101  H    0.018717
   102  H    0.025895
   103  H    0.032064
   104  H    0.006359
   105  H   -0.004518
   106  H    0.026259
   107  H    0.006266
   108  H   -0.008842
   109  H    0.007574
   110  H   -0.001315
   111  H   -0.000564
   112  H    0.003842
   113  H   -0.002556
   114  H    0.003199
   115  H    0.006166
   116  H    0.012532
   117  H    0.003822
   118  H   -0.086618
   119  H    0.010842
   120  H    0.013427
   121  H    0.027590
   122  H    0.030515
   123  H    0.030821
   124  H   -0.054861
   125  H   -0.029869
   126  H   -0.043504
   127  H   -0.048798
   128  H   -0.029305
   129  H   -0.010291
   130  H   -0.022815
   131  H   -0.027336
   132  H    0.009461
   133  H    0.004273
   134  H   -0.009863
   135  H    0.014709
   136  H   -0.040129
   137  H    0.115427
   138  H    0.186158
 Sum of Mulliken charges =   0.00000

 Dipole moment (field-independent basis, Debye):
    X=              1.6172    Y=              3.5969    Z=             -0.6255  Tot=              3.9930
 Quadrupole moment (field-independent basis, Debye-Ang):
   XX=           -355.3380   YY=           -379.5899   ZZ=           -398.2760
   XY=             -8.9192   XZ=             13.0097   YZ=              0.2051

 Normal termination of Gaussian 09 at Sat Aug  3 01:49:26 2019.
