 Gaussian 09, Revision D.01,
 Gaussian 09:  ES64L-G09RevD.01 24-Apr-2013

 --------------------------
 # td=(NStates=1) B3LYP/SVP
 --------------------------

 --
 TD
 --
 Symbolic Z-matrix:
 Charge =  0 Multiplicity = 1

                         Standard orientation:
 ---------------------------------------------------------------------
 Center     Atomic      Atomic             Coordinates (Angstroms)
 Number     Number       Type             X           Y           Z
 ---------------------------------------------------------------------
      1          6           0       -5.189070   -1.919110    0.576700
      2          6           0       -4.710533    2.864264    1.456566
      3          6           0       -9.412914    3.291526   -0.153355
      4          6           0       -9.761292   -1.457416   -1.058331
      5          7           0       -5.135246    0.470104    0.916877
      6          6           0       -4.526752   -0.672998    0.968225
      7          6           0       -3.128176   -0.562950    1.317647
      8          6           0       -2.953296    0.885629    1.912306
      9          6           0       -4.303924    1.469556    1.449752
     10          6           0       -3.070241    0.964140    3.446170
     11          6           0       -2.142156   -0.744976    0.230052
     12          6           0       -0.585598   -0.789502    0.647930
     13          6           0        0.366288   -1.165656   -0.481060
     14          8           0        0.090609   -1.502124   -1.553436
     15          8           0        1.616513   -0.988208   -0.089371
     16          7           0       -6.974496    2.750391    0.521417
     17          6           0       -5.905469    3.424339    1.068315
     18          6           0       -6.281747    4.836584    1.069671
     19          6           0       -7.640479    4.945301    0.629958
     20          6           0       -8.070742    3.570417    0.356807
     21          6           0       -5.309090    5.890584    1.505528
     22          6           0       -8.236271    6.305798    0.471408
     23          6           0       -9.043061    6.723258   -0.430363
     24          7           0       -9.166144    0.850970   -0.462377
     25          6           0       -9.849982    2.024659   -0.520165
     26          6           0      -11.169272    1.821968   -1.294687
     27          6           0      -11.264974    0.501758   -1.560425
     28          6           0      -10.067354   -0.099435   -0.959108
     29          6           0      -12.164982    2.905393   -1.402133
     30          6           0      -12.532633   -0.191566   -1.998232
     31          6           0      -12.454248   -0.493201   -3.551353
     32          7           0       -7.568515   -1.268201   -0.378025
     33          6           0       -8.531873   -2.098941   -0.741729
     34          6           0       -8.091712   -3.426546   -0.798001
     35          6           0       -6.769144   -3.401669   -0.350524
     36          6           0       -6.481935   -2.032514    0.111668
     37          6           0       -8.963816   -4.644735   -1.136155
     38          6           0       -5.695379   -4.246614   -0.072978
     39          8           0       -5.556869   -5.469712   -0.203818
     40          6           0       -4.556783   -3.346676    0.571280
     41          6           0       -4.053507   -3.751073    1.835648
     42          8           0       -4.471746   -3.396292    2.949389
     43          8           0       -3.147091   -4.743198    1.793006
     44          6           0       -2.729342   -5.466459    2.955180
     45          6           0        2.720079   -1.222211   -1.039591
     46          6           0        4.030393   -0.726652   -0.376338
     47          6           0        4.929143    0.114865   -0.926462
     48          6           0        4.802084    0.757152   -2.347112
     49          6           0        6.235866    0.379273   -0.242508
     50          6           0        7.446242   -0.257208   -0.873926
     51          6           0        8.789806   -0.100467   -0.144518
     52          6           0       10.085911   -0.764947   -0.716612
     53          6           0        9.980571   -2.259911   -1.020370
     54          6           0       11.382536   -0.376790    0.130042
     55          6           0       12.693672   -0.565314   -0.603189
     56          6           0       13.876456   -0.051477    0.180684
     57          6           0       15.251516   -0.120404   -0.388122
     58          6           0       15.621054   -1.628772   -0.730826
     59          6           0       16.354164    0.538736    0.460711
     60          6           0       17.766902    0.716405   -0.188228
     61          6           0       18.595378    1.692128    0.524794
     62          6           0       20.062908    1.628361   -0.019806
     63          6           0       20.189397    2.109078   -1.481958
     64          6           0       20.923557    2.400223    0.973764
     65          1           0       -4.066924    3.465991    1.942637
     66          1           0      -10.067512    4.016497   -0.499523
     67          1           0      -10.411897   -2.070215   -1.673393
     68          1           0       -2.944107   -1.439539    2.156043
     69          1           0       -2.162273    1.392288    1.349098
     70          1           0       -2.269041    0.383112    3.864042
     71          1           0       -3.236169    1.977093    3.943256
     72          1           0       -3.989887    0.486468    3.856376
     73          1           0       -2.338397   -1.554293   -0.468178
     74          1           0       -2.224209    0.091388   -0.414481
     75          1           0       -0.554360    0.286421    1.034164
     76          1           0       -0.508339   -1.584536    1.397302
     77          1           0       -4.363382    5.971151    0.989348
     78          1           0       -5.826158    6.755608    1.745864
     79          1           0       -4.844086    5.381459    2.446497
     80          1           0       -7.961533    7.046454    1.283062
     81          1           0       -9.365438    6.177466   -1.304108
     82          1           0       -9.623657    7.817098   -0.469794
     83          1           0      -12.126794    3.505003   -0.585572
     84          1           0      -11.909973    3.458212   -2.345994
     85          1           0      -13.160472    2.552731   -1.588408
     86          1           0      -12.493781   -1.217217   -1.340640
     87          1           0      -13.524854    0.392106   -1.929929
     88          1           0      -12.088056    0.485528   -4.057635
     89          1           0      -11.531937   -0.978130   -3.705162
     90          1           0      -13.346359   -0.932997   -4.008645
     91          1           0       -9.655591   -5.124440   -0.184930
     92          1           0       -9.574387   -4.493674   -2.092307
     93          1           0       -8.267144   -5.588563   -1.100995
     94          1           0       -3.687126   -3.282505   -0.149027
     95          1           0       -2.169979   -6.401412    2.710198
     96          1           0       -2.016691   -4.707142    3.500929
     97          1           0       -3.509033   -5.579761    3.688445
     98          1           0        2.504828   -2.125652   -1.186734
     99          1           0        2.362865   -0.668423   -1.903407
    100          1           0        4.438037   -1.237655    0.608087
    101          1           0        5.101034    1.735001   -2.300876
    102          1           0        5.288880    0.055484   -3.102105
    103          1           0        3.747319    0.740891   -2.546363
    104          1           0        6.399016    1.383533    0.124204
    105          1           0        6.265733   -0.099311    0.864683
    106          1           0        7.403962   -1.358160   -0.910319
    107          1           0        7.597853    0.104259   -1.857815
    108          1           0        8.992427    0.950589    0.245766
    109          1           0        8.776634   -0.534953    0.961499
    110          1           0       10.333892   -0.086276   -1.669993
    111          1           0        9.007391   -2.627102   -1.514628
    112          1           0       10.800998   -2.667565   -1.513094
    113          1           0        9.831222   -2.924688   -0.045914
    114          1           0       11.186989    0.679945    0.188549
    115          1           0       11.471461   -0.843036    1.164997
    116          1           0       12.909462   -1.554423   -1.104057
    117          1           0       12.852013    0.196395   -1.417459
    118          1           0       13.583684    1.092684    0.491638
    119          1           0       13.814691   -0.520342    1.330985
    120          1           0       15.059135    0.347297   -1.370433
    121          1           0       15.000258   -2.040456   -1.648208
    122          1           0       16.618926   -1.571299   -0.957702
    123          1           0       15.216788   -2.280096    0.035674
    124          1           0       15.949734    1.590647    0.502213
    125          1           0       16.301262    0.074192    1.331467
    126          1           0       18.205636   -0.181620   -0.490384
    127          1           0       17.297071    1.093995   -1.303223
    128          1           0       18.258900    2.703610    0.627432
    129          1           0       18.504650    1.340833    1.603286
    130          1           0       20.397397    0.640831    0.106907
    131          1           0       19.690102    3.205004   -1.842531
    132          1           0       21.199142    2.150725   -1.870063
    133          1           0       19.590711    1.485573   -2.045741
    134          1           0       20.961847    1.878806    1.865535
    135          1           0       21.988951    2.253497    0.627039
    136          1           0       20.698589    3.441210    0.924767
    137          1           0       -7.091658    1.762174    0.188423
    138          1           0       -7.775859   -0.151551    0.012110
 ---------------------------------------------------------------------

 SCF Done:  E(RB3LYP) =  -2733.09834248     A.U. after   17 cycles

 Excitation energies and oscillator strengths:

 Excited State   1:      Singlet-A      1.9593 eV  632.79 nm  f=0.2239  <S**2>=0.000
     235 -> 237        0.10415
     235 -> 238        0.27228
     236 -> 237        0.64157
 This state for optimization and/or second-order correction.
 Total Energy, E(TD-HF/TD-KS) =  -2733.02633851
 Copying the excited state density for this state as the 1-particle RhoCI density.

 The electronic state is 1-A.
 Alpha  occ. eigenvalues --  -19.16877 -19.15872 -19.11988 -19.11769 -19.10940
 Alpha  occ. eigenvalues --  -14.37669 -14.36265 -14.32494 -14.31307 -10.30935
 Alpha  occ. eigenvalues --  -10.30686 -10.27528 -10.24925 -10.24756 -10.24054
 Alpha  occ. eigenvalues --  -10.23828 -10.23757 -10.23241 -10.22906 -10.22788
 Alpha  occ. eigenvalues --  -10.22262 -10.21824 -10.21807 -10.21459 -10.21450
 Alpha  occ. eigenvalues --  -10.21408 -10.21195 -10.21149 -10.21136 -10.20874
 Alpha  occ. eigenvalues --  -10.20815 -10.20778 -10.20765 -10.20758 -10.20623
 Alpha  occ. eigenvalues --  -10.20503 -10.19947 -10.19928 -10.19857 -10.19813
 Alpha  occ. eigenvalues --  -10.19700 -10.19660 -10.19648 -10.19586 -10.19391
 Alpha  occ. eigenvalues --  -10.19365 -10.19035 -10.19019 -10.19014 -10.19006
 Alpha  occ. eigenvalues --  -10.18990 -10.18953 -10.18887 -10.18764 -10.18678
 Alpha  occ. eigenvalues --  -10.18654 -10.18586 -10.18512 -10.18434 -10.18363
 Alpha  occ. eigenvalues --  -10.18110 -10.17724 -10.17475 -10.16637  -1.10641
 Alpha  occ. eigenvalues --   -1.08458  -1.01536  -1.01091  -0.98100  -0.97867
 Alpha  occ. eigenvalues --   -0.97643  -0.95398  -0.93108  -0.85024  -0.82693
 Alpha  occ. eigenvalues --   -0.82311  -0.81554  -0.81380  -0.81059  -0.80925
 Alpha  occ. eigenvalues --   -0.79993  -0.79737  -0.79456  -0.78743  -0.77826
 Alpha  occ. eigenvalues --   -0.77206  -0.76365  -0.76220  -0.75314  -0.74526
 Alpha  occ. eigenvalues --   -0.73926  -0.73564  -0.72587  -0.72089  -0.70935
 Alpha  occ. eigenvalues --   -0.69938  -0.69707  -0.68773  -0.68726  -0.68123
 Alpha  occ. eigenvalues --   -0.67721  -0.67264  -0.67173  -0.66005  -0.65722
 Alpha  occ. eigenvalues --   -0.64401  -0.62987  -0.62862  -0.61881  -0.61290
 Alpha  occ. eigenvalues --   -0.61196  -0.59499  -0.58294  -0.57899  -0.57689
 Alpha  occ. eigenvalues --   -0.57201  -0.56404  -0.55979  -0.55669  -0.55101
 Alpha  occ. eigenvalues --   -0.55027  -0.54173  -0.53945  -0.53466  -0.53122
 Alpha  occ. eigenvalues --   -0.52843  -0.52343  -0.51794  -0.51130  -0.50923
 Alpha  occ. eigenvalues --   -0.50119  -0.49392  -0.48840  -0.48527  -0.48152
 Alpha  occ. eigenvalues --   -0.48028  -0.47741  -0.47447  -0.47282  -0.46897
 Alpha  occ. eigenvalues --   -0.46882  -0.46614  -0.46491  -0.46308  -0.46001
 Alpha  occ. eigenvalues --   -0.45811  -0.45467  -0.45160  -0.44916  -0.44873
 Alpha  occ. eigenvalues --   -0.44640  -0.44532  -0.44355  -0.44196  -0.44062
 Alpha  occ. eigenvalues --   -0.43768  -0.43481  -0.43341  -0.43254  -0.42918
 Alpha  occ. eigenvalues --   -0.42688  -0.42548  -0.42425  -0.42120  -0.41962
 Alpha  occ. eigenvalues --   -0.41790  -0.41392  -0.41237  -0.40936  -0.40716
 Alpha  occ. eigenvalues --   -0.40595  -0.40463  -0.40296  -0.40000  -0.39784
 Alpha  occ. eigenvalues --   -0.39548  -0.39066  -0.39019  -0.38943  -0.38484
 Alpha  occ. eigenvalues --   -0.38397  -0.38273  -0.38195  -0.37883  -0.37473
 Alpha  occ. eigenvalues --   -0.37388  -0.37092  -0.36894  -0.36762  -0.36480
 Alpha  occ. eigenvalues --   -0.36332  -0.36275  -0.36162  -0.35886  -0.35779
 Alpha  occ. eigenvalues --   -0.35516  -0.35444  -0.35112  -0.34909  -0.34831
 Alpha  occ. eigenvalues --   -0.34523  -0.34404  -0.34204  -0.34126  -0.33984
 Alpha  occ. eigenvalues --   -0.33603  -0.33385  -0.32709  -0.32315  -0.32229
 Alpha  occ. eigenvalues --   -0.32186  -0.32000  -0.31828  -0.31616  -0.30749
 Alpha  occ. eigenvalues --   -0.30593  -0.30502  -0.30235  -0.29879  -0.29372
 Alpha  occ. eigenvalues --   -0.29320  -0.28899  -0.28496  -0.28236  -0.28155
 Alpha  occ. eigenvalues --   -0.27607  -0.26954  -0.26755  -0.26607  -0.26008
 Alpha  occ. eigenvalues --   -0.25914  -0.24769  -0.24020  -0.23430  -0.19979
 Alpha  occ. eigenvalues --   -0.18560
 Alpha virt. eigenvalues --   -0.10660  -0.07550  -0.04992  -0.01405  -0.00893
 Alpha virt. eigenvalues --   -0.00672   0.00149   0.01767   0.02500   0.03718
 Alpha virt. eigenvalues --    0.03903   0.04430   0.04488   0.04760   0.05208

 Mulliken charges:
               1
     1  C   -0.062054
     2  C    0.005589
     3  C   -0.047770
     4  C   -0.103460
     5  N   -0.140300
     6  C   -0.030170
     7  C   -0.096458
     8  C    0.019660
     9  C   -0.086384
    10  C    0.079927
    11  C    0.045182
    12  C    0.022335
    13  C    0.137895
    14  O   -0.189267
    15  O   -0.342919
    16  N   -0.075423
    17  C    0.143777
    18  C   -0.152129
    19  C    0.002748
    20  C    0.100292
    21  C    0.149339
    22  C   -0.009457
    23  C   -0.097027
    24  N   -0.292532
    25  C    0.058870
    26  C   -0.170596
    27  C   -0.073646
    28  C    0.107471
    29  C    0.177714
    30  C   -0.019393
    31  C    0.021829
    32  N   -0.147928
    33  C    0.075973
    34  C   -0.097532
    35  C    0.001667
    36  C    0.113312
    37  C   -0.021061
    38  C    0.056531
    39  O   -0.188674
    40  C    0.017606
    41  C    0.186217
    42  O   -0.268163
    43  O   -0.300703
    44  C    0.178494
    45  C    0.394257
    46  C   -0.067850
    47  C   -0.175033
    48  C    0.134549
    49  C    0.035100
    50  C    0.096535
    51  C   -0.055612
    52  C   -0.076874
    53  C    0.032888
    54  C    0.042564
    55  C    0.030459
    56  C   -0.094565
    57  C   -0.065584
    58  C    0.047624
    59  C    0.101175
    60  C   -0.013000
    61  C    0.062210
    62  C   -0.088187
    63  C    0.036224
    64  C    0.099330
    65  H   -0.092174
    66  H   -0.055815
    67  H   -0.022200
    68  H    0.041202
    69  H    0.008480
    70  H    0.009503
    71  H    0.023157
    72  H    0.026845
    73  H    0.003666
    74  H   -0.019371
    75  H    0.044611
    76  H    0.030862
    77  H    0.021878
    78  H   -0.001777
    79  H    0.019062
    80  H    0.023575
    81  H    0.019752
    82  H    0.041771
    83  H    0.009154
    84  H    0.020915
    85  H   -0.007931
    86  H    0.038564
    87  H    0.027696
    88  H    0.005941
    89  H   -0.011080
    90  H    0.031016
    91  H    0.055031
    92  H    0.054466
    93  H    0.052942
    94  H    0.060417
    95  H    0.054288
    96  H    0.019720
    97  H    0.032581
    98  H   -0.066397
    99  H    0.007797
   100  H    0.023556
   101  H    0.001197
   102  H    0.052934
   103  H   -0.006549
   104  H    0.002516
   105  H   -0.008427
   106  H    0.003736
   107  H   -0.011205
   108  H   -0.013247
   109  H   -0.012405
   110  H    0.001798
   111  H    0.016327
   112  H    0.001233
   113  H    0.006194
   114  H   -0.010645
   115  H    0.012077
   116  H    0.009691
   117  H   -0.008261
   118  H   -0.004669
   119  H   -0.016352
   120  H   -0.016650
   121  H    0.010864
   122  H   -0.012885
   123  H    0.006628
   124  H   -0.000932
   125  H   -0.038263
   126  H   -0.004371
   127  H   -0.000080
   128  H   -0.013231
   129  H   -0.007860
   130  H   -0.025816
   131  H    0.011293
   132  H    0.011159
   133  H   -0.012327
   134  H   -0.017232
   135  H   -0.015636
   136  H    0.004685
   137  H    0.159352
   138  H    0.248068
 Sum of Mulliken charges =   0.00000

 Dipole moment (field-independent basis, Debye):
    X=              3.1245    Y=              4.7057    Z=             -0.1310  Tot=              5.6501
 Quadrupole moment (field-independent basis, Debye-Ang):
   XX=           -343.9799   YY=           -386.8682   ZZ=           -395.6271
   XY=            -32.3619   XZ=             11.0883   YZ=             -2.0877

 Normal termination of Gaussian 09 at Thu Jul 25 23:56:44 2019.
