 Gaussian 09, Revision D.01,
 Gaussian 09:  ES64L-G09RevD.01 24-Apr-2013

 --------------------------
 # td=(NStates=1) B3LYP/SVP
 --------------------------

 --
 TD
 --
 Symbolic Z-matrix:
 Charge =  0 Multiplicity = 1

                         Standard orientation:
 ---------------------------------------------------------------------
 Center     Atomic      Atomic             Coordinates (Angstroms)
 Number     Number       Type             X           Y           Z
 ---------------------------------------------------------------------
      1          6           0       -5.057571   -1.949916    0.498244
      2          6           0       -4.802884    2.827297    1.449946
      3          6           0       -9.414424    3.303339   -0.137680
      4          6           0       -9.875206   -1.510184   -0.697363
      5          7           0       -5.234538    0.505899    0.841182
      6          6           0       -4.448445   -0.715728    0.773145
      7          6           0       -3.056798   -0.485175    1.221141
      8          6           0       -3.081984    0.988655    1.843766
      9          6           0       -4.451389    1.439326    1.297742
     10          6           0       -2.937570    0.950967    3.369092
     11          6           0       -2.076289   -0.692089    0.036536
     12          6           0       -0.617845   -0.609996    0.395179
     13          6           0        0.470983   -0.956169   -0.635276
     14          8           0        0.086167   -1.204390   -1.790294
     15          8           0        1.674648   -0.893477   -0.226489
     16          7           0       -7.063824    2.785189    0.512511
     17          6           0       -5.948990    3.380647    0.959788
     18          6           0       -6.250945    4.768541    0.917999
     19          6           0       -7.592171    4.984856    0.558432
     20          6           0       -8.203999    3.664321    0.204778
     21          6           0       -5.247035    5.791951    1.239860
     22          6           0       -8.270346    6.222320    0.301294
     23          6           0       -9.173516    6.489771   -0.607630
     24          7           0       -9.276801    0.782018   -0.323149
     25          6           0       -9.849532    2.046452   -0.489046
     26          6           0      -11.318398    1.756097   -1.042758
     27          6           0      -11.426938    0.484457   -1.073126
     28          6           0      -10.209133   -0.132556   -0.808451
     29          6           0      -12.291795    2.920034   -1.166173
     30          6           0      -12.637476   -0.265864   -1.581976
     31          6           0      -12.624417   -0.689161   -3.024168
     32          7           0       -7.515551   -1.445834   -0.053175
     33          6           0       -8.585225   -2.102085   -0.397384
     34          6           0       -8.197656   -3.462784   -0.585503
     35          6           0       -6.845638   -3.493658   -0.186073
     36          6           0       -6.425510   -2.166271    0.146741
     37          6           0       -9.040080   -4.722999   -0.823935
     38          6           0       -5.729494   -4.323692    0.078459
     39          8           0       -5.577483   -5.509196    0.111201
     40          6           0       -4.443732   -3.286280    0.464336
     41          6           0       -3.878877   -3.755981    1.772999
     42          8           0       -4.111697   -3.269549    2.901457
     43          8           0       -3.015760   -4.720416    1.615501
     44          6           0       -2.455803   -5.462189    2.618660
     45          6           0        2.735536   -1.075439   -1.212889
     46          6           0        3.953693   -0.697423   -0.670038
     47          6           0        5.014283    0.125426   -1.168598
     48          6           0        4.755534    0.847263   -2.443264
     49          6           0        6.215520    0.177208   -0.461483
     50          6           0        7.519514   -0.269439   -1.132945
     51          6           0        8.843530   -0.041969   -0.366954
     52          6           0       10.086519   -0.535186   -1.119206
     53          6           0        9.919927   -1.967347   -1.723338
     54          6           0       11.312410   -0.220953   -0.080593
     55          6           0       12.634402   -0.498114   -0.786785
     56          6           0       13.773862   -0.131811    0.205426
     57          6           0       15.277272   -0.250760   -0.340145
     58          6           0       15.749300   -1.716925   -0.369780
     59          6           0       16.258860    0.631779    0.381416
     60          6           0       17.702566    0.566495    0.044908
     61          6           0       18.572639    1.701104    0.696829
     62          6           0       20.112960    1.518587    0.509975
     63          6           0       20.526766    1.807218   -1.035002
     64          6           0       20.808156    2.514278    1.488150
     65          1           0       -4.050251    3.552894    1.688739
     66          1           0      -10.133593    4.031009   -0.245798
     67          1           0      -10.726277   -2.099686   -1.017823
     68          1           0       -2.844758   -1.082985    2.111714
     69          1           0       -2.350082    1.509942    1.245010
     70          1           0       -1.986563    0.602156    3.562278
     71          1           0       -2.922087    1.921529    3.715833
     72          1           0       -3.534042    0.189091    4.110834
     73          1           0       -2.351628   -1.628344   -0.565881
     74          1           0       -2.230219    0.154008   -0.763386
     75          1           0       -0.317621    0.439264    0.617563
     76          1           0       -0.540438   -1.245658    1.254314
     77          1           0       -4.512735    5.524906    0.679842
     78          1           0       -5.579975    6.848902    1.103369
     79          1           0       -4.904875    5.710953    2.383893
     80          1           0       -7.900541    7.185594    1.004870
     81          1           0       -9.505516    5.815370   -1.483847
     82          1           0       -9.452317    7.694730   -0.891508
     83          1           0      -12.326754    3.789523   -0.288616
     84          1           0      -11.951718    3.451974   -2.014792
     85          1           0      -13.225633    2.637648   -1.422596
     86          1           0      -12.693338   -1.365487   -1.123479
     87          1           0      -13.429182    0.254321   -1.319318
     88          1           0      -12.680148    0.208674   -3.641027
     89          1           0      -11.870686   -1.500062   -3.393696
     90          1           0      -13.608551   -1.194045   -3.166442
     91          1           0       -9.978537   -4.604672   -0.107459
     92          1           0       -9.297911   -4.683816   -1.813559
     93          1           0       -8.154170   -5.403199   -0.928541
     94          1           0       -3.781049   -3.296358   -0.419868
     95          1           0       -1.849824   -6.255201    2.200188
     96          1           0       -1.690915   -4.678569    3.205281
     97          1           0       -3.387698   -5.850824    3.109350
     98          1           0        2.590394   -2.069725   -1.703300
     99          1           0        2.416355   -0.335580   -2.040836
    100          1           0        4.146522   -1.091638    0.305479
    101          1           0        5.065423    1.922797   -2.160420
    102          1           0        5.326759    0.482304   -3.292158
    103          1           0        3.669296    0.874610   -2.913845
    104          1           0        6.469729    1.256137   -0.198834
    105          1           0        5.947876   -0.433266    0.558659
    106          1           0        7.119158   -1.333732   -1.404015
    107          1           0        7.500264    0.222801   -2.291312
    108          1           0        8.846567    1.077482   -0.154706
    109          1           0        8.715098   -0.407570    0.759825
    110          1           0       10.387730    0.075226   -2.046051
    111          1           0        9.308778   -2.115926   -2.421506
    112          1           0       10.867002   -2.287424   -2.203706
    113          1           0        9.751846   -2.721728   -0.871852
    114          1           0       10.944880    0.895672    0.217695
    115          1           0       11.382072   -0.832642    0.758488
    116          1           0       12.709540   -1.670101   -1.107140
    117          1           0       12.825633    0.133976   -1.637097
    118          1           0       13.654502    0.829219    0.478848
    119          1           0       13.795750   -0.937930    1.071652
    120          1           0       15.323763    0.161850   -1.351133
    121          1           0       14.947466   -2.638210   -0.514119
    122          1           0       16.755301   -1.822286   -0.852723
    123          1           0       16.140218   -1.940852    0.623229
    124          1           0       15.892188    1.675818    0.205503
    125          1           0       16.398219    0.530396    1.617964
    126          1           0       18.131492   -0.489427    0.462462
    127          1           0       18.001900    0.495210   -1.215690
    128          1           0       18.230058    2.794270    0.353222
    129          1           0       18.418223    1.507591    1.967896
    130          1           0       20.375220    0.411706    0.941952
    131          1           0       20.033891    2.768156   -1.340942
    132          1           0       21.635166    1.939574   -1.172941
    133          1           0       20.106590    0.956551   -1.543189
    134          1           0       20.847347    2.100968    2.579573
    135          1           0       21.999562    2.472814    1.248780
    136          1           0       20.433705    3.494271    1.232347
    137          1           0       -7.129071    1.743739    0.351773
    138          1           0       -7.687515   -0.264846   -0.259550
 ---------------------------------------------------------------------

 SCF Done:  E(RB3LYP) =  -2732.98409952     A.U. after   16 cycles

 Excitation energies and oscillator strengths:

 Excited State   1:      Singlet-A      2.1252 eV  583.41 nm  f=0.2009  <S**2>=0.000
     235 -> 238        0.27794
     236 -> 237        0.64280
 This state for optimization and/or second-order correction.
 Total Energy, E(TD-HF/TD-KS) =  -2732.90600086
 Copying the excited state density for this state as the 1-particle RhoCI density.

 The electronic state is 1-A.
 Alpha  occ. eigenvalues --  -19.18819 -19.16855 -19.11814 -19.10484 -19.10412
 Alpha  occ. eigenvalues --  -14.36370 -14.35946 -14.32118 -14.31195 -10.30804
 Alpha  occ. eigenvalues --  -10.30760 -10.27233 -10.25402 -10.25273 -10.23910
 Alpha  occ. eigenvalues --  -10.23041 -10.22584 -10.22576 -10.22487 -10.22466
 Alpha  occ. eigenvalues --  -10.22263 -10.21618 -10.21359 -10.21322 -10.21249
 Alpha  occ. eigenvalues --  -10.21157 -10.21116 -10.21060 -10.20851 -10.20841
 Alpha  occ. eigenvalues --  -10.20809 -10.20782 -10.20710 -10.20638 -10.20380
 Alpha  occ. eigenvalues --  -10.20367 -10.20283 -10.20218 -10.19964 -10.19955
 Alpha  occ. eigenvalues --  -10.19953 -10.19644 -10.19545 -10.19529 -10.19507
 Alpha  occ. eigenvalues --  -10.19394 -10.19380 -10.19352 -10.19322 -10.19313
 Alpha  occ. eigenvalues --  -10.19250 -10.18981 -10.18968 -10.18938 -10.18855
 Alpha  occ. eigenvalues --  -10.18829 -10.18756 -10.18719 -10.18603 -10.18469
 Alpha  occ. eigenvalues --  -10.18439 -10.17836 -10.17383 -10.17373  -1.11434
 Alpha  occ. eigenvalues --   -1.10400  -1.03151  -0.99719  -0.98646  -0.97879
 Alpha  occ. eigenvalues --   -0.96522  -0.93287  -0.92816  -0.84397  -0.84117
 Alpha  occ. eigenvalues --   -0.82387  -0.81736  -0.81657  -0.80791  -0.80486
 Alpha  occ. eigenvalues --   -0.80416  -0.79229  -0.78950  -0.78583  -0.78325
 Alpha  occ. eigenvalues --   -0.76790  -0.76596  -0.76174  -0.75631  -0.75251
 Alpha  occ. eigenvalues --   -0.74150  -0.73363  -0.72921  -0.71891  -0.70836
 Alpha  occ. eigenvalues --   -0.70390  -0.70138  -0.69226  -0.68790  -0.67883
 Alpha  occ. eigenvalues --   -0.67350  -0.66868  -0.65995  -0.65592  -0.65187
 Alpha  occ. eigenvalues --   -0.64029  -0.62904  -0.62749  -0.61706  -0.61465
 Alpha  occ. eigenvalues --   -0.60390  -0.58799  -0.58177  -0.57817  -0.57031
 Alpha  occ. eigenvalues --   -0.56629  -0.56208  -0.55907  -0.55368  -0.54285
 Alpha  occ. eigenvalues --   -0.53955  -0.53599  -0.53219  -0.53060  -0.52579
 Alpha  occ. eigenvalues --   -0.52462  -0.52138  -0.51122  -0.50777  -0.50741
 Alpha  occ. eigenvalues --   -0.49808  -0.49765  -0.49123  -0.48932  -0.48290
 Alpha  occ. eigenvalues --   -0.48135  -0.47581  -0.47357  -0.47248  -0.46623
 Alpha  occ. eigenvalues --   -0.46572  -0.46375  -0.46217  -0.45947  -0.45699
 Alpha  occ. eigenvalues --   -0.45559  -0.45258  -0.45091  -0.44898  -0.44857
 Alpha  occ. eigenvalues --   -0.44817  -0.44431  -0.44072  -0.43845  -0.43720
 Alpha  occ. eigenvalues --   -0.43602  -0.43158  -0.42895  -0.42602  -0.42476
 Alpha  occ. eigenvalues --   -0.42269  -0.42022  -0.41995  -0.41781  -0.41329
 Alpha  occ. eigenvalues --   -0.41109  -0.41062  -0.40943  -0.40577  -0.40482
 Alpha  occ. eigenvalues --   -0.40288  -0.39969  -0.39879  -0.39589  -0.39298
 Alpha  occ. eigenvalues --   -0.39135  -0.38999  -0.38828  -0.38652  -0.38423
 Alpha  occ. eigenvalues --   -0.38374  -0.37991  -0.37926  -0.37577  -0.37503
 Alpha  occ. eigenvalues --   -0.37364  -0.37274  -0.37067  -0.37059  -0.36681
 Alpha  occ. eigenvalues --   -0.36467  -0.36194  -0.35559  -0.35425  -0.35340
 Alpha  occ. eigenvalues --   -0.35310  -0.35182  -0.34859  -0.34639  -0.34175
 Alpha  occ. eigenvalues --   -0.34041  -0.33874  -0.33856  -0.33692  -0.33422
 Alpha  occ. eigenvalues --   -0.33223  -0.33189  -0.32824  -0.32514  -0.32302
 Alpha  occ. eigenvalues --   -0.32299  -0.32078  -0.32056  -0.31251  -0.31081
 Alpha  occ. eigenvalues --   -0.30788  -0.30638  -0.30523  -0.30182  -0.30155
 Alpha  occ. eigenvalues --   -0.29188  -0.28786  -0.28774  -0.28295  -0.27119
 Alpha  occ. eigenvalues --   -0.26567  -0.26286  -0.25963  -0.25800  -0.25241
 Alpha  occ. eigenvalues --   -0.24160  -0.24095  -0.23790  -0.23556  -0.19857
 Alpha  occ. eigenvalues --   -0.18871
 Alpha virt. eigenvalues --   -0.10025  -0.07248  -0.04084  -0.02631  -0.01477
 Alpha virt. eigenvalues --    0.00261   0.01154   0.01857   0.02514   0.03146
 Alpha virt. eigenvalues --    0.03318   0.03580   0.03801   0.04118   0.04457

 Mulliken charges:
               1
     1  C    0.034313
     2  C   -0.065055
     3  C   -0.052284
     4  C   -0.016886
     5  N   -0.176938
     6  C   -0.044727
     7  C   -0.039031
     8  C   -0.008558
     9  C   -0.035795
    10  C    0.121374
    11  C    0.006585
    12  C    0.081653
    13  C    0.138669
    14  O   -0.290538
    15  O   -0.257093
    16  N   -0.147893
    17  C    0.129154
    18  C   -0.149986
    19  C    0.052682
    20  C    0.159300
    21  C    0.150454
    22  C   -0.058216
    23  C   -0.132057
    24  N   -0.293847
    25  C    0.056112
    26  C   -0.136571
    27  C   -0.061934
    28  C    0.031278
    29  C    0.149645
    30  C    0.086799
    31  C    0.003746
    32  N   -0.011784
    33  C    0.023668
    34  C   -0.216847
    35  C    0.041407
    36  C    0.005576
    37  C    0.181699
    38  C    0.004056
    39  O   -0.157224
    40  C   -0.083297
    41  C    0.215933
    42  O   -0.277990
    43  O   -0.241417
    44  C    0.146820
    45  C    0.282681
    46  C   -0.106055
    47  C   -0.126439
    48  C    0.023026
    49  C    0.064613
    50  C   -0.087267
    51  C    0.041911
    52  C   -0.090426
    53  C    0.112186
    54  C    0.021751
    55  C    0.005372
    56  C    0.054099
    57  C   -0.025455
    58  C   -0.004650
    59  C    0.008128
    60  C   -0.075044
    61  C   -0.059471
    62  C   -0.149589
    63  C    0.028944
    64  C    0.007592
    65  H   -0.037982
    66  H   -0.073696
    67  H   -0.037970
    68  H    0.016137
    69  H   -0.019584
    70  H   -0.016859
    71  H   -0.015417
    72  H    0.065088
    73  H    0.029944
    74  H    0.008334
    75  H    0.023511
    76  H    0.010880
    77  H   -0.018260
    78  H    0.017756
    79  H    0.040356
    80  H    0.038840
    81  H    0.051694
    82  H    0.048969
    83  H    0.058502
    84  H   -0.001590
    85  H   -0.033227
    86  H    0.001982
    87  H   -0.041857
    88  H    0.003074
    89  H    0.037046
    90  H    0.006157
    91  H    0.070547
    92  H   -0.022360
    93  H    0.034757
    94  H    0.062912
    95  H    0.032473
    96  H    0.040813
    97  H    0.046930
    98  H    0.046836
    99  H    0.015349
   100  H   -0.021726
   101  H    0.027545
   102  H    0.031337
   103  H    0.034800
   104  H   -0.002590
   105  H    0.021531
   106  H    0.014764
   107  H    0.016825
   108  H    0.004663
   109  H    0.018309
   110  H    0.004571
   111  H   -0.046226
   112  H   -0.007860
   113  H    0.008642
   114  H    0.022902
   115  H   -0.014762
   116  H    0.030815
   117  H   -0.012661
   118  H   -0.037404
   119  H    0.009792
   120  H   -0.017181
   121  H    0.036104
   122  H    0.012808
   123  H   -0.012128
   124  H   -0.003678
   125  H    0.008649
   126  H    0.016670
   127  H    0.014456
   128  H    0.026492
   129  H    0.016974
   130  H    0.013841
   131  H    0.012822
   132  H    0.023648
   133  H    0.021753
   134  H    0.032011
   135  H    0.008003
   136  H    0.014088
   137  H    0.157694
   138  H    0.232762
 Sum of Mulliken charges =   0.00000

 Dipole moment (field-independent basis, Debye):
    X=              3.6021    Y=              5.0967    Z=             -1.4472  Tot=              6.4067
 Quadrupole moment (field-independent basis, Debye-Ang):
   XX=           -337.8500   YY=           -384.1364   ZZ=           -400.0432
   XY=            -26.3588   XZ=             18.6428   YZ=             -1.1206

 Normal termination of Gaussian 09 at Tue Jul 30 22:45:49 2019.
