 Gaussian 09, Revision D.01,
 Gaussian 09:  ES64L-G09RevD.01 24-Apr-2013

 --------------------------
 # td=(NStates=1) B3LYP/SVP
 --------------------------

 --
 TD
 --
 Symbolic Z-matrix:
 Charge =  0 Multiplicity = 1

                         Standard orientation:
 ---------------------------------------------------------------------
 Center     Atomic      Atomic             Coordinates (Angstroms)
 Number     Number       Type             X           Y           Z
 ---------------------------------------------------------------------
      1          6           0       -5.134248   -1.930347    0.398720
      2          6           0       -4.656858    2.817011    1.312072
      3          6           0       -9.282486    3.379182   -0.185027
      4          6           0       -9.908996   -1.288411   -0.970748
      5          7           0       -5.206286    0.415375    0.872892
      6          6           0       -4.449222   -0.789164    0.893140
      7          6           0       -3.002409   -0.672720    1.272202
      8          6           0       -2.974606    0.815582    1.831608
      9          6           0       -4.317885    1.364756    1.281544
     10          6           0       -3.124038    0.821733    3.337206
     11          6           0       -2.083368   -0.795365   -0.015638
     12          6           0       -0.595858   -0.909830    0.493958
     13          6           0        0.396740   -1.230642   -0.623921
     14          8           0        0.041282   -1.684412   -1.686527
     15          8           0        1.672342   -1.034123   -0.360001
     16          7           0       -6.992899    2.811437    0.487396
     17          6           0       -5.889207    3.358736    0.985511
     18          6           0       -6.151774    4.829140    1.139454
     19          6           0       -7.433319    4.972155    0.547689
     20          6           0       -8.043071    3.710008    0.323984
     21          6           0       -5.057176    5.857094    1.637995
     22          6           0       -8.015198    6.337194    0.383445
     23          6           0       -8.817760    6.710502   -0.549787
     24          7           0       -9.184545    1.032374   -0.509142
     25          6           0       -9.764424    2.179649   -0.457207
     26          6           0      -11.187968    2.103509   -0.943926
     27          6           0      -11.461570    0.715570   -1.080466
     28          6           0      -10.080443    0.076372   -0.881259
     29          6           0      -12.186137    3.144035   -1.017167
     30          6           0      -12.592937   -0.026929   -1.592175
     31          6           0      -12.640948   -0.156729   -3.081963
     32          7           0       -7.482576   -1.165438   -0.310992
     33          6           0       -8.620089   -1.983882   -0.699254
     34          6           0       -8.218952   -3.327805   -0.579686
     35          6           0       -6.874295   -3.371127   -0.398892
     36          6           0       -6.466563   -2.011219   -0.027481
     37          6           0       -9.154854   -4.560178   -1.026258
     38          6           0       -5.864619   -4.229562    0.038642
     39          8           0       -5.844899   -5.484137    0.121840
     40          6           0       -4.608120   -3.410301    0.368358
     41          6           0       -3.945391   -3.872129    1.717432
     42          8           0       -4.333877   -3.513973    2.851709
     43          8           0       -2.958470   -4.782038    1.478885
     44          6           0       -2.550056   -5.394669    2.675630
     45          6           0        2.715565   -1.462052   -1.289254
     46          6           0        4.006352   -0.944766   -0.762259
     47          6           0        5.003932   -0.322298   -1.480416
     48          6           0        5.054629    0.041292   -3.000797
     49          6           0        6.301508    0.101873   -0.629237
     50          6           0        7.531555   -0.652493   -1.139217
     51          6           0        8.728769   -0.269933   -0.168762
     52          6           0       10.091842   -1.011530   -0.544542
     53          6           0       10.013953   -2.579695   -0.200907
     54          6           0       11.214285   -0.259832    0.149156
     55          6           0       12.573522   -0.602213   -0.320700
     56          6           0       13.758004    0.135825    0.381816
     57          6           0       15.178069   -0.231866   -0.206657
     58          6           0       15.629983   -1.643435   -0.180522
     59          6           0       16.206725    0.764698    0.467590
     60          6           0       17.678716    0.838575   -0.068458
     61          6           0       18.529611    2.068673    0.514103
     62          6           0       20.067179    1.901071    0.053237
     63          6           0       20.076844    2.105624   -1.508696
     64          6           0       20.798337    2.993613    0.861349
     65          1           0       -3.754603    3.349258    1.622750
     66          1           0       -9.951120    4.418611   -0.564341
     67          1           0      -10.736143   -1.962957   -1.390532
     68          1           0       -2.835012   -1.355780    1.938999
     69          1           0       -2.047843    1.219231    1.683834
     70          1           0       -2.182262    0.527329    3.847079
     71          1           0       -3.087151    1.852425    3.642457
     72          1           0       -3.904907    0.038224    3.710099
     73          1           0       -2.426310   -1.495482   -0.764584
     74          1           0       -2.230419   -0.126583   -0.700756
     75          1           0       -0.255128   -0.124973    0.937408
     76          1           0       -0.422021   -1.787265    1.281177
     77          1           0       -4.287352    6.100585    0.913140
     78          1           0       -5.589056    6.800353    2.033594
     79          1           0       -4.512854    5.357663    2.439834
     80          1           0       -7.512982    7.105873    1.133147
     81          1           0       -9.146455    5.969740   -1.354751
     82          1           0       -9.190114    7.639297   -0.618994
     83          1           0      -12.048723    3.708184   -0.159362
     84          1           0      -11.836802    3.947346   -1.696729
     85          1           0      -13.342875    2.867457   -1.100344
     86          1           0      -12.785270   -0.862351   -0.948398
     87          1           0      -13.532847    0.638034   -1.211656
     88          1           0      -12.550232    0.894144   -3.519545
     89          1           0      -11.719320   -0.577573   -3.501195
     90          1           0      -13.519859   -0.652812   -3.684510
     91          1           0       -9.893882   -4.554820   -0.232714
     92          1           0       -9.728450   -4.510595   -1.868746
     93          1           0       -8.578873   -5.479034   -0.854827
     94          1           0       -3.626239   -3.536140   -0.278452
     95          1           0       -1.974848   -6.199055    2.233125
     96          1           0       -2.093489   -4.793548    3.420300
     97          1           0       -3.426654   -5.810938    3.324085
     98          1           0        2.616271   -2.485612   -1.665060
     99          1           0        2.411177   -0.826202   -2.083779
    100          1           0        4.056909   -0.845163    0.345015
    101          1           0        5.162809    1.150918   -3.185557
    102          1           0        5.828312   -0.604825   -3.453309
    103          1           0        3.989953   -0.205820   -3.626417
    104          1           0        6.540382    1.273900   -0.767766
    105          1           0        6.012192    0.149398    0.601451
    106          1           0        7.341951   -1.705805   -0.857363
    107          1           0        7.791995   -0.467585   -2.120181
    108          1           0        8.870215    0.947230   -0.071101
    109          1           0        8.487396   -0.617208    0.865746
    110          1           0       10.405238   -1.049450   -1.784188
    111          1           0        9.202115   -3.231900   -0.777658
    112          1           0       10.907111   -3.097546   -0.323627
    113          1           0        9.717619   -2.854589    1.067162
    114          1           0       11.154100    0.925214    0.065703
    115          1           0       11.116537   -0.458849    1.371896
    116          1           0       12.933398   -1.783208   -0.106629
    117          1           0       12.468721   -0.503529   -1.521759
    118          1           0       13.449290    1.362095    0.454638
    119          1           0       13.744184    0.077005    1.403108
    120          1           0       15.013411    0.097755   -1.249074
    121          1           0       14.880914   -2.159149   -0.688157
    122          1           0       16.539110   -1.688482   -0.807183
    123          1           0       15.638282   -1.867364    0.913157
    124          1           0       15.634457    1.680967    0.602468
    125          1           0       16.117493    0.531191    1.553498
    126          1           0       18.214629   -0.180065    0.111183
    127          1           0       17.479245    0.855174   -1.180183
    128          1           0       18.146805    3.078840    0.218210
    129          1           0       18.662717    2.052329    1.630586
    130          1           0       20.343741    1.005520    0.330057
    131          1           0       19.729423    3.237809   -1.764403
    132          1           0       21.010060    1.986197   -1.949801
    133          1           0       19.454817    1.368809   -2.049169
    134          1           0       20.850617    2.457439    1.832286
    135          1           0       21.946793    3.254998    0.627643
    136          1           0       20.461179    4.059626    0.742622
    137          1           0       -6.857642    1.756169    0.087626
    138          1           0       -7.698383   -0.160973   -0.137957
 ---------------------------------------------------------------------

 SCF Done:  E(RB3LYP) =  -2733.00372226     A.U. after   17 cycles

 Excitation energies and oscillator strengths:

 Excited State   1:      Singlet-A      2.0769 eV  596.96 nm  f=0.1996  <S**2>=0.000
     235 -> 238        0.29063
     236 -> 237        0.64488
 This state for optimization and/or second-order correction.
 Total Energy, E(TD-HF/TD-KS) =  -2732.92739628
 Copying the excited state density for this state as the 1-particle RhoCI density.

 The electronic state is 1-A.
 Alpha  occ. eigenvalues --  -19.18897 -19.17528 -19.12705 -19.11102 -19.10407
 Alpha  occ. eigenvalues --  -14.37528 -14.36887 -14.33557 -14.30332 -10.31946
 Alpha  occ. eigenvalues --  -10.30970 -10.26499 -10.24833 -10.24249 -10.24115
 Alpha  occ. eigenvalues --  -10.24109 -10.23875 -10.23683 -10.23512 -10.23468
 Alpha  occ. eigenvalues --  -10.22137 -10.21922 -10.21917 -10.21816 -10.21718
 Alpha  occ. eigenvalues --  -10.21663 -10.21491 -10.21408 -10.21381 -10.21293
 Alpha  occ. eigenvalues --  -10.21034 -10.20907 -10.20869 -10.20804 -10.20781
 Alpha  occ. eigenvalues --  -10.20599 -10.20599 -10.20592 -10.20503 -10.20434
 Alpha  occ. eigenvalues --  -10.20333 -10.20333 -10.20039 -10.19928 -10.19699
 Alpha  occ. eigenvalues --  -10.19659 -10.19341 -10.19283 -10.19235 -10.19213
 Alpha  occ. eigenvalues --  -10.19157 -10.19102 -10.19038 -10.18991 -10.18879
 Alpha  occ. eigenvalues --  -10.18715 -10.18621 -10.18596 -10.18533 -10.18424
 Alpha  occ. eigenvalues --  -10.18257 -10.17993 -10.17637 -10.17552  -1.09867
 Alpha  occ. eigenvalues --   -1.09540  -0.99831  -0.99512  -0.99085  -0.98541
 Alpha  occ. eigenvalues --   -0.96856  -0.94844  -0.93468  -0.84059  -0.82002
 Alpha  occ. eigenvalues --   -0.81693  -0.81498  -0.81002  -0.80905  -0.80115
 Alpha  occ. eigenvalues --   -0.79959  -0.79858  -0.79200  -0.78693  -0.77997
 Alpha  occ. eigenvalues --   -0.76901  -0.76061  -0.75465  -0.75340  -0.74237
 Alpha  occ. eigenvalues --   -0.73447  -0.73117  -0.72514  -0.71454  -0.70513
 Alpha  occ. eigenvalues --   -0.70408  -0.68862  -0.68530  -0.67477  -0.67448
 Alpha  occ. eigenvalues --   -0.67180  -0.67009  -0.66261  -0.65815  -0.65341
 Alpha  occ. eigenvalues --   -0.64104  -0.63894  -0.62262  -0.62128  -0.61644
 Alpha  occ. eigenvalues --   -0.60553  -0.59504  -0.58770  -0.58447  -0.57201
 Alpha  occ. eigenvalues --   -0.56791  -0.56605  -0.56311  -0.55970  -0.55577
 Alpha  occ. eigenvalues --   -0.55226  -0.54733  -0.53748  -0.53444  -0.52964
 Alpha  occ. eigenvalues --   -0.52474  -0.51840  -0.51780  -0.50713  -0.50014
 Alpha  occ. eigenvalues --   -0.49641  -0.49318  -0.48795  -0.48619  -0.48152
 Alpha  occ. eigenvalues --   -0.47562  -0.47391  -0.47202  -0.47138  -0.46744
 Alpha  occ. eigenvalues --   -0.46500  -0.46352  -0.45962  -0.45680  -0.45584
 Alpha  occ. eigenvalues --   -0.45433  -0.45189  -0.44663  -0.44572  -0.44365
 Alpha  occ. eigenvalues --   -0.44299  -0.44060  -0.43813  -0.43748  -0.43426
 Alpha  occ. eigenvalues --   -0.43117  -0.42942  -0.42789  -0.42632  -0.42511
 Alpha  occ. eigenvalues --   -0.42350  -0.42115  -0.42097  -0.41698  -0.41295
 Alpha  occ. eigenvalues --   -0.41256  -0.41196  -0.40959  -0.40745  -0.40375
 Alpha  occ. eigenvalues --   -0.40127  -0.39716  -0.39440  -0.39335  -0.39244
 Alpha  occ. eigenvalues --   -0.38925  -0.38848  -0.38711  -0.38453  -0.38415
 Alpha  occ. eigenvalues --   -0.38179  -0.38042  -0.38000  -0.37656  -0.37631
 Alpha  occ. eigenvalues --   -0.37499  -0.36960  -0.36600  -0.36581  -0.36344
 Alpha  occ. eigenvalues --   -0.36281  -0.35900  -0.35779  -0.35554  -0.35428
 Alpha  occ. eigenvalues --   -0.35352  -0.35197  -0.34985  -0.34785  -0.34751
 Alpha  occ. eigenvalues --   -0.34531  -0.34366  -0.34246  -0.34178  -0.34002
 Alpha  occ. eigenvalues --   -0.33577  -0.33452  -0.33075  -0.32869  -0.32550
 Alpha  occ. eigenvalues --   -0.32100  -0.31998  -0.31908  -0.31626  -0.31520
 Alpha  occ. eigenvalues --   -0.31054  -0.30908  -0.30482  -0.30244  -0.30204
 Alpha  occ. eigenvalues --   -0.29647  -0.29166  -0.28886  -0.27998  -0.27774
 Alpha  occ. eigenvalues --   -0.27301  -0.26955  -0.26626  -0.26341  -0.26077
 Alpha  occ. eigenvalues --   -0.24777  -0.24322  -0.24011  -0.22403  -0.20031
 Alpha  occ. eigenvalues --   -0.19033
 Alpha virt. eigenvalues --   -0.10460  -0.07270  -0.04602  -0.01477  -0.01034
 Alpha virt. eigenvalues --   -0.00739   0.00060   0.00682   0.01321   0.03381
 Alpha virt. eigenvalues --    0.03602   0.03915   0.04070   0.04327   0.04665

 Mulliken charges:
               1
     1  C    0.017801
     2  C   -0.094055
     3  C   -0.220921
     4  C   -0.087043
     5  N   -0.213672
     6  C   -0.105698
     7  C    0.130557
     8  C   -0.008766
     9  C   -0.020106
    10  C    0.061429
    11  C    0.154615
    12  C    0.119745
    13  C    0.125210
    14  O   -0.252232
    15  O   -0.317551
    16  N   -0.109403
    17  C    0.156281
    18  C   -0.163983
    19  C   -0.021599
    20  C    0.122211
    21  C    0.095974
    22  C   -0.036866
    23  C    0.003442
    24  N   -0.164189
    25  C    0.131098
    26  C   -0.181970
    27  C   -0.143915
    28  C    0.072165
    29  C    0.150338
    30  C    0.082818
    31  C    0.016118
    32  N   -0.078477
    33  C    0.045547
    34  C   -0.145702
    35  C    0.009750
    36  C    0.064504
    37  C    0.146676
    38  C    0.105628
    39  O   -0.237639
    40  C   -0.039285
    41  C    0.194686
    42  O   -0.267218
    43  O   -0.278918
    44  C    0.183195
    45  C    0.327241
    46  C   -0.109267
    47  C   -0.112412
    48  C   -0.010216
    49  C   -0.064976
    50  C    0.098789
    51  C   -0.034355
    52  C   -0.090482
    53  C   -0.039518
    54  C   -0.005696
    55  C   -0.041842
    56  C   -0.009627
    57  C   -0.107034
    58  C    0.122922
    59  C    0.036675
    60  C    0.026212
    61  C    0.003338
    62  C   -0.030374
    63  C    0.029051
    64  C   -0.012556
    65  H   -0.024829
    66  H    0.036105
    67  H    0.020864
    68  H   -0.075214
    69  H   -0.043763
    70  H   -0.005480
    71  H   -0.005086
    72  H    0.060567
    73  H    0.001717
    74  H   -0.067204
    75  H   -0.042321
    76  H    0.050359
    77  H    0.036075
    78  H    0.036862
    79  H    0.022467
    80  H    0.017944
    81  H    0.040675
    82  H   -0.012722
    83  H   -0.013399
    84  H   -0.002262
    85  H    0.048052
    86  H   -0.002433
    87  H   -0.004351
    88  H    0.008626
    89  H    0.003325
    90  H    0.032273
    91  H    0.001898
    92  H    0.008317
    93  H    0.035766
    94  H    0.072998
    95  H    0.033498
    96  H    0.013506
    97  H    0.037339
    98  H    0.044271
    99  H   -0.003537
   100  H    0.011367
   101  H    0.049821
   102  H    0.046900
   103  H    0.033003
   104  H    0.010298
   105  H    0.033573
   106  H    0.011669
   107  H    0.001864
   108  H    0.016639
   109  H    0.008801
   110  H    0.015914
   111  H    0.037223
   112  H    0.005144
   113  H    0.011801
   114  H    0.020456
   115  H    0.010798
   116  H    0.023489
   117  H    0.016038
   118  H   -0.010567
   119  H   -0.037434
   120  H   -0.014914
   121  H   -0.012586
   122  H    0.015129
   123  H    0.013168
   124  H   -0.030639
   125  H   -0.035509
   126  H    0.015404
   127  H    0.017316
   128  H    0.010689
   129  H    0.000991
   130  H   -0.048548
   131  H    0.014949
   132  H   -0.012804
   133  H    0.007996
   134  H    0.020189
   135  H    0.002167
   136  H    0.023275
   137  H    0.214099
   138  H    0.145468
 Sum of Mulliken charges =   0.00000

 Dipole moment (field-independent basis, Debye):
    X=              4.0516    Y=              5.7438    Z=              0.0175  Tot=              7.0290
 Quadrupole moment (field-independent basis, Debye-Ang):
   XX=           -362.6299   YY=           -391.5788   ZZ=           -394.7828
   XY=            -39.5218   XZ=             10.7666   YZ=              1.2151

 Normal termination of Gaussian 09 at Mon Aug  5 06:58:02 2019.
