 Gaussian 09, Revision D.01,
 Gaussian 09:  ES64L-G09RevD.01 24-Apr-2013

 --------------------------
 # td=(NStates=1) B3LYP/SVP
 --------------------------

 --
 TD
 --
 Symbolic Z-matrix:
 Charge =  0 Multiplicity = 1

                         Standard orientation:
 ---------------------------------------------------------------------
 Center     Atomic      Atomic             Coordinates (Angstroms)
 Number     Number       Type             X           Y           Z
 ---------------------------------------------------------------------
      1          6           0       -5.043469   -1.899017    0.333387
      2          6           0       -4.798669    2.820871    1.297715
      3          6           0       -9.442327    3.241608   -0.210125
      4          6           0       -9.745700   -1.567237   -0.844771
      5          7           0       -5.293542    0.490078    0.704643
      6          6           0       -4.528847   -0.610572    0.755819
      7          6           0       -3.092138   -0.458165    1.086843
      8          6           0       -3.139277    1.050459    1.570643
      9          6           0       -4.415670    1.480104    1.182045
     10          6           0       -2.893623    1.293040    3.127231
     11          6           0       -2.096626   -0.814136    0.043217
     12          6           0       -0.685500   -0.763679    0.521541
     13          6           0        0.392254   -0.890454   -0.627426
     14          8           0        0.082772   -1.484425   -1.770612
     15          8           0        1.630597   -0.613886   -0.228702
     16          7           0       -7.092081    2.745889    0.534821
     17          6           0       -6.031907    3.414847    0.971509
     18          6           0       -6.427385    4.770381    1.037928
     19          6           0       -7.684641    4.940898    0.538388
     20          6           0       -8.186257    3.573148    0.225897
     21          6           0       -5.522872    5.872004    1.536127
     22          6           0       -8.375994    6.270146    0.345808
     23          6           0       -9.168286    6.578204   -0.723723
     24          7           0       -9.217235    0.769045   -0.378834
     25          6           0       -9.876656    1.944022   -0.472533
     26          6           0      -11.364228    1.683525   -0.995731
     27          6           0      -11.437780    0.266102   -1.169824
     28          6           0      -10.048573   -0.211735   -0.810060
     29          6           0      -12.496160    2.644248   -1.125744
     30          6           0      -12.732231   -0.537068   -1.583405
     31          6           0      -12.685998   -0.746135   -3.071382
     32          7           0       -7.464056   -1.319359   -0.192049
     33          6           0       -8.447350   -2.151881   -0.684550
     34          6           0       -8.047737   -3.510149   -0.683454
     35          6           0       -6.732537   -3.409940   -0.310964
     36          6           0       -6.385818   -2.052043    0.029514
     37          6           0       -8.821772   -4.662870   -1.135103
     38          6           0       -5.564119   -4.272356    0.003102
     39          8           0       -5.345113   -5.445907   -0.130623
     40          6           0       -4.380687   -3.260878    0.413586
     41          6           0       -3.938712   -3.703269    1.765801
     42          8           0       -4.299177   -3.339575    2.895114
     43          8           0       -2.936051   -4.724666    1.648960
     44          6           0       -2.519857   -5.293960    3.006670
     45          6           0        2.793086   -0.924600   -1.160413
     46          6           0        4.016926   -0.675327   -0.500695
     47          6           0        4.934421    0.207802   -0.928695
     48          6           0        4.888648    1.044506   -2.131053
     49          6           0        6.283755    0.251999   -0.077913
     50          6           0        7.436761   -0.293217   -0.863458
     51          6           0        8.798368   -0.097154   -0.030850
     52          6           0       10.055229   -0.697933   -0.702237
     53          6           0       10.033732   -2.205886   -0.611202
     54          6           0       11.284601   -0.098325   -0.003447
     55          6           0       12.649767   -0.458305   -0.590235
     56          6           0       13.858645    0.077075    0.131277
     57          6           0       15.214228   -0.297993   -0.421256
     58          6           0       15.587172   -1.722121   -0.292654
     59          6           0       16.320352    0.593339    0.352649
     60          6           0       17.732875    0.518359   -0.194291
     61          6           0       18.650847    1.549947    0.490528
     62          6           0       20.140758    1.424406   -0.080628
     63          6           0       20.254870    2.111014   -1.405934
     64          6           0       21.048324    2.236189    0.953082
     65          1           0       -3.804242    3.410431    1.687629
     66          1           0      -10.245269    3.945086   -0.381110
     67          1           0      -10.542914   -2.303286   -1.266774
     68          1           0       -2.860090   -1.026334    1.949709
     69          1           0       -2.171341    1.651383    1.335783
     70          1           0       -1.867516    0.909567    3.489183
     71          1           0       -2.745313    2.225646    3.362255
     72          1           0       -3.709536    0.999060    3.807458
     73          1           0       -2.030678   -1.855449   -0.380082
     74          1           0       -2.171698   -0.091406   -1.003143
     75          1           0       -0.451486    0.101191    0.977097
     76          1           0       -0.530744   -1.649351    1.286441
     77          1           0       -4.844435    6.535848    0.554888
     78          1           0       -6.167067    6.841366    1.892226
     79          1           0       -4.856732    5.640855    2.391462
     80          1           0       -8.233022    6.823485    1.186528
     81          1           0       -9.464291    5.945769   -1.353492
     82          1           0       -9.751715    7.498407   -0.713903
     83          1           0      -13.027924    3.081606   -0.272226
     84          1           0      -11.981163    3.500202   -1.790480
     85          1           0      -13.255582    2.314353   -1.785893
     86          1           0      -12.834193   -1.461395   -1.155034
     87          1           0      -13.455666    0.188463   -1.334567
     88          1           0      -12.643459    0.079857   -3.562321
     89          1           0      -11.864432   -1.243986   -3.545640
     90          1           0      -13.664124   -1.285625   -3.665936
     91          1           0       -9.491948   -4.935486   -0.294937
     92          1           0       -9.391754   -4.688503   -2.117575
     93          1           0       -8.366638   -5.602910   -0.972890
     94          1           0       -3.430890   -3.436600   -0.302700
     95          1           0       -1.387989   -5.723995    2.851336
     96          1           0       -2.407079   -4.268315    3.703298
     97          1           0       -3.262840   -5.900306    3.288422
     98          1           0        2.959799   -2.029275   -1.407180
     99          1           0        2.695238   -0.154159   -2.131638
    100          1           0        4.262218   -1.181081    0.608892
    101          1           0        5.209953    2.075331   -1.646196
    102          1           0        5.676532    0.724620   -2.913067
    103          1           0        3.872401    0.977703   -2.600848
    104          1           0        6.400275    1.327729    0.208986
    105          1           0        6.320100   -0.176042    1.008717
    106          1           0        7.372529   -1.338717   -1.105873
    107          1           0        7.456826    0.137474   -1.775376
    108          1           0        9.064813    1.116191    0.254043
    109          1           0        8.579260   -0.359917    0.988080
    110          1           0       10.039351   -0.302431   -1.668217
    111          1           0        9.010643   -2.794917   -1.046163
    112          1           0       10.800034   -2.720330   -1.265865
    113          1           0        9.891706   -2.669526    0.486019
    114          1           0       11.296270    0.950392   -0.057761
    115          1           0       11.314162   -0.219296    0.952031
    116          1           0       12.769180   -1.584600   -0.578400
    117          1           0       12.626378   -0.157018   -1.646945
    118          1           0       13.777181    1.127011    0.344901
    119          1           0       13.827528   -0.182621    1.120674
    120          1           0       15.373928   -0.000729   -1.502929
    121          1           0       14.650131   -2.507546   -0.668632
    122          1           0       16.464013   -2.074875   -0.925382
    123          1           0       15.993274   -2.074214    0.800717
    124          1           0       16.089455    1.774735    0.312295
    125          1           0       16.256742    0.156486    1.320585
    126          1           0       18.176349   -0.415478   -0.094596
    127          1           0       17.761138    0.783091   -1.206143
    128          1           0       18.433924    2.660310    0.198253
    129          1           0       18.804991    1.543689    1.523907
    130          1           0       20.174850    0.409277   -0.050455
    131          1           0       19.941858    3.170283   -1.510951
    132          1           0       21.263186    2.068814   -1.626578
    133          1           0       19.598700    1.459478   -2.168806
    134          1           0       20.693295    2.117464    2.160151
    135          1           0       22.176114    1.886046    0.826422
    136          1           0       21.146962    3.477369    0.554159
    137          1           0       -7.117309    1.808511    0.184275
    138          1           0       -7.483331   -0.391794    0.227411
 ---------------------------------------------------------------------

 SCF Done:  E(RB3LYP) =  -2732.95346303     A.U. after   17 cycles

 Excitation energies and oscillator strengths:

 Excited State   1:      Singlet-A      2.0458 eV  606.05 nm  f=0.2230  <S**2>=0.000
     235 -> 237       -0.14410
     235 -> 238        0.26742
     236 -> 237        0.63121
 This state for optimization and/or second-order correction.
 Total Energy, E(TD-HF/TD-KS) =  -2732.87828244
 Copying the excited state density for this state as the 1-particle RhoCI density.

 The electronic state is 1-A.
 Alpha  occ. eigenvalues --  -19.19374 -19.15808 -19.12355 -19.12259 -19.11390
 Alpha  occ. eigenvalues --  -14.37014 -14.36707 -14.33231 -14.30391 -10.32275
 Alpha  occ. eigenvalues --  -10.31286 -10.27936 -10.27004 -10.25020 -10.23901
 Alpha  occ. eigenvalues --  -10.23775 -10.23363 -10.23135 -10.22775 -10.22618
 Alpha  occ. eigenvalues --  -10.22519 -10.22037 -10.21940 -10.21918 -10.21593
 Alpha  occ. eigenvalues --  -10.21532 -10.21351 -10.21253 -10.20787 -10.20718
 Alpha  occ. eigenvalues --  -10.20653 -10.20609 -10.20459 -10.20437 -10.20398
 Alpha  occ. eigenvalues --  -10.20387 -10.20381 -10.20145 -10.19991 -10.19940
 Alpha  occ. eigenvalues --  -10.19932 -10.19894 -10.19891 -10.19823 -10.19717
 Alpha  occ. eigenvalues --  -10.19631 -10.19593 -10.19337 -10.19278 -10.19211
 Alpha  occ. eigenvalues --  -10.19025 -10.18911 -10.18868 -10.18679 -10.18662
 Alpha  occ. eigenvalues --  -10.18440 -10.18132 -10.18067 -10.17716 -10.17508
 Alpha  occ. eigenvalues --  -10.17453 -10.17165 -10.16756 -10.16164  -1.07774
 Alpha  occ. eigenvalues --   -1.04999  -1.03224  -0.99680  -0.99008  -0.96802
 Alpha  occ. eigenvalues --   -0.95248  -0.95068  -0.92601  -0.84319  -0.83489
 Alpha  occ. eigenvalues --   -0.82491  -0.82031  -0.81908  -0.81602  -0.81357
 Alpha  occ. eigenvalues --   -0.80720  -0.80031  -0.79506  -0.79153  -0.78001
 Alpha  occ. eigenvalues --   -0.77241  -0.76082  -0.75676  -0.75229  -0.74787
 Alpha  occ. eigenvalues --   -0.73946  -0.73107  -0.72366  -0.72089  -0.71615
 Alpha  occ. eigenvalues --   -0.69953  -0.68445  -0.68235  -0.67665  -0.67217
 Alpha  occ. eigenvalues --   -0.66739  -0.66546  -0.66374  -0.65494  -0.64574
 Alpha  occ. eigenvalues --   -0.64254  -0.63824  -0.62736  -0.62388  -0.61410
 Alpha  occ. eigenvalues --   -0.60884  -0.59729  -0.58973  -0.58018  -0.57884
 Alpha  occ. eigenvalues --   -0.57443  -0.57222  -0.56664  -0.56161  -0.55988
 Alpha  occ. eigenvalues --   -0.55637  -0.55012  -0.54774  -0.53375  -0.52846
 Alpha  occ. eigenvalues --   -0.52286  -0.51706  -0.51194  -0.50328  -0.50192
 Alpha  occ. eigenvalues --   -0.49453  -0.49167  -0.48996  -0.48344  -0.48313
 Alpha  occ. eigenvalues --   -0.47689  -0.47610  -0.47457  -0.47074  -0.46809
 Alpha  occ. eigenvalues --   -0.46327  -0.45837  -0.45806  -0.45769  -0.45593
 Alpha  occ. eigenvalues --   -0.45469  -0.45257  -0.45011  -0.44813  -0.44718
 Alpha  occ. eigenvalues --   -0.44475  -0.44414  -0.44150  -0.44112  -0.43813
 Alpha  occ. eigenvalues --   -0.43564  -0.43274  -0.43032  -0.42840  -0.42490
 Alpha  occ. eigenvalues --   -0.42360  -0.42031  -0.41868  -0.41549  -0.41331
 Alpha  occ. eigenvalues --   -0.41251  -0.41081  -0.40806  -0.40686  -0.40290
 Alpha  occ. eigenvalues --   -0.40218  -0.39766  -0.39586  -0.39444  -0.39207
 Alpha  occ. eigenvalues --   -0.39186  -0.38934  -0.38705  -0.38416  -0.38307
 Alpha  occ. eigenvalues --   -0.38155  -0.38129  -0.37873  -0.37665  -0.37383
 Alpha  occ. eigenvalues --   -0.37255  -0.37179  -0.37067  -0.36736  -0.36378
 Alpha  occ. eigenvalues --   -0.36360  -0.36097  -0.35897  -0.35628  -0.35620
 Alpha  occ. eigenvalues --   -0.35542  -0.35172  -0.35098  -0.34868  -0.34506
 Alpha  occ. eigenvalues --   -0.34503  -0.34371  -0.34304  -0.33960  -0.33777
 Alpha  occ. eigenvalues --   -0.33522  -0.33380  -0.33101  -0.32956  -0.32290
 Alpha  occ. eigenvalues --   -0.32229  -0.32043  -0.31745  -0.31367  -0.31336
 Alpha  occ. eigenvalues --   -0.31132  -0.30966  -0.30037  -0.29846  -0.29544
 Alpha  occ. eigenvalues --   -0.29394  -0.29319  -0.29065  -0.27965  -0.27455
 Alpha  occ. eigenvalues --   -0.27129  -0.26874  -0.26479  -0.26208  -0.26123
 Alpha  occ. eigenvalues --   -0.25044  -0.24641  -0.24547  -0.22440  -0.20063
 Alpha  occ. eigenvalues --   -0.18453
 Alpha virt. eigenvalues --   -0.10102  -0.07294  -0.04060  -0.02347  -0.02305
 Alpha virt. eigenvalues --   -0.00654  -0.00409   0.00049   0.01492   0.03337
 Alpha virt. eigenvalues --    0.03660   0.03785   0.03966   0.04031   0.04121

 Mulliken charges:
               1
     1  C   -0.013747
     2  C   -0.130581
     3  C   -0.071813
     4  C   -0.116046
     5  N   -0.195593
     6  C   -0.050117
     7  C    0.131838
     8  C   -0.125844
     9  C    0.048491
    10  C    0.080953
    11  C   -0.017475
    12  C    0.047616
    13  C    0.223764
    14  O   -0.339462
    15  O   -0.302582
    16  N   -0.028074
    17  C    0.132891
    18  C   -0.083808
    19  C   -0.006779
    20  C    0.122765
    21  C   -0.032530
    22  C   -0.009120
    23  C    0.082477
    24  N   -0.206468
    25  C    0.018862
    26  C   -0.155850
    27  C   -0.145991
    28  C    0.073437
    29  C    0.059626
    30  C    0.222967
    31  C    0.028026
    32  N    0.013161
    33  C    0.048695
    34  C   -0.120901
    35  C   -0.020209
    36  C    0.030737
    37  C    0.140059
    38  C    0.078164
    39  O   -0.141799
    40  C   -0.089797
    41  C    0.231180
    42  O   -0.252072
    43  O   -0.386469
    44  C    0.149375
    45  C    0.233906
    46  C   -0.118666
    47  C   -0.180509
    48  C    0.055216
    49  C    0.013540
    50  C    0.134159
    51  C   -0.068709
    52  C    0.075176
    53  C   -0.055430
    54  C    0.114298
    55  C    0.046737
    56  C    0.125295
    57  C   -0.040356
    58  C   -0.074199
    59  C   -0.013739
    60  C    0.133303
    61  C   -0.009046
    62  C   -0.064993
    63  C    0.051701
    64  C   -0.107100
    65  H    0.017003
    66  H   -0.027964
    67  H    0.008684
    68  H   -0.018207
    69  H    0.025111
    70  H    0.012277
    71  H   -0.043512
    72  H    0.024634
    73  H    0.036948
    74  H    0.037700
    75  H   -0.026147
    76  H    0.054408
    77  H    0.044064
    78  H    0.026231
    79  H    0.040193
    80  H   -0.018484
    81  H   -0.046091
    82  H    0.022463
    83  H    0.042178
    84  H    0.024753
    85  H   -0.000612
    86  H   -0.015556
    87  H   -0.012456
    88  H   -0.053956
    89  H   -0.002529
    90  H    0.003410
    91  H    0.006488
    92  H    0.058017
    93  H   -0.008890
    94  H    0.098494
    95  H    0.062234
    96  H    0.064776
    97  H    0.026138
    98  H    0.064340
    99  H    0.065309
   100  H    0.033093
   101  H    0.045712
   102  H    0.055500
   103  H    0.017240
   104  H   -0.002607
   105  H    0.005646
   106  H   -0.016532
   107  H   -0.045798
   108  H   -0.007371
   109  H   -0.018415
   110  H   -0.031134
   111  H    0.009431
   112  H    0.034475
   113  H    0.030302
   114  H   -0.037310
   115  H   -0.077459
   116  H   -0.007490
   117  H   -0.019172
   118  H   -0.043309
   119  H   -0.059611
   120  H   -0.007223
   121  H    0.032253
   122  H    0.021503
   123  H    0.019856
   124  H    0.017696
   125  H   -0.014816
   126  H   -0.027818
   127  H   -0.031300
   128  H   -0.008473
   129  H   -0.030065
   130  H   -0.031659
   131  H    0.019964
   132  H   -0.009457
   133  H    0.015819
   134  H    0.046228
   135  H    0.030116
   136  H    0.034114
   137  H    0.135820
   138  H    0.158262
 Sum of Mulliken charges =   0.00000

 Dipole moment (field-independent basis, Debye):
    X=              3.2502    Y=              4.3907    Z=              1.0800  Tot=              5.5685
 Quadrupole moment (field-independent basis, Debye-Ang):
   XX=           -335.0126   YY=           -389.4503   ZZ=           -395.2785
   XY=            -23.5039   XZ=              3.4357   YZ=             -1.5319

 Normal termination of Gaussian 09 at Sat Aug  3 20:06:12 2019.
