 Gaussian 09, Revision D.01,
 Gaussian 09:  ES64L-G09RevD.01 24-Apr-2013

 --------------------------
 # td=(NStates=1) B3LYP/SVP
 --------------------------

 --
 TD
 --
 Symbolic Z-matrix:
 Charge =  0 Multiplicity = 1

                         Standard orientation:
 ---------------------------------------------------------------------
 Center     Atomic      Atomic             Coordinates (Angstroms)
 Number     Number       Type             X           Y           Z
 ---------------------------------------------------------------------
      1          6           0       -5.245929   -2.030915    0.461901
      2          6           0       -4.643140    2.560963    1.459704
      3          6           0       -9.038742    3.609169   -0.154985
      4          6           0       -9.848467   -1.120402   -0.865913
      5          7           0       -5.190227    0.265690    0.800635
      6          6           0       -4.552219   -0.917830    0.684733
      7          6           0       -3.072516   -0.887230    1.196020
      8          6           0       -2.990373    0.532839    1.723058
      9          6           0       -4.416861    1.216846    1.335471
     10          6           0       -3.005233    0.447843    3.282500
     11          6           0       -2.038446   -0.998976   -0.024276
     12          6           0       -0.574752   -1.095510    0.499137
     13          6           0        0.315368   -1.172854   -0.647500
     14          8           0        0.100983   -1.534017   -1.793415
     15          8           0        1.591024   -1.120623   -0.212332
     16          7           0       -6.871382    2.782551    0.508244
     17          6           0       -5.773329    3.353258    1.136896
     18          6           0       -5.963601    4.734069    1.195659
     19          6           0       -7.171292    5.063008    0.761244
     20          6           0       -7.819398    3.731376    0.289093
     21          6           0       -4.880588    5.736403    1.716625
     22          6           0       -7.844684    6.358217    0.593217
     23          6           0       -8.572146    6.895694   -0.339116
     24          7           0       -9.163449    1.147976   -0.408904
     25          6           0       -9.669986    2.325838   -0.544233
     26          6           0      -11.008792    2.214150   -0.988749
     27          6           0      -11.352941    0.857008   -1.054508
     28          6           0      -10.073205    0.256303   -0.754079
     29          6           0      -11.960261    3.376426   -1.257436
     30          6           0      -12.597353    0.268547   -1.726079
     31          6           0      -12.260569   -0.050473   -3.257460
     32          7           0       -7.571511   -1.250538   -0.181123
     33          6           0       -8.714898   -1.887347   -0.544170
     34          6           0       -8.439557   -3.298721   -0.674420
     35          6           0       -7.072439   -3.380747   -0.266985
     36          6           0       -6.585094   -2.109525    0.046351
     37          6           0       -9.319342   -4.424433   -1.023861
     38          6           0       -6.022430   -4.326933   -0.003703
     39          8           0       -5.978392   -5.530967   -0.197215
     40          6           0       -4.754894   -3.440905    0.409163
     41          6           0       -4.069301   -4.087833    1.800639
     42          8           0       -4.298010   -3.655993    2.868169
     43          8           0       -3.199433   -5.075190    1.449796
     44          6           0       -2.707034   -5.703801    2.598763
     45          6           0        2.723023   -1.083493   -1.136251
     46          6           0        3.922047   -0.644903   -0.557696
     47          6           0        4.885202    0.012246   -1.152813
     48          6           0        4.691897    0.688303   -2.513072
     49          6           0        6.197996    0.302070   -0.340210
     50          6           0        7.373396   -0.389291   -0.995068
     51          6           0        8.782301   -0.222346   -0.165443
     52          6           0        9.983927   -0.640066   -0.874532
     53          6           0        9.945788   -2.175692   -1.292228
     54          6           0       11.281383   -0.385175    0.025747
     55          6           0       12.615570   -0.462654   -0.688326
     56          6           0       13.782518   -0.152159    0.143816
     57          6           0       15.255041   -0.167607   -0.404533
     58          6           0       15.652624   -1.537526   -0.848722
     59          6           0       16.192316    0.456042    0.563441
     60          6           0       17.625145    0.639819    0.014300
     61          6           0       18.567722    1.587217    0.720333
     62          6           0       20.035538    1.803105    0.314120
     63          6           0       20.181549    2.292163   -1.124230
     64          6           0       20.734665    2.633841    1.350877
     65          1           0       -3.820918    3.077146    1.703642
     66          1           0       -9.809085    4.381097   -0.250956
     67          1           0      -10.584621   -1.860368   -1.277441
     68          1           0       -2.915936   -1.640177    2.076364
     69          1           0       -2.326076    1.169675    1.433327
     70          1           0       -2.092098   -0.314098    3.564268
     71          1           0       -2.620761    1.506483    3.731571
     72          1           0       -3.927752   -0.076234    3.674244
     73          1           0       -2.099742   -2.007770   -0.596978
     74          1           0       -2.315985   -0.294238   -0.688520
     75          1           0       -0.316341   -0.306543    1.186022
     76          1           0       -0.762261   -2.144193    1.303865
     77          1           0       -3.923570    5.490030    1.049532
     78          1           0       -5.096678    6.779092    1.594759
     79          1           0       -4.602302    5.438153    2.627590
     80          1           0       -7.734783    7.153693    1.259650
     81          1           0       -8.590130    6.127103   -1.245575
     82          1           0       -8.989484    7.896114   -0.271456
     83          1           0      -12.301035    3.886751   -0.313853
     84          1           0      -11.571394    4.187851   -1.930158
     85          1           0      -12.868144    2.826004   -1.782607
     86          1           0      -12.626683   -0.578399   -1.218363
     87          1           0      -13.539921    0.931524   -1.706155
     88          1           0      -11.841174    0.829362   -4.062322
     89          1           0      -11.470538   -0.954317   -3.397179
     90          1           0      -13.292455   -0.252056   -3.711597
     91          1           0      -10.154858   -4.432272   -0.306862
     92          1           0       -9.492402   -4.505901   -2.087693
     93          1           0       -8.788589   -5.441180   -0.694014
     94          1           0       -4.108690   -3.735055   -0.381331
     95          1           0       -1.978671   -6.572339    2.282352
     96          1           0       -2.167220   -4.966874    3.219924
     97          1           0       -3.675384   -5.972530    3.283133
     98          1           0        2.916682   -2.307093   -1.377659
     99          1           0        2.366519   -0.572079   -2.019924
    100          1           0        4.290715   -1.207080    0.436366
    101          1           0        4.678045    1.803485   -2.308737
    102          1           0        5.382685    0.374722   -3.342578
    103          1           0        3.769016    0.524527   -2.951054
    104          1           0        6.223811    1.398482   -0.335750
    105          1           0        5.846862   -0.170302    0.743951
    106          1           0        7.140366   -1.443492   -0.897309
    107          1           0        7.543293   -0.123153   -2.033823
    108          1           0        8.899937    0.879937   -0.098318
    109          1           0        8.737484   -0.817071    0.613752
    110          1           0       10.056714   -0.025655   -1.911279
    111          1           0        9.160679   -2.454296   -2.007225
    112          1           0       11.083116   -2.418900   -1.714031
    113          1           0        9.643637   -2.900996   -0.471995
    114          1           0       11.203578    0.638172    0.467667
    115          1           0       11.300580   -1.112777    0.940710
    116          1           0       12.647051   -1.568799   -0.979353
    117          1           0       12.622550    0.317556   -1.505574
    118          1           0       13.883927    0.907367    0.506462
    119          1           0       13.584853   -0.650948    1.300342
    120          1           0       14.952164    0.328012   -1.370217
    121          1           0       14.960804   -2.136097   -1.212900
    122          1           0       16.652620   -1.547899   -1.186722
    123          1           0       15.811872   -2.365908    0.047561
    124          1           0       16.007230    1.533854    0.835255
    125          1           0       16.227379   -0.139313    1.431690
    126          1           0       17.996112   -0.408890   -0.322837
    127          1           0       17.374323    1.039548   -1.106632
    128          1           0       18.194794    2.690820    0.572421
    129          1           0       18.315506    1.420303    1.848210
    130          1           0       20.595823    0.741310    0.392081
    131          1           0       19.550199    3.232889   -1.314365
    132          1           0       21.301054    2.268158   -1.478897
    133          1           0       19.677408    1.708000   -1.698931
    134          1           0       20.547535    2.300484    2.377641
    135          1           0       21.776111    2.900761    0.991554
    136          1           0       20.187225    3.758922    1.255546
    137          1           0       -7.241123    1.845110    0.215238
    138          1           0       -7.728060   -0.097119    0.037216
 ---------------------------------------------------------------------

 SCF Done:  E(RB3LYP) =  -2732.99715355     A.U. after   16 cycles

 Excitation energies and oscillator strengths:

 Excited State   1:      Singlet-A      2.2371 eV  554.22 nm  f=0.1010  <S**2>=0.000
     235 -> 237       -0.24060
     235 -> 238       -0.32746
     236 -> 237        0.54014
     236 -> 238       -0.19885
 This state for optimization and/or second-order correction.
 Total Energy, E(TD-HF/TD-KS) =  -2732.91494242
 Copying the excited state density for this state as the 1-particle RhoCI density.

 The electronic state is 1-A.
 Alpha  occ. eigenvalues --  -19.18524 -19.16316 -19.13873 -19.12001 -19.11105
 Alpha  occ. eigenvalues --  -14.37247 -14.36589 -14.31278 -14.30382 -10.32178
 Alpha  occ. eigenvalues --  -10.31208 -10.26621 -10.25635 -10.25390 -10.25132
 Alpha  occ. eigenvalues --  -10.23438 -10.22772 -10.22538 -10.22422 -10.21935
 Alpha  occ. eigenvalues --  -10.21879 -10.21457 -10.21400 -10.21348 -10.21288
 Alpha  occ. eigenvalues --  -10.20992 -10.20952 -10.20907 -10.20890 -10.20644
 Alpha  occ. eigenvalues --  -10.20544 -10.20523 -10.20397 -10.20289 -10.20265
 Alpha  occ. eigenvalues --  -10.20099 -10.20082 -10.19995 -10.19856 -10.19828
 Alpha  occ. eigenvalues --  -10.19801 -10.19779 -10.19654 -10.19540 -10.19501
 Alpha  occ. eigenvalues --  -10.19436 -10.19385 -10.19354 -10.19252 -10.19238
 Alpha  occ. eigenvalues --  -10.19007 -10.19000 -10.18982 -10.18977 -10.18944
 Alpha  occ. eigenvalues --  -10.18638 -10.18578 -10.18323 -10.18281 -10.17962
 Alpha  occ. eigenvalues --  -10.17879 -10.17717 -10.17413 -10.16968  -1.10944
 Alpha  occ. eigenvalues --   -1.08493  -1.03347  -1.01321  -0.99196  -0.98946
 Alpha  occ. eigenvalues --   -0.98644  -0.96674  -0.93806  -0.84763  -0.83158
 Alpha  occ. eigenvalues --   -0.83094  -0.82756  -0.81750  -0.81337  -0.80758
 Alpha  occ. eigenvalues --   -0.80372  -0.79780  -0.79524  -0.78899  -0.77907
 Alpha  occ. eigenvalues --   -0.77761  -0.76963  -0.75891  -0.75052  -0.74337
 Alpha  occ. eigenvalues --   -0.73458  -0.72953  -0.72479  -0.71948  -0.71460
 Alpha  occ. eigenvalues --   -0.69901  -0.69191  -0.68511  -0.68368  -0.67949
 Alpha  occ. eigenvalues --   -0.67487  -0.66815  -0.66365  -0.66242  -0.65544
 Alpha  occ. eigenvalues --   -0.64104  -0.62211  -0.62019  -0.61499  -0.61103
 Alpha  occ. eigenvalues --   -0.60572  -0.58954  -0.58729  -0.58364  -0.57986
 Alpha  occ. eigenvalues --   -0.57041  -0.56587  -0.55954  -0.55130  -0.55000
 Alpha  occ. eigenvalues --   -0.54582  -0.54018  -0.53881  -0.53771  -0.53364
 Alpha  occ. eigenvalues --   -0.53019  -0.51992  -0.51679  -0.50948  -0.50352
 Alpha  occ. eigenvalues --   -0.49770  -0.49283  -0.49271  -0.49109  -0.48756
 Alpha  occ. eigenvalues --   -0.48316  -0.48041  -0.47930  -0.47626  -0.47233
 Alpha  occ. eigenvalues --   -0.46848  -0.46724  -0.46433  -0.46318  -0.46112
 Alpha  occ. eigenvalues --   -0.45852  -0.45482  -0.45325  -0.45057  -0.44885
 Alpha  occ. eigenvalues --   -0.44694  -0.44641  -0.44416  -0.44153  -0.43744
 Alpha  occ. eigenvalues --   -0.43487  -0.43429  -0.43276  -0.43085  -0.42846
 Alpha  occ. eigenvalues --   -0.42496  -0.42298  -0.41993  -0.41834  -0.41581
 Alpha  occ. eigenvalues --   -0.41369  -0.41262  -0.41026  -0.40696  -0.40499
 Alpha  occ. eigenvalues --   -0.40125  -0.39817  -0.39748  -0.39479  -0.39272
 Alpha  occ. eigenvalues --   -0.39144  -0.38932  -0.38510  -0.38329  -0.38092
 Alpha  occ. eigenvalues --   -0.38007  -0.37916  -0.37853  -0.37740  -0.37555
 Alpha  occ. eigenvalues --   -0.37480  -0.37210  -0.37127  -0.36989  -0.36859
 Alpha  occ. eigenvalues --   -0.36570  -0.36078  -0.36003  -0.35966  -0.35883
 Alpha  occ. eigenvalues --   -0.35684  -0.35438  -0.35017  -0.34847  -0.34719
 Alpha  occ. eigenvalues --   -0.34184  -0.34018  -0.33941  -0.33841  -0.33546
 Alpha  occ. eigenvalues --   -0.33402  -0.33197  -0.32900  -0.32824  -0.32338
 Alpha  occ. eigenvalues --   -0.32161  -0.31993  -0.31856  -0.31710  -0.31423
 Alpha  occ. eigenvalues --   -0.31173  -0.30683  -0.30239  -0.29816  -0.29707
 Alpha  occ. eigenvalues --   -0.29362  -0.29123  -0.28951  -0.28283  -0.28082
 Alpha  occ. eigenvalues --   -0.27563  -0.27435  -0.26490  -0.25724  -0.25536
 Alpha  occ. eigenvalues --   -0.25369  -0.25021  -0.23934  -0.22584  -0.20216
 Alpha  occ. eigenvalues --   -0.19345
 Alpha virt. eigenvalues --   -0.09814  -0.08317  -0.03631  -0.02920  -0.01026
 Alpha virt. eigenvalues --    0.00055   0.00546   0.01478   0.02943   0.03764
 Alpha virt. eigenvalues --    0.03972   0.04040   0.04313   0.04432   0.04843

 Mulliken charges:
               1
     1  C    0.118379
     2  C   -0.008911
     3  C   -0.115362
     4  C   -0.078587
     5  N   -0.154106
     6  C   -0.126191
     7  C   -0.055989
     8  C    0.022265
     9  C   -0.019559
    10  C   -0.027130
    11  C    0.055489
    12  C   -0.033921
    13  C    0.220477
    14  O   -0.241508
    15  O   -0.328124
    16  N   -0.075106
    17  C    0.145020
    18  C   -0.129639
    19  C    0.088316
    20  C    0.132387
    21  C    0.169765
    22  C   -0.068651
    23  C   -0.050695
    24  N   -0.175783
    25  C   -0.025720
    26  C   -0.151364
    27  C   -0.122397
    28  C    0.089873
    29  C    0.050764
    30  C    0.143859
    31  C   -0.107855
    32  N   -0.079585
    33  C   -0.033790
    34  C   -0.122636
    35  C    0.018252
    36  C    0.060470
    37  C    0.071648
    38  C    0.024746
    39  O   -0.186218
    40  C   -0.058122
    41  C    0.186287
    42  O   -0.179112
    43  O   -0.274703
    44  C    0.120510
    45  C    0.246478
    46  C   -0.078690
    47  C   -0.195041
    48  C    0.094017
    49  C    0.057929
    50  C    0.014047
    51  C    0.136492
    52  C   -0.102265
    53  C   -0.042944
    54  C   -0.030841
    55  C    0.102460
    56  C   -0.083833
    57  C   -0.052386
    58  C    0.103262
    59  C    0.081226
    60  C   -0.056582
    61  C   -0.015011
    62  C   -0.108164
    63  C    0.102255
    64  C    0.022590
    65  H   -0.093633
    66  H   -0.015216
    67  H   -0.012951
    68  H    0.041437
    69  H   -0.070425
    70  H    0.018383
    71  H    0.030824
    72  H    0.054223
    73  H    0.038309
    74  H   -0.019994
    75  H    0.022818
    76  H    0.079431
    77  H    0.027634
    78  H    0.022773
    79  H   -0.005187
    80  H   -0.026472
    81  H    0.037377
    82  H    0.029080
    83  H    0.032153
    84  H    0.024681
    85  H    0.019580
    86  H   -0.025511
    87  H    0.031878
    88  H    0.040276
    89  H    0.043346
    90  H    0.025202
    91  H    0.032382
    92  H    0.039870
    93  H    0.047835
    94  H    0.036044
    95  H    0.059949
    96  H    0.021237
    97  H    0.048503
    98  H    0.038906
    99  H    0.022125
   100  H    0.015206
   101  H    0.027205
   102  H    0.032313
   103  H   -0.028721
   104  H    0.006011
   105  H    0.021623
   106  H   -0.006818
   107  H    0.003699
   108  H   -0.000034
   109  H   -0.045448
   110  H    0.000580
   111  H    0.012837
   112  H    0.034426
   113  H    0.009159
   114  H   -0.009451
   115  H    0.009290
   116  H    0.017594
   117  H    0.004764
   118  H   -0.015042
   119  H   -0.013895
   120  H   -0.005048
   121  H   -0.040940
   122  H   -0.002225
   123  H   -0.029104
   124  H    0.001853
   125  H   -0.006878
   126  H    0.010776
   127  H   -0.001979
   128  H    0.000779
   129  H    0.008628
   130  H    0.001204
   131  H    0.001825
   132  H    0.031607
   133  H   -0.050505
   134  H    0.022884
   135  H    0.019066
   136  H   -0.006196
   137  H    0.159682
   138  H    0.229666
 Sum of Mulliken charges =   0.00000

 Dipole moment (field-independent basis, Debye):
    X=              1.6129    Y=              5.7222    Z=              0.4713  Tot=              5.9638
 Quadrupole moment (field-independent basis, Debye-Ang):
   XX=           -361.6935   YY=           -381.7614   ZZ=           -398.6599
   XY=            -31.0228   XZ=              1.2700   YZ=             -3.8484

 Normal termination of Gaussian 09 at Sun Jul 28 10:55:32 2019.
