 Gaussian 09, Revision D.01,
 Gaussian 09:  ES64L-G09RevD.01 24-Apr-2013

 --------------------------
 # td=(NStates=1) B3LYP/SVP
 --------------------------

 --
 TD
 --
 Symbolic Z-matrix:
 Charge =  0 Multiplicity = 1

                         Standard orientation:
 ---------------------------------------------------------------------
 Center     Atomic      Atomic             Coordinates (Angstroms)
 Number     Number       Type             X           Y           Z
 ---------------------------------------------------------------------
      1          6           0       -5.093467   -1.880939    0.414477
      2          6           0       -4.764517    2.763853    1.348019
      3          6           0       -9.395788    3.268671   -0.235783
      4          6           0       -9.804664   -1.546028   -0.880543
      5          7           0       -5.152994    0.540200    0.724008
      6          6           0       -4.437360   -0.685015    0.814135
      7          6           0       -3.083878   -0.548657    1.293127
      8          6           0       -3.145210    0.901458    1.899173
      9          6           0       -4.374829    1.467841    1.299492
     10          6           0       -3.126396    0.891964    3.477465
     11          6           0       -2.022751   -0.696982    0.217263
     12          6           0       -0.562825   -0.662775    0.530235
     13          6           0        0.361639   -1.012111   -0.617413
     14          8           0        0.060406   -1.495707   -1.608885
     15          8           0        1.642496   -0.650481   -0.281743
     16          7           0       -7.098721    2.726002    0.511565
     17          6           0       -5.944231    3.415368    0.851942
     18          6           0       -6.238294    4.824802    0.945665
     19          6           0       -7.519044    4.897030    0.477641
     20          6           0       -8.067967    3.549511    0.168551
     21          6           0       -5.299394    5.903034    1.422971
     22          6           0       -8.200113    6.262483    0.146900
     23          6           0       -9.265196    6.563010   -0.600659
     24          7           0       -9.244322    0.889528   -0.453005
     25          6           0       -9.947771    1.937028   -0.493822
     26          6           0      -11.307401    1.773054   -0.946259
     27          6           0      -11.430506    0.426185   -1.077800
     28          6           0      -10.164098   -0.216463   -0.843366
     29          6           0      -12.441512    2.846425   -0.994621
     30          6           0      -12.666543   -0.336161   -1.558309
     31          6           0      -12.726082   -0.579416   -3.002545
     32          7           0       -7.456591   -1.266465   -0.299067
     33          6           0       -8.536661   -2.076375   -0.593791
     34          6           0       -8.124861   -3.414109   -0.574082
     35          6           0       -6.725870   -3.372350   -0.266217
     36          6           0       -6.350465   -2.046991   -0.037089
     37          6           0       -8.905114   -4.615346   -0.994851
     38          6           0       -5.658560   -4.294889   -0.036494
     39          8           0       -5.531807   -5.531687   -0.041565
     40          6           0       -4.476286   -3.241817    0.423386
     41          6           0       -3.765222   -3.746776    1.713943
     42          8           0       -4.122209   -3.384714    2.807454
     43          8           0       -2.915119   -4.687355    1.421082
     44          6           0       -2.397774   -5.403842    2.520917
     45          6           0        2.639153   -0.949599   -1.281967
     46          6           0        4.040408   -0.689489   -0.667142
     47          6           0        4.931885    0.182325   -1.134744
     48          6           0        5.086216    0.708722   -2.624724
     49          6           0        6.263725    0.490791   -0.308281
     50          6           0        7.431795   -0.462918   -0.742541
     51          6           0        8.717413   -0.102464   -0.083561
     52          6           0       10.016643   -0.725104   -0.696175
     53          6           0       10.000779   -2.221680   -0.788264
     54          6           0       11.231528   -0.283791    0.107125
     55          6           0       12.617095   -0.501984   -0.429273
     56          6           0       13.779183    0.002487    0.253537
     57          6           0       15.195131   -0.148289   -0.473400
     58          6           0       15.600500   -1.615514   -0.650306
     59          6           0       16.304481    0.510820    0.447684
     60          6           0       17.739046    0.603410   -0.153202
     61          6           0       18.667603    1.440660    0.719511
     62          6           0       20.076669    1.632626    0.086463
     63          6           0       20.126961    2.203547   -1.348135
     64          6           0       20.989478    2.441119    1.079216
     65          1           0       -3.931807    3.402791    1.857279
     66          1           0      -10.146431    4.102866   -0.171661
     67          1           0      -10.683943   -2.187576   -0.996821
     68          1           0       -2.978738   -1.142314    2.208576
     69          1           0       -1.972719    1.378458    1.585842
     70          1           0       -2.259572    0.326176    3.926568
     71          1           0       -3.200258    1.877607    3.942042
     72          1           0       -4.190729    0.242457    3.749704
     73          1           0       -2.200075   -1.542725   -0.475905
     74          1           0       -2.035430   -0.063442   -0.599785
     75          1           0       -0.346002    0.160019    1.085181
     76          1           0       -0.271975   -1.384127    1.334601
     77          1           0       -4.400905    5.901388    0.823151
     78          1           0       -5.815615    6.870198    1.323340
     79          1           0       -4.999354    5.673269    2.388815
     80          1           0       -7.567434    7.258259    0.624413
     81          1           0      -10.018387    5.829956   -1.338272
     82          1           0       -9.629550    7.615830   -0.608260
     83          1           0      -12.533376    3.398701   -0.133789
     84          1           0      -12.280616    3.548825   -1.715731
     85          1           0      -13.306273    2.280962   -1.251542
     86          1           0      -12.850959   -1.386217   -1.078521
     87          1           0      -13.490608    0.274638   -1.086558
     88          1           0      -12.861903    0.403957   -3.558845
     89          1           0      -11.772497   -1.059522   -3.111092
     90          1           0      -13.511833   -1.247074   -3.324552
     91          1           0       -9.778087   -4.934777   -0.285372
     92          1           0       -9.270958   -4.529715   -2.078417
     93          1           0       -8.224670   -5.590161   -0.925150
     94          1           0       -3.708348   -3.396124   -0.426162
     95          1           0       -1.776423   -6.330866    2.166165
     96          1           0       -1.760671   -4.771841    3.206757
     97          1           0       -3.103609   -5.875991    3.227689
     98          1           0        2.487087   -2.101634   -1.345828
     99          1           0        2.546649   -0.380506   -2.195756
    100          1           0        4.036828   -0.922891    0.335697
    101          1           0        5.377283    1.698193   -2.678998
    102          1           0        5.794772    0.121943   -3.263643
    103          1           0        4.143848    0.607274   -2.967881
    104          1           0        6.643017    1.507587   -0.705000
    105          1           0        6.065586    0.457034    0.727486
    106          1           0        7.397180   -1.498756   -0.574460
    107          1           0        7.641474   -0.428488   -1.876805
    108          1           0        8.734481    0.985567    0.054044
    109          1           0        8.625741   -0.480669    0.971937
    110          1           0       10.215826   -0.244594   -1.582383
    111          1           0        9.238608   -2.723288   -1.535876
    112          1           0       10.855091   -2.804423   -1.285080
    113          1           0        9.749028   -2.389280    0.216253
    114          1           0       11.014554    0.867250    0.268910
    115          1           0       11.244989   -0.723567    1.208100
    116          1           0       12.745379   -1.611640   -0.397570
    117          1           0       12.590676   -0.098402   -1.558373
    118          1           0       13.691183    1.133463    0.599928
    119          1           0       13.899904   -0.445149    1.266128
    120          1           0       15.176186    0.464139   -1.273075
    121          1           0       14.819845   -2.269145   -1.096572
    122          1           0       16.422692   -1.698074   -1.299678
    123          1           0       15.729337   -2.055724    0.294156
    124          1           0       16.192234    1.518080    0.688492
    125          1           0       16.160493   -0.069526    1.443062
    126          1           0       18.189342   -0.372333   -0.337553
    127          1           0       17.558706    1.003500   -1.259242
    128          1           0       18.074961    2.542172    0.946809
    129          1           0       18.627965    0.930437    1.832777
    130          1           0       20.474592    0.692338   -0.078103
    131          1           0       19.551142    3.013737   -1.367137
    132          1           0       21.166076    2.271255   -1.851531
    133          1           0       19.519566    1.679968   -2.083292
    134          1           0       20.847166    2.115485    2.126981
    135          1           0       22.008037    2.279712    0.704794
    136          1           0       20.715398    3.546668    1.189775
    137          1           0       -7.079301    1.782568    0.493280
    138          1           0       -7.495681   -0.211554    0.065399
 ---------------------------------------------------------------------

 SCF Done:  E(RB3LYP) =  -2733.14507820     A.U. after   17 cycles

 Excitation energies and oscillator strengths:

 Excited State   1:      Singlet-A      2.0674 eV  599.72 nm  f=0.1911  <S**2>=0.000
     235 -> 237       -0.21386
     235 -> 238        0.25734
     236 -> 237        0.60683
     236 -> 238        0.13802
 This state for optimization and/or second-order correction.
 Total Energy, E(TD-HF/TD-KS) =  -2733.06910355
 Copying the excited state density for this state as the 1-particle RhoCI density.

 The electronic state is 1-A.
 Alpha  occ. eigenvalues --  -19.19026 -19.16786 -19.13338 -19.11760 -19.11647
 Alpha  occ. eigenvalues --  -14.37410 -14.36810 -14.32782 -14.29547 -10.31327
 Alpha  occ. eigenvalues --  -10.31155 -10.27377 -10.25324 -10.25120 -10.24856
 Alpha  occ. eigenvalues --  -10.24484 -10.23137 -10.23021 -10.22909 -10.22567
 Alpha  occ. eigenvalues --  -10.22361 -10.22300 -10.21667 -10.21456 -10.21324
 Alpha  occ. eigenvalues --  -10.21242 -10.21066 -10.20917 -10.20897 -10.20812
 Alpha  occ. eigenvalues --  -10.20753 -10.20734 -10.20608 -10.20506 -10.20440
 Alpha  occ. eigenvalues --  -10.20228 -10.20115 -10.20091 -10.19889 -10.19700
 Alpha  occ. eigenvalues --  -10.19525 -10.19346 -10.18987 -10.18864 -10.18817
 Alpha  occ. eigenvalues --  -10.18712 -10.18571 -10.18554 -10.18552 -10.18498
 Alpha  occ. eigenvalues --  -10.18448 -10.18404 -10.18383 -10.18353 -10.18335
 Alpha  occ. eigenvalues --  -10.18296 -10.18172 -10.18143 -10.18094 -10.17991
 Alpha  occ. eigenvalues --  -10.17865 -10.17740 -10.17143 -10.16982  -1.11458
 Alpha  occ. eigenvalues --   -1.11033  -1.02559  -1.01033  -1.00356  -1.00274
 Alpha  occ. eigenvalues --   -0.97575  -0.94648  -0.93779  -0.85165  -0.82734
 Alpha  occ. eigenvalues --   -0.82561  -0.82276  -0.81249  -0.80804  -0.80607
 Alpha  occ. eigenvalues --   -0.79861  -0.79500  -0.79411  -0.78598  -0.77558
 Alpha  occ. eigenvalues --   -0.76833  -0.76385  -0.75489  -0.75003  -0.74853
 Alpha  occ. eigenvalues --   -0.74148  -0.73114  -0.72766  -0.72323  -0.72123
 Alpha  occ. eigenvalues --   -0.70078  -0.70034  -0.68532  -0.68075  -0.67965
 Alpha  occ. eigenvalues --   -0.67740  -0.67255  -0.66205  -0.65997  -0.65537
 Alpha  occ. eigenvalues --   -0.63981  -0.63042  -0.62545  -0.61851  -0.61529
 Alpha  occ. eigenvalues --   -0.61313  -0.58803  -0.58701  -0.58252  -0.57399
 Alpha  occ. eigenvalues --   -0.56723  -0.56688  -0.56000  -0.55937  -0.55736
 Alpha  occ. eigenvalues --   -0.55389  -0.54671  -0.54631  -0.54028  -0.52998
 Alpha  occ. eigenvalues --   -0.52737  -0.52140  -0.51456  -0.50581  -0.50164
 Alpha  occ. eigenvalues --   -0.49961  -0.49305  -0.49163  -0.49132  -0.48815
 Alpha  occ. eigenvalues --   -0.47931  -0.47816  -0.47675  -0.47580  -0.47268
 Alpha  occ. eigenvalues --   -0.47090  -0.46375  -0.46154  -0.45947  -0.45801
 Alpha  occ. eigenvalues --   -0.45715  -0.45226  -0.45164  -0.44815  -0.44435
 Alpha  occ. eigenvalues --   -0.44202  -0.44088  -0.43949  -0.43436  -0.43419
 Alpha  occ. eigenvalues --   -0.43134  -0.42970  -0.42934  -0.42891  -0.42513
 Alpha  occ. eigenvalues --   -0.42466  -0.42221  -0.42038  -0.41734  -0.41651
 Alpha  occ. eigenvalues --   -0.41193  -0.40944  -0.40877  -0.40768  -0.40612
 Alpha  occ. eigenvalues --   -0.40525  -0.40436  -0.40173  -0.40112  -0.39807
 Alpha  occ. eigenvalues --   -0.39742  -0.39510  -0.39393  -0.39100  -0.38995
 Alpha  occ. eigenvalues --   -0.38793  -0.38509  -0.38330  -0.38277  -0.37729
 Alpha  occ. eigenvalues --   -0.37549  -0.37387  -0.37221  -0.37031  -0.36818
 Alpha  occ. eigenvalues --   -0.36675  -0.36534  -0.36342  -0.35999  -0.35881
 Alpha  occ. eigenvalues --   -0.35490  -0.35413  -0.35287  -0.34929  -0.34608
 Alpha  occ. eigenvalues --   -0.34247  -0.34183  -0.33865  -0.33337  -0.33112
 Alpha  occ. eigenvalues --   -0.33021  -0.32753  -0.32719  -0.32535  -0.32398
 Alpha  occ. eigenvalues --   -0.31743  -0.31700  -0.31493  -0.31284  -0.31238
 Alpha  occ. eigenvalues --   -0.31179  -0.30873  -0.30687  -0.30476  -0.30386
 Alpha  occ. eigenvalues --   -0.30232  -0.29598  -0.29163  -0.28923  -0.28616
 Alpha  occ. eigenvalues --   -0.28443  -0.27621  -0.26481  -0.26106  -0.25612
 Alpha  occ. eigenvalues --   -0.25373  -0.24867  -0.24093  -0.23193  -0.20316
 Alpha  occ. eigenvalues --   -0.18914
 Alpha virt. eigenvalues --   -0.10494  -0.07939  -0.04662  -0.01447  -0.00389
 Alpha virt. eigenvalues --    0.00414   0.00675   0.01517   0.02237   0.02797
 Alpha virt. eigenvalues --    0.04043   0.04374   0.04575   0.04764   0.04862

 Mulliken charges:
               1
     1  C    0.063319
     2  C   -0.097193
     3  C   -0.106043
     4  C   -0.076217
     5  N   -0.216434
     6  C   -0.118011
     7  C    0.112974
     8  C   -0.157380
     9  C    0.046906
    10  C   -0.001767
    11  C    0.100728
    12  C    0.099500
    13  C    0.141372
    14  O   -0.150635
    15  O   -0.349341
    16  N    0.055119
    17  C    0.090934
    18  C   -0.159780
    19  C   -0.025112
    20  C    0.107827
    21  C    0.197532
    22  C   -0.046161
    23  C   -0.113250
    24  N   -0.221229
    25  C    0.004397
    26  C   -0.184973
    27  C   -0.067748
    28  C    0.045997
    29  C    0.226778
    30  C   -0.013073
    31  C    0.072151
    32  N   -0.102433
    33  C    0.120027
    34  C   -0.092707
    35  C   -0.012941
    36  C    0.100541
    37  C   -0.000748
    38  C    0.077509
    39  O   -0.198375
    40  C   -0.149759
    41  C    0.181719
    42  O   -0.233446
    43  O   -0.229976
    44  C    0.145682
    45  C    0.256206
    46  C   -0.035057
    47  C   -0.157839
    48  C    0.131708
    49  C    0.080380
    50  C    0.036973
    51  C   -0.001605
    52  C    0.035269
    53  C    0.007572
    54  C   -0.059910
    55  C    0.081399
    56  C   -0.016440
    57  C   -0.009740
    58  C    0.096595
    59  C    0.002887
    60  C    0.010240
    61  C   -0.079542
    62  C   -0.034861
    63  C    0.059584
    64  C    0.038286
    65  H   -0.007143
    66  H    0.004184
    67  H   -0.017915
    68  H    0.012333
    69  H    0.028182
    70  H    0.037165
    71  H    0.024353
    72  H    0.046422
    73  H   -0.001212
    74  H   -0.032709
    75  H   -0.032996
    76  H    0.008079
    77  H    0.021188
    78  H    0.009874
    79  H    0.011407
    80  H    0.044508
    81  H    0.068249
    82  H    0.031730
    83  H    0.001863
    84  H   -0.021451
    85  H   -0.008046
    86  H    0.005826
    87  H    0.003571
    88  H    0.016471
    89  H    0.001989
    90  H    0.008204
    91  H    0.040423
    92  H    0.048143
    93  H    0.055901
    94  H    0.066899
    95  H    0.045880
    96  H    0.027295
    97  H    0.034380
    98  H    0.024313
    99  H    0.020101
   100  H   -0.030975
   101  H   -0.003612
   102  H    0.042539
   103  H   -0.037555
   104  H    0.009735
   105  H   -0.004584
   106  H   -0.019089
   107  H   -0.008595
   108  H   -0.016484
   109  H   -0.014748
   110  H   -0.045684
   111  H    0.011240
   112  H    0.027509
   113  H   -0.000696
   114  H   -0.004583
   115  H   -0.009141
   116  H    0.001549
   117  H   -0.003043
   118  H   -0.011955
   119  H   -0.021800
   120  H   -0.045191
   121  H   -0.001792
   122  H    0.000641
   123  H   -0.013614
   124  H   -0.031917
   125  H   -0.004287
   126  H   -0.004421
   127  H    0.008200
   128  H    0.011085
   129  H    0.026675
   130  H   -0.023252
   131  H   -0.037750
   132  H    0.027295
   133  H   -0.012693
   134  H    0.002752
   135  H    0.011125
   136  H    0.012049
   137  H    0.071688
   138  H    0.207532
 Sum of Mulliken charges =   0.00000

 Dipole moment (field-independent basis, Debye):
    X=              2.0412    Y=              4.8174    Z=              0.5941  Tot=              5.2656
 Quadrupole moment (field-independent basis, Debye-Ang):
   XX=           -352.1884   YY=           -383.5333   ZZ=           -393.8418
   XY=            -35.3104   XZ=             -2.4263   YZ=             -0.4855

 Normal termination of Gaussian 09 at Sat Aug  3 14:25:44 2019.
