 Gaussian 09, Revision D.01,
 Gaussian 09:  ES64L-G09RevD.01 24-Apr-2013

 --------------------------
 # td=(NStates=1) B3LYP/SVP
 --------------------------

 --
 TD
 --
 Symbolic Z-matrix:
 Charge =  0 Multiplicity = 1

                         Standard orientation:
 ---------------------------------------------------------------------
 Center     Atomic      Atomic             Coordinates (Angstroms)
 Number     Number       Type             X           Y           Z
 ---------------------------------------------------------------------
      1          6           0       -5.043968   -1.956432    0.443590
      2          6           0       -4.780905    2.748449    1.389375
      3          6           0       -9.383348    3.369474   -0.259922
      4          6           0       -9.821545   -1.509237   -0.883334
      5          7           0       -5.215105    0.407199    0.831069
      6          6           0       -4.492026   -0.763056    0.707009
      7          6           0       -3.015521   -0.489830    1.177672
      8          6           0       -3.070657    0.919267    1.903819
      9          6           0       -4.490718    1.367292    1.345542
     10          6           0       -2.871023    0.960665    3.351490
     11          6           0       -2.092239   -0.630036    0.104541
     12          6           0       -0.583318   -0.509998    0.448752
     13          6           0        0.406243   -0.986766   -0.625480
     14          8           0        0.049507   -1.373975   -1.810734
     15          8           0        1.664535   -0.700438   -0.362802
     16          7           0       -7.097448    2.755298    0.502614
     17          6           0       -6.034498    3.342089    1.050959
     18          6           0       -6.421593    4.811452    1.078770
     19          6           0       -7.660648    4.897147    0.534876
     20          6           0       -8.110204    3.608741    0.261765
     21          6           0       -5.489188    5.847244    1.597654
     22          6           0       -8.410213    6.241206    0.268371
     23          6           0       -9.119452    6.511310   -0.796097
     24          7           0       -9.099324    0.877524   -0.473311
     25          6           0       -9.792558    2.011756   -0.488352
     26          6           0      -11.215011    1.774271   -0.936406
     27          6           0      -11.311665    0.416979   -1.127897
     28          6           0      -10.040047   -0.174707   -0.797465
     29          6           0      -12.357480    2.747085   -1.123919
     30          6           0      -12.568487   -0.350109   -1.629330
     31          6           0      -12.776985   -0.603217   -3.106212
     32          7           0       -7.471371   -1.277432   -0.201422
     33          6           0       -8.548604   -2.090821   -0.597131
     34          6           0       -8.072148   -3.487360   -0.645705
     35          6           0       -6.795017   -3.472352   -0.244171
     36          6           0       -6.357743   -2.108030   -0.020261
     37          6           0       -8.926096   -4.598714   -1.133054
     38          6           0       -5.571454   -4.304126    0.038265
     39          8           0       -5.443457   -5.479861   -0.090860
     40          6           0       -4.468519   -3.270454    0.357615
     41          6           0       -3.821217   -3.752361    1.671692
     42          8           0       -4.123897   -3.409365    2.770166
     43          8           0       -3.003321   -4.766915    1.512377
     44          6           0       -2.489948   -5.356575    2.723901
     45          6           0        2.699342   -0.917206   -1.274617
     46          6           0        3.922111   -0.716034   -0.573464
     47          6           0        4.927554    0.134410   -0.992210
     48          6           0        4.878530    0.929234   -2.323001
     49          6           0        6.181952    0.309782   -0.202522
     50          6           0        7.397636   -0.286465   -0.852954
     51          6           0        8.719750   -0.086232    0.021765
     52          6           0        9.994315   -0.728440   -0.599788
     53          6           0        9.958417   -2.232178   -0.682613
     54          6           0       11.268591   -0.154302    0.110072
     55          6           0       12.687418   -0.389201   -0.588880
     56          6           0       13.821320    0.158829    0.238338
     57          6           0       15.236966   -0.242171   -0.360071
     58          6           0       15.548423   -1.683716   -0.364323
     59          6           0       16.346785    0.518514    0.491643
     60          6           0       17.612834    0.642787   -0.316428
     61          6           0       18.651056    1.579144    0.532384
     62          6           0       20.100923    1.558938   -0.060206
     63          6           0       20.109552    2.087258   -1.479508
     64          6           0       21.031982    2.306091    1.029280
     65          1           0       -3.808111    3.349022    1.908332
     66          1           0      -10.169123    4.074656   -0.130958
     67          1           0      -10.401195   -2.308957   -1.041738
     68          1           0       -2.553973   -1.310694    2.031958
     69          1           0       -2.190317    1.354813    1.345051
     70          1           0       -1.796604    0.662306    3.750040
     71          1           0       -2.948822    1.840139    3.712211
     72          1           0       -3.796004    0.343488    3.954713
     73          1           0       -2.103557   -1.604462   -0.381450
     74          1           0       -2.342705    0.104198   -0.766019
     75          1           0       -0.367500    0.308699    1.021718
     76          1           0       -0.296429   -1.031589    1.454044
     77          1           0       -4.458912    5.869442    1.215543
     78          1           0       -5.799594    6.845529    1.400527
     79          1           0       -5.524940    5.832222    2.841376
     80          1           0       -7.867013    6.992078    1.063508
     81          1           0       -9.350333    5.958668   -1.704375
     82          1           0       -9.687785    7.600261   -0.928354
     83          1           0      -12.619562    3.336606   -0.241466
     84          1           0      -12.238411    3.507080   -1.625196
     85          1           0      -13.282528    2.030387   -1.439462
     86          1           0      -12.724794   -1.260843   -0.987816
     87          1           0      -13.510156    0.177099   -1.319961
     88          1           0      -12.886365    0.356700   -3.726670
     89          1           0      -11.821395   -1.035056   -3.498163
     90          1           0      -13.477952   -1.322636   -3.373239
     91          1           0       -9.695809   -4.810933   -0.546418
     92          1           0       -9.260557   -4.423853   -2.037557
     93          1           0       -8.267500   -5.599767   -1.155689
     94          1           0       -3.669833   -3.531899   -0.397319
     95          1           0       -1.668323   -6.149146    2.595216
     96          1           0       -2.055042   -4.639037    3.492826
     97          1           0       -3.301654   -5.866843    3.370811
     98          1           0        2.514169   -2.044193   -1.431790
     99          1           0        2.576979   -0.180442   -2.165441
    100          1           0        4.167068   -1.105195    0.296067
    101          1           0        5.068520    1.964883   -2.160714
    102          1           0        5.610143    0.488628   -2.913161
    103          1           0        3.940705    0.589358   -3.016932
    104          1           0        6.480347    1.494870   -0.205197
    105          1           0        6.069115   -0.021709    0.778665
    106          1           0        7.140647   -1.320694   -0.772521
    107          1           0        7.592900   -0.034614   -1.852504
    108          1           0        8.892917    0.964075    0.175472
    109          1           0        8.436305   -0.594111    0.940926
    110          1           0       10.080506   -0.354226   -1.695918
    111          1           0        9.107600   -2.749544   -0.987358
    112          1           0       10.842573   -2.448627   -1.466990
    113          1           0       10.173278   -2.672197    0.344290
    114          1           0       11.336377    0.880309    0.328571
    115          1           0       11.368375   -0.560631    0.989554
    116          1           0       12.762339   -1.436865   -0.865019
    117          1           0       12.720689   -0.091925   -1.749061
    118          1           0       13.839722    1.253311    0.469380
    119          1           0       13.668306   -0.307213    1.086470
    120          1           0       15.295090    0.193117   -1.384043
    121          1           0       14.745336   -2.206183   -0.931530
    122          1           0       16.466958   -2.100085   -0.881755
    123          1           0       15.442883   -2.013271    0.691287
    124          1           0       16.019090    1.447829    0.952094
    125          1           0       16.520768   -0.051606    1.402989
    126          1           0       18.169184   -0.324655   -0.407875
    127          1           0       17.617352    1.065350   -1.409411
    128          1           0       18.159645    2.505729    0.557789
    129          1           0       18.571289    1.142467    1.525320
    130          1           0       20.552973    0.465953    0.103929
    131          1           0       19.896402    3.049971   -1.260149
    132          1           0       21.176903    1.959194   -2.098069
    133          1           0       19.589934    1.498923   -2.245406
    134          1           0       20.737386    1.933997    2.054823
    135          1           0       22.156318    2.207379    0.794698
    136          1           0       20.783063    3.360048    0.969612
    137          1           0       -6.802201    1.645639    0.269593
    138          1           0       -7.495287   -0.330119   -0.207459
 ---------------------------------------------------------------------

 SCF Done:  E(RB3LYP) =  -2733.00690548     A.U. after   17 cycles

 Excitation energies and oscillator strengths:

 Excited State   1:      Singlet-A      2.1209 eV  584.59 nm  f=0.1750  <S**2>=0.000
     235 -> 238       -0.29129
     236 -> 237        0.64361
 This state for optimization and/or second-order correction.
 Total Energy, E(TD-HF/TD-KS) =  -2732.92896489
 Copying the excited state density for this state as the 1-particle RhoCI density.

 The electronic state is 1-A.
 Alpha  occ. eigenvalues --  -19.18021 -19.17962 -19.12428 -19.11317 -19.11200
 Alpha  occ. eigenvalues --  -14.37588 -14.36352 -14.33073 -14.30110 -10.32256
 Alpha  occ. eigenvalues --  -10.30770 -10.27951 -10.25438 -10.25331 -10.24410
 Alpha  occ. eigenvalues --  -10.23496 -10.23487 -10.23179 -10.23026 -10.22933
 Alpha  occ. eigenvalues --  -10.22494 -10.21531 -10.21336 -10.21280 -10.21169
 Alpha  occ. eigenvalues --  -10.21130 -10.20828 -10.20767 -10.20738 -10.20724
 Alpha  occ. eigenvalues --  -10.20702 -10.20529 -10.20511 -10.20109 -10.20016
 Alpha  occ. eigenvalues --  -10.19941 -10.19781 -10.19739 -10.19700 -10.19576
 Alpha  occ. eigenvalues --  -10.19551 -10.19525 -10.19431 -10.19308 -10.18833
 Alpha  occ. eigenvalues --  -10.18772 -10.18566 -10.18551 -10.18528 -10.18492
 Alpha  occ. eigenvalues --  -10.18445 -10.18409 -10.18340 -10.18096 -10.18089
 Alpha  occ. eigenvalues --  -10.18076 -10.17968 -10.17945 -10.17893 -10.17625
 Alpha  occ. eigenvalues --  -10.17617 -10.17550 -10.17444 -10.17054  -1.10914
 Alpha  occ. eigenvalues --   -1.10277  -1.04201  -1.00345  -0.99568  -0.97022
 Alpha  occ. eigenvalues --   -0.96570  -0.94764  -0.92066  -0.86156  -0.83323
 Alpha  occ. eigenvalues --   -0.82195  -0.81869  -0.81691  -0.81224  -0.80545
 Alpha  occ. eigenvalues --   -0.80206  -0.79253  -0.79121  -0.78477  -0.78416
 Alpha  occ. eigenvalues --   -0.77402  -0.76162  -0.75673  -0.75289  -0.74683
 Alpha  occ. eigenvalues --   -0.73921  -0.73491  -0.73222  -0.72128  -0.71395
 Alpha  occ. eigenvalues --   -0.70768  -0.69842  -0.69485  -0.68587  -0.67766
 Alpha  occ. eigenvalues --   -0.67695  -0.67633  -0.66403  -0.65948  -0.65713
 Alpha  occ. eigenvalues --   -0.64218  -0.62977  -0.61670  -0.61506  -0.61265
 Alpha  occ. eigenvalues --   -0.61101  -0.59419  -0.58984  -0.58450  -0.57582
 Alpha  occ. eigenvalues --   -0.57025  -0.56564  -0.56255  -0.55935  -0.55699
 Alpha  occ. eigenvalues --   -0.55633  -0.55033  -0.54302  -0.53958  -0.53820
 Alpha  occ. eigenvalues --   -0.52891  -0.52670  -0.51819  -0.51301  -0.50773
 Alpha  occ. eigenvalues --   -0.50559  -0.49963  -0.49345  -0.49126  -0.48661
 Alpha  occ. eigenvalues --   -0.47941  -0.47760  -0.47447  -0.47302  -0.47181
 Alpha  occ. eigenvalues --   -0.47092  -0.46750  -0.46070  -0.45923  -0.45557
 Alpha  occ. eigenvalues --   -0.45363  -0.45207  -0.44983  -0.44734  -0.44577
 Alpha  occ. eigenvalues --   -0.44510  -0.44261  -0.44109  -0.43852  -0.43510
 Alpha  occ. eigenvalues --   -0.43413  -0.43305  -0.43212  -0.42975  -0.42656
 Alpha  occ. eigenvalues --   -0.42629  -0.42302  -0.42000  -0.41641  -0.41557
 Alpha  occ. eigenvalues --   -0.41319  -0.41268  -0.41090  -0.40939  -0.40531
 Alpha  occ. eigenvalues --   -0.40466  -0.40269  -0.40237  -0.40000  -0.39505
 Alpha  occ. eigenvalues --   -0.39397  -0.39000  -0.38852  -0.38756  -0.38690
 Alpha  occ. eigenvalues --   -0.38338  -0.38239  -0.37986  -0.37523  -0.37312
 Alpha  occ. eigenvalues --   -0.37111  -0.37017  -0.36931  -0.36868  -0.36843
 Alpha  occ. eigenvalues --   -0.36748  -0.36403  -0.36207  -0.36125  -0.35760
 Alpha  occ. eigenvalues --   -0.35682  -0.35421  -0.35205  -0.34997  -0.34951
 Alpha  occ. eigenvalues --   -0.34852  -0.33983  -0.33591  -0.33551  -0.33343
 Alpha  occ. eigenvalues --   -0.32884  -0.32741  -0.32475  -0.32409  -0.32321
 Alpha  occ. eigenvalues --   -0.32207  -0.32060  -0.31517  -0.31448  -0.31234
 Alpha  occ. eigenvalues --   -0.31045  -0.30794  -0.30500  -0.30411  -0.29583
 Alpha  occ. eigenvalues --   -0.29449  -0.29259  -0.28189  -0.27528  -0.27326
 Alpha  occ. eigenvalues --   -0.26939  -0.26799  -0.26737  -0.26613  -0.25844
 Alpha  occ. eigenvalues --   -0.25100  -0.24787  -0.24430  -0.22494  -0.20177
 Alpha  occ. eigenvalues --   -0.18849
 Alpha virt. eigenvalues --   -0.09938  -0.07447  -0.03944  -0.02025  -0.01538
 Alpha virt. eigenvalues --   -0.00603   0.00149   0.01409   0.02105   0.03545
 Alpha virt. eigenvalues --    0.04111   0.04152   0.04575   0.04634   0.05006

 Mulliken charges:
               1
     1  C    0.139197
     2  C   -0.085338
     3  C   -0.120273
     4  C   -0.028991
     5  N   -0.179532
     6  C   -0.050212
     7  C   -0.154536
     8  C   -0.038556
     9  C   -0.048973
    10  C    0.126575
    11  C    0.096630
    12  C    0.029286
    13  C    0.233114
    14  O   -0.319641
    15  O   -0.276339
    16  N   -0.086444
    17  C    0.059734
    18  C   -0.117739
    19  C   -0.040323
    20  C    0.141207
    21  C    0.063225
    22  C    0.014160
    23  C   -0.081455
    24  N   -0.256918
    25  C    0.057030
    26  C   -0.154546
    27  C   -0.080671
    28  C    0.199425
    29  C    0.201540
    30  C    0.029887
    31  C    0.043667
    32  N   -0.018083
    33  C   -0.026624
    34  C   -0.198718
    35  C    0.017975
    36  C    0.044644
    37  C    0.201355
    38  C    0.066097
    39  O   -0.129106
    40  C   -0.053376
    41  C    0.144180
    42  O   -0.214532
    43  O   -0.259856
    44  C    0.136611
    45  C    0.313050
    46  C   -0.013590
    47  C   -0.192315
    48  C    0.090352
    49  C    0.073611
    50  C    0.028783
    51  C    0.061441
    52  C   -0.072858
    53  C    0.022590
    54  C    0.129766
    55  C   -0.038178
    56  C    0.128284
    57  C   -0.090140
    58  C    0.040541
    59  C    0.065508
    60  C   -0.030002
    61  C    0.011811
    62  C   -0.116978
    63  C    0.053331
    64  C    0.011015
    65  H    0.041995
    66  H   -0.008076
    67  H   -0.091215
    68  H    0.035837
    69  H    0.003973
    70  H    0.020039
    71  H   -0.058997
    72  H    0.045843
    73  H    0.015454
    74  H    0.018042
    75  H   -0.031052
    76  H    0.006539
    77  H    0.034475
    78  H   -0.011172
    79  H    0.044227
    80  H    0.049253
    81  H    0.045175
    82  H    0.043325
    83  H   -0.008326
    84  H   -0.081408
    85  H    0.034830
    86  H    0.000691
    87  H   -0.003743
    88  H    0.019750
    89  H   -0.002134
    90  H   -0.000343
    91  H   -0.013112
    92  H   -0.016619
    93  H    0.044816
    94  H    0.068434
    95  H    0.044600
    96  H    0.033194
    97  H    0.039129
    98  H    0.022249
    99  H    0.042636
   100  H   -0.089026
   101  H    0.026455
   102  H    0.001367
   103  H    0.021420
   104  H    0.003974
   105  H   -0.020824
   106  H   -0.021469
   107  H   -0.008677
   108  H   -0.011267
   109  H   -0.017426
   110  H   -0.002820
   111  H    0.001132
   112  H    0.028527
   113  H    0.008147
   114  H   -0.023053
   115  H   -0.063211
   116  H   -0.020598
   117  H   -0.019298
   118  H    0.002722
   119  H   -0.061216
   120  H   -0.008574
   121  H   -0.003599
   122  H    0.024267
   123  H    0.003179
   124  H   -0.023921
   125  H   -0.024714
   126  H   -0.003029
   127  H    0.016407
   128  H   -0.016618
   129  H   -0.011784
   130  H    0.004479
   131  H   -0.005275
   132  H    0.008137
   133  H    0.026268
   134  H    0.019680
   135  H    0.024132
   136  H   -0.006352
   137  H    0.236137
   138  H    0.077237
 Sum of Mulliken charges =   0.00000

 Dipole moment (field-independent basis, Debye):
    X=              2.9043    Y=              4.3751    Z=              1.2431  Tot=              5.3965
 Quadrupole moment (field-independent basis, Debye-Ang):
   XX=           -359.9042   YY=           -381.3025   ZZ=           -394.1216
   XY=            -25.1936   XZ=             12.4994   YZ=             -1.2751

 Normal termination of Gaussian 09 at Thu Jul 25 12:53:15 2019.
