 Gaussian 09, Revision D.01,
 Gaussian 09:  ES64L-G09RevD.01 24-Apr-2013

 --------------------------
 # td=(NStates=1) B3LYP/SVP
 --------------------------

 --
 TD
 --
 Symbolic Z-matrix:
 Charge =  0 Multiplicity = 1

                         Standard orientation:
 ---------------------------------------------------------------------
 Center     Atomic      Atomic             Coordinates (Angstroms)
 Number     Number       Type             X           Y           Z
 ---------------------------------------------------------------------
      1          6           0       -5.073597   -1.946668    0.533509
      2          6           0       -4.775179    2.809988    1.434768
      3          6           0       -9.317892    3.466941   -0.216435
      4          6           0       -9.805370   -1.427902   -0.835977
      5          7           0       -5.110743    0.417783    0.815837
      6          6           0       -4.438718   -0.792659    0.858224
      7          6           0       -3.062396   -0.579334    1.301111
      8          6           0       -3.047123    0.870343    1.928169
      9          6           0       -4.336793    1.415244    1.354860
     10          6           0       -3.044211    0.964124    3.509232
     11          6           0       -2.078860   -0.808510    0.094156
     12          6           0       -0.597134   -0.742553    0.620688
     13          6           0        0.321275   -1.167115   -0.581806
     14          8           0       -0.041755   -1.688414   -1.672028
     15          8           0        1.628040   -0.805524   -0.316426
     16          7           0       -7.029652    2.754041    0.473580
     17          6           0       -5.937146    3.331096    1.041630
     18          6           0       -6.195099    4.774196    1.060483
     19          6           0       -7.381394    4.976279    0.457763
     20          6           0       -7.995983    3.655490    0.212115
     21          6           0       -5.154962    5.790001    1.438889
     22          6           0       -8.032814    6.282478    0.245234
     23          6           0       -8.803011    6.800449   -0.686394
     24          7           0       -9.260070    0.912461   -0.374593
     25          6           0       -9.886712    2.147446   -0.426903
     26          6           0      -11.264232    1.961742   -0.953981
     27          6           0      -11.466375    0.606582   -1.104134
     28          6           0      -10.186943   -0.008992   -0.839934
     29          6           0      -12.380301    3.012735   -1.090260
     30          6           0      -12.689106   -0.177974   -1.576524
     31          6           0      -12.684161   -0.555075   -3.006617
     32          7           0       -7.439535   -1.255968   -0.149648
     33          6           0       -8.608817   -2.013479   -0.474976
     34          6           0       -8.191128   -3.256968   -0.550680
     35          6           0       -6.880929   -3.388120   -0.186211
     36          6           0       -6.440851   -2.083122    0.118879
     37          6           0       -9.069939   -4.507902   -0.930262
     38          6           0       -5.773084   -4.204406    0.152861
     39          8           0       -5.759052   -5.445466    0.170721
     40          6           0       -4.622737   -3.381581    0.435484
     41          6           0       -3.893650   -3.954523    1.711059
     42          8           0       -4.222584   -3.669939    2.815497
     43          8           0       -2.919785   -4.889329    1.426693
     44          6           0       -2.221445   -5.417964    2.605930
     45          6           0        2.631645   -1.082423   -1.375443
     46          6           0        3.847633   -0.790710   -0.846158
     47          6           0        4.862544   -0.018532   -1.217902
     48          6           0        4.847112    0.706507   -2.726222
     49          6           0        6.180501    0.039464   -0.486841
     50          6           0        7.500077   -0.433008   -1.278857
     51          6           0        8.796086   -0.181155   -0.406845
     52          6           0       10.062870   -0.645635   -1.062186
     53          6           0       10.046428   -2.120277   -1.512839
     54          6           0       11.276308   -0.268017   -0.214806
     55          6           0       12.641267   -0.515772   -0.758119
     56          6           0       13.659055    0.019395    0.236742
     57          6           0       15.159095   -0.177823   -0.290058
     58          6           0       15.619918   -1.611449   -0.266673
     59          6           0       16.229355    0.700988    0.460334
     60          6           0       17.691100    0.761514   -0.044512
     61          6           0       18.575752    1.628492    0.813332
     62          6           0       20.125515    1.718439    0.402832
     63          6           0       20.225406    2.303800   -0.973101
     64          6           0       21.063629    2.336333    1.409225
     65          1           0       -4.131976    3.635768    1.929863
     66          1           0      -10.066041    4.264837   -0.377995
     67          1           0      -10.862320   -2.035296   -1.350315
     68          1           0       -2.669300   -1.231836    1.970126
     69          1           0       -2.241918    1.492682    1.778371
     70          1           0       -2.244906    0.586677    4.033855
     71          1           0       -3.184762    1.879327    3.743479
     72          1           0       -3.863289    0.343202    4.003251
     73          1           0       -2.217103   -1.835332   -0.401158
     74          1           0       -2.511551   -0.063642   -0.699598
     75          1           0       -0.198942    0.164248    0.998193
     76          1           0       -0.497722   -1.746771    1.171509
     77          1           0       -4.314200    5.708397    0.585898
     78          1           0       -5.460649    6.797460    1.343953
     79          1           0       -4.624668    5.811672    2.539750
     80          1           0       -7.690690    6.964966    1.068955
     81          1           0       -9.173309    6.171618   -1.326360
     82          1           0       -9.254087    7.793585   -0.619701
     83          1           0      -12.599029    3.485220   -0.105049
     84          1           0      -12.144896    3.819783   -1.919842
     85          1           0      -13.279556    2.491742   -1.560759
     86          1           0      -12.692313   -1.109436   -0.975103
     87          1           0      -13.559708    0.379263   -1.267739
     88          1           0      -12.517350    0.335359   -3.671673
     89          1           0      -11.758513   -1.252634   -3.348122
     90          1           0      -13.571794   -1.073464   -3.364370
     91          1           0       -9.835464   -4.687803    0.008754
     92          1           0       -9.397599   -4.494715   -1.950507
     93          1           0       -8.393120   -5.479599   -0.866951
     94          1           0       -3.911822   -3.609189   -0.433208
     95          1           0       -1.335363   -5.874605    2.095159
     96          1           0       -1.961274   -4.675874    3.234280
     97          1           0       -2.847658   -6.285480    3.027348
     98          1           0        2.411828   -2.190511   -1.824927
     99          1           0        2.323609   -0.536168   -2.343262
    100          1           0        4.080499   -1.420618   -0.004185
    101          1           0        5.162047    1.773244   -2.525089
    102          1           0        5.645199    0.190762   -3.370533
    103          1           0        3.907712    0.622794   -3.043972
    104          1           0        6.442631    1.247755    0.018469
    105          1           0        6.142610   -0.561896    0.512079
    106          1           0        7.239571   -1.576796   -1.381527
    107          1           0        7.644567    0.099399   -2.127632
    108          1           0        8.766669    0.948194   -0.262576
    109          1           0        8.771311   -0.630535    0.717925
    110          1           0       10.161838   -0.138610   -1.968251
    111          1           0        9.298682   -2.288436   -2.250138
    112          1           0       11.178945   -2.421764   -1.845148
    113          1           0        9.718663   -2.650010   -0.570006
    114          1           0       11.072953    0.852485   -0.140383
    115          1           0       11.103060   -0.792896    0.672040
    116          1           0       12.623688   -1.785909   -0.735484
    117          1           0       12.827712   -0.103076   -1.631520
    118          1           0       13.541074    1.038589    0.481475
    119          1           0       13.731396   -0.697277    1.085163
    120          1           0       15.206541    0.022088   -1.374196
    121          1           0       15.072619   -2.420460   -0.742063
    122          1           0       16.827828   -1.859088   -0.539752
    123          1           0       15.630880   -1.810625    1.040085
    124          1           0       15.911218    1.824652    0.242345
    125          1           0       16.354302    0.595147    1.724478
    126          1           0       18.049693   -0.292925   -0.227008
    127          1           0       17.705350    1.125460   -1.153885
    128          1           0       18.124648    2.660751    0.944718
    129          1           0       18.403916    1.116727    1.810377
    130          1           0       20.318381    0.636885    0.287966
    131          1           0       19.837391    3.154026   -1.201081
    132          1           0       21.139313    2.230178   -1.406178
    133          1           0       19.779853    1.699109   -1.744719
    134          1           0       21.161294    1.577466    2.403514
    135          1           0       21.985261    2.381101    1.044852
    136          1           0       20.746761    3.327396    1.669051
    137          1           0       -7.135472    1.776971    0.536104
    138          1           0       -7.648927   -0.125077    0.081577
 ---------------------------------------------------------------------

 SCF Done:  E(RB3LYP) =  -2733.02781111     A.U. after   17 cycles

 Excitation energies and oscillator strengths:

 Excited State   1:      Singlet-A      2.1524 eV  576.02 nm  f=0.1315  <S**2>=0.000
     235 -> 237       -0.14211
     235 -> 238       -0.29515
     236 -> 237        0.60624
     236 -> 238       -0.14541
 This state for optimization and/or second-order correction.
 Total Energy, E(TD-HF/TD-KS) =  -2732.94871104
 Copying the excited state density for this state as the 1-particle RhoCI density.

 The electronic state is 1-A.
 Alpha  occ. eigenvalues --  -19.18013 -19.16927 -19.12846 -19.12398 -19.09830
 Alpha  occ. eigenvalues --  -14.37490 -14.36320 -14.32522 -14.30448 -10.32302
 Alpha  occ. eigenvalues --  -10.31246 -10.25726 -10.25596 -10.24515 -10.24335
 Alpha  occ. eigenvalues --  -10.24199 -10.23837 -10.22799 -10.22704 -10.22669
 Alpha  occ. eigenvalues --  -10.22313 -10.22241 -10.22045 -10.22007 -10.21967
 Alpha  occ. eigenvalues --  -10.21575 -10.21481 -10.21208 -10.21152 -10.20940
 Alpha  occ. eigenvalues --  -10.20859 -10.20727 -10.20681 -10.20632 -10.20580
 Alpha  occ. eigenvalues --  -10.20539 -10.20525 -10.20284 -10.20218 -10.20211
 Alpha  occ. eigenvalues --  -10.20096 -10.20022 -10.19909 -10.19794 -10.19706
 Alpha  occ. eigenvalues --  -10.19544 -10.19276 -10.19101 -10.19037 -10.18937
 Alpha  occ. eigenvalues --  -10.18757 -10.18716 -10.18665 -10.18588 -10.18524
 Alpha  occ. eigenvalues --  -10.18492 -10.18447 -10.18179 -10.17828 -10.17822
 Alpha  occ. eigenvalues --  -10.17684 -10.17660 -10.17109 -10.14987  -1.08359
 Alpha  occ. eigenvalues --   -1.07132  -1.00314  -1.00085  -1.00012  -0.98523
 Alpha  occ. eigenvalues --   -0.97971  -0.93941  -0.92217  -0.85483  -0.83014
 Alpha  occ. eigenvalues --   -0.83009  -0.82443  -0.81590  -0.80984  -0.80624
 Alpha  occ. eigenvalues --   -0.79888  -0.79799  -0.79392  -0.78628  -0.77598
 Alpha  occ. eigenvalues --   -0.77230  -0.76694  -0.75721  -0.75150  -0.74669
 Alpha  occ. eigenvalues --   -0.73748  -0.73257  -0.72483  -0.71714  -0.71027
 Alpha  occ. eigenvalues --   -0.70505  -0.69563  -0.69229  -0.68001  -0.67939
 Alpha  occ. eigenvalues --   -0.67098  -0.67011  -0.65830  -0.65319  -0.65118
 Alpha  occ. eigenvalues --   -0.64599  -0.64080  -0.62602  -0.61658  -0.61514
 Alpha  occ. eigenvalues --   -0.60845  -0.58895  -0.58546  -0.58098  -0.57592
 Alpha  occ. eigenvalues --   -0.57384  -0.56785  -0.55844  -0.55795  -0.55494
 Alpha  occ. eigenvalues --   -0.55454  -0.54547  -0.53843  -0.53605  -0.53074
 Alpha  occ. eigenvalues --   -0.52527  -0.51991  -0.51369  -0.50962  -0.50393
 Alpha  occ. eigenvalues --   -0.50295  -0.49109  -0.48804  -0.48742  -0.48191
 Alpha  occ. eigenvalues --   -0.48187  -0.47861  -0.47501  -0.47294  -0.47093
 Alpha  occ. eigenvalues --   -0.46824  -0.46721  -0.46337  -0.46028  -0.45871
 Alpha  occ. eigenvalues --   -0.45759  -0.45338  -0.45047  -0.44900  -0.44760
 Alpha  occ. eigenvalues --   -0.44399  -0.44357  -0.44219  -0.44020  -0.43662
 Alpha  occ. eigenvalues --   -0.43519  -0.43186  -0.43058  -0.42953  -0.42897
 Alpha  occ. eigenvalues --   -0.42597  -0.42435  -0.42356  -0.41787  -0.41231
 Alpha  occ. eigenvalues --   -0.41119  -0.41050  -0.40912  -0.40769  -0.40604
 Alpha  occ. eigenvalues --   -0.40437  -0.40224  -0.39771  -0.39652  -0.39519
 Alpha  occ. eigenvalues --   -0.39443  -0.39068  -0.38882  -0.38784  -0.38355
 Alpha  occ. eigenvalues --   -0.38327  -0.38180  -0.37999  -0.37709  -0.37358
 Alpha  occ. eigenvalues --   -0.37104  -0.36679  -0.36564  -0.36425  -0.36309
 Alpha  occ. eigenvalues --   -0.36127  -0.36100  -0.35951  -0.35875  -0.35642
 Alpha  occ. eigenvalues --   -0.35285  -0.35046  -0.34832  -0.34526  -0.34457
 Alpha  occ. eigenvalues --   -0.34251  -0.34177  -0.34090  -0.33479  -0.33463
 Alpha  occ. eigenvalues --   -0.33305  -0.33284  -0.33050  -0.32886  -0.32855
 Alpha  occ. eigenvalues --   -0.32242  -0.32043  -0.31794  -0.31688  -0.31235
 Alpha  occ. eigenvalues --   -0.30995  -0.30989  -0.30439  -0.30191  -0.30128
 Alpha  occ. eigenvalues --   -0.30016  -0.29762  -0.28836  -0.28667  -0.28190
 Alpha  occ. eigenvalues --   -0.27590  -0.27265  -0.26773  -0.26347  -0.25571
 Alpha  occ. eigenvalues --   -0.25409  -0.25141  -0.23838  -0.22826  -0.20368
 Alpha  occ. eigenvalues --   -0.19034
 Alpha virt. eigenvalues --   -0.09941  -0.08140  -0.03889  -0.01752  -0.01544
 Alpha virt. eigenvalues --   -0.00651   0.00207   0.01049   0.01996   0.03300
 Alpha virt. eigenvalues --    0.03311   0.03739   0.04123   0.04183   0.04717

 Mulliken charges:
               1
     1  C    0.099562
     2  C   -0.099499
     3  C   -0.096960
     4  C   -0.120747
     5  N   -0.201761
     6  C   -0.088628
     7  C    0.074236
     8  C    0.013146
     9  C    0.010375
    10  C    0.132552
    11  C   -0.050188
    12  C    0.086747
    13  C    0.180990
    14  O   -0.277966
    15  O   -0.340141
    16  N    0.016750
    17  C    0.090220
    18  C   -0.096953
    19  C    0.026455
    20  C    0.136639
    21  C    0.015965
    22  C   -0.089481
    23  C    0.063663
    24  N   -0.288049
    25  C    0.036073
    26  C   -0.160695
    27  C   -0.075712
    28  C   -0.011857
    29  C    0.034860
    30  C    0.104179
    31  C   -0.013493
    32  N   -0.121413
    33  C    0.137354
    34  C   -0.171546
    35  C    0.101418
    36  C    0.008906
    37  C    0.037373
    38  C   -0.008395
    39  O   -0.216850
    40  C    0.030389
    41  C    0.170963
    42  O   -0.197731
    43  O   -0.338804
    44  C    0.202128
    45  C    0.196175
    46  C   -0.020169
    47  C   -0.110952
    48  C    0.076649
    49  C   -0.052641
    50  C    0.048699
    51  C   -0.048694
    52  C   -0.013348
    53  C   -0.006704
    54  C    0.033698
    55  C    0.056251
    56  C    0.095869
    57  C   -0.025107
    58  C   -0.098223
    59  C   -0.051581
    60  C   -0.013868
    61  C    0.006165
    62  C   -0.073649
    63  C    0.152064
    64  C    0.100641
    65  H    0.001270
    66  H   -0.004894
    67  H    0.053606
    68  H   -0.061900
    69  H   -0.039160
    70  H   -0.007248
    71  H   -0.045057
    72  H    0.015801
    73  H    0.048303
    74  H    0.030141
    75  H    0.039164
    76  H    0.052926
    77  H    0.052859
    78  H   -0.001110
    79  H    0.055248
    80  H    0.006233
    81  H   -0.034868
    82  H    0.027509
    83  H    0.044622
    84  H    0.029882
    85  H    0.020319
    86  H    0.002210
    87  H   -0.005544
    88  H    0.011499
    89  H    0.021030
    90  H    0.015936
    91  H    0.053598
    92  H    0.028796
    93  H    0.046008
    94  H    0.070863
    95  H    0.032731
    96  H    0.012227
    97  H    0.056352
    98  H    0.053284
    99  H    0.022920
   100  H   -0.020788
   101  H    0.027869
   102  H    0.049663
   103  H   -0.023938
   104  H    0.017721
   105  H    0.017615
   106  H    0.034238
   107  H   -0.011262
   108  H    0.002208
   109  H    0.009441
   110  H   -0.048303
   111  H    0.010795
   112  H    0.037207
   113  H    0.001388
   114  H   -0.007755
   115  H   -0.025270
   116  H    0.028437
   117  H   -0.049072
   118  H   -0.009510
   119  H   -0.002854
   120  H   -0.013256
   121  H    0.025510
   122  H    0.037691
   123  H    0.003110
   124  H    0.007344
   125  H    0.022492
   126  H   -0.006158
   127  H   -0.004662
   128  H   -0.003190
   129  H   -0.006084
   130  H   -0.015220
   131  H   -0.048580
   132  H   -0.041079
   133  H   -0.029827
   134  H    0.017596
   135  H   -0.028353
   136  H    0.003733
   137  H    0.119020
   138  H    0.221178
 Sum of Mulliken charges =   0.00000

 Dipole moment (field-independent basis, Debye):
    X=              3.4131    Y=              6.4916    Z=              0.1669  Tot=              7.3360
 Quadrupole moment (field-independent basis, Debye-Ang):
   XX=           -353.9436   YY=           -389.7799   ZZ=           -393.4308
   XY=            -36.0488   XZ=             -7.1096   YZ=              1.5149

 Normal termination of Gaussian 09 at Fri Aug  2 15:02:12 2019.
