 Gaussian 09, Revision D.01,
 Gaussian 09:  ES64L-G09RevD.01 24-Apr-2013

 --------------------------
 # td=(NStates=1) B3LYP/SVP
 --------------------------

 --
 TD
 --
 Symbolic Z-matrix:
 Charge =  0 Multiplicity = 1

                         Standard orientation:
 ---------------------------------------------------------------------
 Center     Atomic      Atomic             Coordinates (Angstroms)
 Number     Number       Type             X           Y           Z
 ---------------------------------------------------------------------
      1          6           0       -5.157839   -1.854604    0.448161
      2          6           0       -4.593168    2.685184    1.545863
      3          6           0       -9.099162    3.487031   -0.300212
      4          6           0       -9.843176   -1.285155   -0.939733
      5          7           0       -5.199666    0.402528    0.865454
      6          6           0       -4.565026   -0.720423    0.737576
      7          6           0       -3.105211   -0.635025    1.298655
      8          6           0       -2.982435    0.859014    1.912197
      9          6           0       -4.340727    1.300741    1.421285
     10          6           0       -2.954687    0.700666    3.435078
     11          6           0       -2.096905   -0.831057    0.185109
     12          6           0       -0.667507   -0.935277    0.567920
     13          6           0        0.277453   -1.189931   -0.584305
     14          8           0        0.051697   -1.572546   -1.669238
     15          8           0        1.549865   -1.017043   -0.146453
     16          7           0       -6.908714    2.804544    0.476280
     17          6           0       -5.740189    3.396415    0.947753
     18          6           0       -6.033770    4.781901    1.054006
     19          6           0       -7.238649    5.032408    0.488120
     20          6           0       -7.858200    3.736484    0.152273
     21          6           0       -5.007910    5.785843    1.537282
     22          6           0       -7.927914    6.348419    0.240186
     23          6           0       -8.681386    6.645838   -0.716024
     24          7           0       -9.135420    0.991584   -0.453122
     25          6           0       -9.739047    2.241387   -0.514251
     26          6           0      -11.093596    2.088731   -0.957474
     27          6           0      -11.309667    0.775514   -1.151837
     28          6           0      -10.124909    0.038355   -0.806988
     29          6           0      -12.251655    3.156329   -1.101886
     30          6           0      -12.672264    0.213289   -1.613679
     31          6           0      -12.460065   -0.468261   -3.014469
     32          7           0       -7.583941   -1.200677   -0.125381
     33          6           0       -8.611401   -1.936515   -0.606304
     34          6           0       -8.232755   -3.369439   -0.718409
     35          6           0       -6.901522   -3.468750   -0.296579
     36          6           0       -6.559372   -2.069126   -0.037267
     37          6           0       -9.108510   -4.554516   -1.041508
     38          6           0       -5.760670   -4.295743   -0.041968
     39          8           0       -5.817279   -5.551284   -0.082997
     40          6           0       -4.560202   -3.313210    0.320607
     41          6           0       -3.958394   -3.751651    1.694407
     42          8           0       -4.221020   -3.355750    2.831716
     43          8           0       -3.212447   -4.888087    1.538011
     44          6           0       -2.811078   -5.640760    2.745938
     45          6           0        2.582465   -1.257994   -1.197684
     46          6           0        3.902619   -0.855802   -0.456664
     47          6           0        4.959904   -0.157782   -1.104143
     48          6           0        4.927530    0.435705   -2.497658
     49          6           0        6.110231    0.141311   -0.346479
     50          6           0        7.414767   -0.527402   -0.923596
     51          6           0        8.691204   -0.238716   -0.211732
     52          6           0       10.018015   -0.727215   -0.874964
     53          6           0       10.002733   -2.156671   -1.092405
     54          6           0       11.224104   -0.266490   -0.072539
     55          6           0       12.562654   -0.587826   -0.641954
     56          6           0       13.735490    0.021982    0.095243
     57          6           0       15.179050   -0.252097   -0.455913
     58          6           0       15.699352   -1.742718   -0.510542
     59          6           0       16.177349    0.637972    0.324321
     60          6           0       17.638656    0.820508   -0.096606
     61          6           0       18.585445    1.680943    0.768494
     62          6           0       20.035746    1.734235    0.225010
     63          6           0       20.081839    2.230056   -1.233460
     64          6           0       20.878357    2.629092    1.373707
     65          1           0       -3.931208    3.331383    2.079272
     66          1           0       -9.962203    4.210238   -0.335190
     67          1           0      -10.484016   -2.014825   -1.149788
     68          1           0       -3.008368   -1.340727    2.082577
     69          1           0       -2.133874    1.578951    1.439269
     70          1           0       -1.971211    0.247452    3.889050
     71          1           0       -2.898782    1.790847    3.890053
     72          1           0       -3.638005    0.074211    3.893943
     73          1           0       -2.201391   -1.747402   -0.293946
     74          1           0       -2.304024    0.045388   -0.568874
     75          1           0       -0.378310    0.040802    0.984811
     76          1           0       -0.554689   -1.740360    1.226264
     77          1           0       -3.834849    5.694910    1.399926
     78          1           0       -5.495190    6.760829    1.194797
     79          1           0       -4.908607    5.571790    2.636379
     80          1           0       -7.439667    7.285814    0.998730
     81          1           0       -9.005780    5.805082   -1.390091
     82          1           0       -9.367475    7.542078   -0.733775
     83          1           0      -12.389041    3.517574   -0.270216
     84          1           0      -11.767811    3.959612   -1.789576
     85          1           0      -12.949732    2.843315   -1.696091
     86          1           0      -13.156630   -0.584203   -0.778121
     87          1           0      -13.447684    1.043086   -1.580640
     88          1           0      -12.564605    0.190786   -3.863976
     89          1           0      -11.412369   -1.068404   -3.291634
     90          1           0      -13.301707   -1.246061   -3.307260
     91          1           0      -10.125259   -4.659817   -0.389721
     92          1           0       -9.401846   -4.594710   -2.025710
     93          1           0       -8.579680   -5.344711   -0.635236
     94          1           0       -3.760933   -3.201222   -0.462679
     95          1           0       -2.068070   -6.171448    2.290894
     96          1           0       -2.453384   -4.779916    3.372117
     97          1           0       -3.666366   -6.111558    3.173348
     98          1           0        2.478314   -2.350738   -1.412377
     99          1           0        2.199581   -0.921670   -2.021877
    100          1           0        4.093864   -1.207742    0.649762
    101          1           0        5.226542    1.341408   -2.564370
    102          1           0        5.611942   -0.145349   -3.210838
    103          1           0        3.794662    0.279391   -3.070657
    104          1           0        6.539480    1.112950   -0.153432
    105          1           0        6.031352   -0.140100    0.748056
    106          1           0        7.042992   -1.659700   -0.848616
    107          1           0        7.551608   -0.284530   -2.132090
    108          1           0        8.707737    0.938779   -0.021394
    109          1           0        8.685716   -0.732924    0.826061
    110          1           0       10.164009   -0.326632   -1.775794
    111          1           0        9.228598   -2.456306   -1.803741
    112          1           0       10.846381   -2.372214   -1.784540
    113          1           0        9.825641   -2.768936   -0.309944
    114          1           0       11.052646    0.835622    0.128067
    115          1           0       11.063401   -0.707713    1.054855
    116          1           0       12.928606   -1.616705   -0.877269
    117          1           0       12.806051    0.082909   -1.631347
    118          1           0       13.866513    1.217165    0.189648
    119          1           0       13.655783   -0.462930    1.067793
    120          1           0       15.186272    0.086048   -1.578728
    121          1           0       14.947427   -2.283895   -1.119517
    122          1           0       16.824696   -1.863361   -0.859195
    123          1           0       15.584070   -2.241042    0.473712
    124          1           0       15.620141    1.674664    0.399630
    125          1           0       16.083107    0.263713    1.419799
    126          1           0       17.979944   -0.246142   -0.602094
    127          1           0       17.630618    1.208269   -1.194536
    128          1           0       18.086778    2.635969    0.949813
    129          1           0       18.777704    1.343103    1.749688
    130          1           0       20.437029    0.670232    0.303371
    131          1           0       19.713744    3.286962   -1.380433
    132          1           0       21.134438    2.202488   -1.742440
    133          1           0       19.420824    1.665766   -1.905001
    134          1           0       20.941184    2.069424    2.288080
    135          1           0       22.105588    2.647657    0.788445
    136          1           0       20.393557    3.662736    1.331650
    137          1           0       -6.932727    1.847188    0.281526
    138          1           0       -7.601358   -0.211966    0.090682
 ---------------------------------------------------------------------

 SCF Done:  E(RB3LYP) =  -2732.98117434     A.U. after   17 cycles

 Excitation energies and oscillator strengths:

 Excited State   1:      Singlet-A      2.0923 eV  592.56 nm  f=0.1678  <S**2>=0.000
     235 -> 237       -0.27844
     235 -> 238       -0.28804
     236 -> 237        0.55769
     236 -> 238       -0.15368
 This state for optimization and/or second-order correction.
 Total Energy, E(TD-HF/TD-KS) =  -2732.90428254
 Copying the excited state density for this state as the 1-particle RhoCI density.

 The electronic state is 1-A.
 Alpha  occ. eigenvalues --  -19.16498 -19.16151 -19.12634 -19.12478 -19.12418
 Alpha  occ. eigenvalues --  -14.37556 -14.36837 -14.32284 -14.29824 -10.31947
 Alpha  occ. eigenvalues --  -10.30554 -10.28727 -10.24262 -10.24138 -10.24122
 Alpha  occ. eigenvalues --  -10.23883 -10.23683 -10.23560 -10.23247 -10.23211
 Alpha  occ. eigenvalues --  -10.22372 -10.21756 -10.21699 -10.21659 -10.21448
 Alpha  occ. eigenvalues --  -10.21337 -10.21332 -10.21209 -10.21094 -10.21006
 Alpha  occ. eigenvalues --  -10.20943 -10.20920 -10.20596 -10.20432 -10.20421
 Alpha  occ. eigenvalues --  -10.20084 -10.20059 -10.20004 -10.19992 -10.19938
 Alpha  occ. eigenvalues --  -10.19895 -10.19858 -10.19832 -10.19812 -10.19667
 Alpha  occ. eigenvalues --  -10.19601 -10.19595 -10.19593 -10.19543 -10.19301
 Alpha  occ. eigenvalues --  -10.19226 -10.19185 -10.19152 -10.18989 -10.18984
 Alpha  occ. eigenvalues --  -10.18893 -10.18786 -10.18705 -10.18275 -10.18104
 Alpha  occ. eigenvalues --  -10.17954 -10.17545 -10.17529 -10.16322  -1.09590
 Alpha  occ. eigenvalues --   -1.07604  -1.00641  -1.00509  -0.99424  -0.98754
 Alpha  occ. eigenvalues --   -0.98447  -0.95798  -0.92134  -0.84124  -0.83371
 Alpha  occ. eigenvalues --   -0.82465  -0.82242  -0.81866  -0.81421  -0.80585
 Alpha  occ. eigenvalues --   -0.80414  -0.79516  -0.79123  -0.78673  -0.78033
 Alpha  occ. eigenvalues --   -0.77051  -0.76209  -0.75660  -0.74711  -0.74259
 Alpha  occ. eigenvalues --   -0.73375  -0.72974  -0.72686  -0.71412  -0.70852
 Alpha  occ. eigenvalues --   -0.70092  -0.69441  -0.68953  -0.68781  -0.68480
 Alpha  occ. eigenvalues --   -0.67497  -0.67200  -0.66713  -0.65940  -0.64918
 Alpha  occ. eigenvalues --   -0.64444  -0.63227  -0.62629  -0.61811  -0.61214
 Alpha  occ. eigenvalues --   -0.60870  -0.58995  -0.58305  -0.57750  -0.57587
 Alpha  occ. eigenvalues --   -0.56805  -0.56353  -0.56124  -0.55673  -0.55400
 Alpha  occ. eigenvalues --   -0.54997  -0.54421  -0.53786  -0.53658  -0.53438
 Alpha  occ. eigenvalues --   -0.53011  -0.52217  -0.51194  -0.50762  -0.50470
 Alpha  occ. eigenvalues --   -0.50424  -0.49618  -0.48870  -0.48710  -0.48601
 Alpha  occ. eigenvalues --   -0.48178  -0.47895  -0.47470  -0.46996  -0.46694
 Alpha  occ. eigenvalues --   -0.46561  -0.46394  -0.46332  -0.46215  -0.45999
 Alpha  occ. eigenvalues --   -0.45887  -0.45703  -0.45450  -0.45332  -0.45040
 Alpha  occ. eigenvalues --   -0.44809  -0.44450  -0.44336  -0.44092  -0.43682
 Alpha  occ. eigenvalues --   -0.43496  -0.43327  -0.43184  -0.42926  -0.42863
 Alpha  occ. eigenvalues --   -0.42544  -0.42484  -0.42270  -0.41984  -0.41831
 Alpha  occ. eigenvalues --   -0.41419  -0.41245  -0.41000  -0.40677  -0.40483
 Alpha  occ. eigenvalues --   -0.40277  -0.40011  -0.39811  -0.39735  -0.39468
 Alpha  occ. eigenvalues --   -0.39360  -0.38745  -0.38662  -0.38466  -0.38443
 Alpha  occ. eigenvalues --   -0.38348  -0.38029  -0.37820  -0.37508  -0.37439
 Alpha  occ. eigenvalues --   -0.37321  -0.37053  -0.36879  -0.36786  -0.36561
 Alpha  occ. eigenvalues --   -0.36461  -0.36166  -0.36109  -0.35845  -0.35757
 Alpha  occ. eigenvalues --   -0.35670  -0.35404  -0.35115  -0.34869  -0.34518
 Alpha  occ. eigenvalues --   -0.34302  -0.34274  -0.34201  -0.33400  -0.33304
 Alpha  occ. eigenvalues --   -0.33101  -0.32896  -0.32821  -0.32266  -0.32197
 Alpha  occ. eigenvalues --   -0.31946  -0.31864  -0.31710  -0.31448  -0.31397
 Alpha  occ. eigenvalues --   -0.30710  -0.30533  -0.30271  -0.30007  -0.29731
 Alpha  occ. eigenvalues --   -0.29455  -0.28915  -0.28195  -0.28191  -0.28033
 Alpha  occ. eigenvalues --   -0.27761  -0.27484  -0.27030  -0.26591  -0.26205
 Alpha  occ. eigenvalues --   -0.25448  -0.25003  -0.23846  -0.22565  -0.19761
 Alpha  occ. eigenvalues --   -0.19397
 Alpha virt. eigenvalues --   -0.10639  -0.07775  -0.05067  -0.01906  -0.01572
 Alpha virt. eigenvalues --   -0.00614   0.00736   0.01644   0.02202   0.03754
 Alpha virt. eigenvalues --    0.03788   0.03888   0.04082   0.04260   0.04788

 Mulliken charges:
               1
     1  C    0.049052
     2  C   -0.039474
     3  C   -0.112961
     4  C    0.007134
     5  N   -0.140152
     6  C   -0.093340
     7  C   -0.001836
     8  C   -0.093377
     9  C    0.024549
    10  C    0.041736
    11  C    0.016332
    12  C    0.115963
    13  C    0.132245
    14  O   -0.201454
    15  O   -0.352254
    16  N   -0.038228
    17  C    0.077155
    18  C   -0.121744
    19  C    0.014885
    20  C    0.169992
    21  C    0.029048
    22  C   -0.044468
    23  C   -0.056969
    24  N   -0.311660
    25  C   -0.015956
    26  C   -0.183437
    27  C   -0.049810
    28  C    0.136792
    29  C    0.298236
    30  C    0.018758
    31  C   -0.060659
    32  N    0.035881
    33  C   -0.010507
    34  C   -0.157873
    35  C    0.063396
    36  C   -0.010271
    37  C    0.124606
    38  C    0.087727
    39  O   -0.208877
    40  C   -0.049752
    41  C    0.216711
    42  O   -0.253925
    43  O   -0.345269
    44  C    0.225096
    45  C    0.329573
    46  C   -0.084537
    47  C   -0.078559
    48  C    0.083799
    49  C    0.085131
    50  C   -0.110081
    51  C    0.007569
    52  C    0.019973
    53  C    0.099975
    54  C    0.024201
    55  C    0.023548
    56  C   -0.021669
    57  C   -0.116275
    58  C    0.000435
    59  C   -0.004537
    60  C   -0.008077
    61  C    0.108476
    62  C   -0.123480
    63  C    0.006471
    64  C   -0.051108
    65  H   -0.042464
    66  H    0.000157
    67  H   -0.084643
    68  H   -0.003882
    69  H    0.044960
    70  H    0.017081
    71  H    0.015499
    72  H    0.025236
    73  H   -0.017435
    74  H    0.017325
    75  H    0.016079
    76  H    0.011045
    77  H    0.043910
    78  H    0.042766
    79  H    0.027561
    80  H    0.033805
    81  H    0.038278
    82  H    0.038409
    83  H   -0.041141
    84  H    0.001833
    85  H   -0.037110
    86  H    0.030355
    87  H    0.015011
    88  H    0.007781
    89  H    0.045284
    90  H    0.013338
    91  H    0.030656
    92  H    0.017172
    93  H    0.016308
    94  H    0.083416
    95  H    0.021634
    96  H    0.038146
    97  H    0.044631
    98  H    0.012787
    99  H   -0.044328
   100  H    0.037841
   101  H   -0.024983
   102  H    0.036439
   103  H    0.030451
   104  H   -0.019199
   105  H   -0.012366
   106  H    0.016766
   107  H    0.022461
   108  H    0.004605
   109  H    0.002643
   110  H   -0.064976
   111  H   -0.017936
   112  H   -0.000705
   113  H   -0.024753
   114  H   -0.002791
   115  H   -0.005317
   116  H    0.017431
   117  H    0.001205
   118  H    0.019843
   119  H   -0.014718
   120  H   -0.004564
   121  H    0.009664
   122  H    0.041609
   123  H    0.002823
   124  H   -0.004719
   125  H   -0.002666
   126  H   -0.009072
   127  H   -0.005950
   128  H   -0.007770
   129  H   -0.024748
   130  H    0.011633
   131  H    0.007146
   132  H    0.016672
   133  H    0.013181
   134  H    0.035400
   135  H    0.023564
   136  H    0.043736
   137  H    0.110095
   138  H    0.140698
 Sum of Mulliken charges =   0.00000

 Dipole moment (field-independent basis, Debye):
    X=              1.8144    Y=              3.9693    Z=              0.4867  Tot=              4.3914
 Quadrupole moment (field-independent basis, Debye-Ang):
   XX=           -363.2817   YY=           -388.0618   ZZ=           -393.5416
   XY=            -28.5676   XZ=              6.8941   YZ=             -2.8605

 Normal termination of Gaussian 09 at Thu Jul 25 23:11:54 2019.
