 Gaussian 09, Revision D.01,
 Gaussian 09:  ES64L-G09RevD.01 24-Apr-2013

 --------------------------
 # td=(NStates=1) B3LYP/SVP
 --------------------------

 --
 TD
 --
 Symbolic Z-matrix:
 Charge =  0 Multiplicity = 1

                         Standard orientation:
 ---------------------------------------------------------------------
 Center     Atomic      Atomic             Coordinates (Angstroms)
 Number     Number       Type             X           Y           Z
 ---------------------------------------------------------------------
      1          6           0       -5.041742   -1.961176    0.408726
      2          6           0       -4.820851    2.761313    1.251651
      3          6           0       -9.476178    3.247146   -0.128665
      4          6           0       -9.779280   -1.512792   -0.951616
      5          7           0       -5.113660    0.472412    0.817579
      6          6           0       -4.459687   -0.761668    0.824114
      7          6           0       -3.070798   -0.544425    1.362535
      8          6           0       -3.091596    1.028410    1.752059
      9          6           0       -4.421151    1.424953    1.353438
     10          6           0       -2.937325    1.157791    3.284510
     11          6           0       -2.003443   -0.775120    0.134004
     12          6           0       -0.573143   -0.782891    0.653665
     13          6           0        0.471881   -1.059202   -0.434552
     14          8           0        0.082648   -1.487881   -1.560816
     15          8           0        1.724266   -0.700798   -0.138831
     16          7           0       -7.137865    2.719328    0.524041
     17          6           0       -6.018804    3.375128    0.940021
     18          6           0       -6.331625    4.805069    0.960561
     19          6           0       -7.620409    4.988880    0.671817
     20          6           0       -8.176423    3.619618    0.279666
     21          6           0       -5.311886    5.872982    1.340573
     22          6           0       -8.320674    6.254601    0.478397
     23          6           0       -9.236478    6.494433   -0.471264
     24          7           0       -9.257062    0.874535   -0.435384
     25          6           0       -9.929585    1.980487   -0.473101
     26          6           0      -11.269371    1.711445   -0.912224
     27          6           0      -11.383025    0.437376   -1.256723
     28          6           0      -10.065091   -0.201172   -0.853573
     29          6           0      -12.375125    2.750093   -1.003084
     30          6           0      -12.594930   -0.305494   -1.850503
     31          6           0      -12.557384   -0.272597   -3.291450
     32          7           0       -7.454898   -1.272134   -0.396050
     33          6           0       -8.539348   -2.101183   -0.756675
     34          6           0       -8.114938   -3.440694   -0.636257
     35          6           0       -6.756147   -3.392472   -0.267202
     36          6           0       -6.402358   -2.070780   -0.130553
     37          6           0       -8.841379   -4.636171   -1.132423
     38          6           0       -5.676388   -4.324183    0.057950
     39          8           0       -5.623245   -5.516684    0.130049
     40          6           0       -4.534314   -3.359307    0.581700
     41          6           0       -3.949840   -3.808069    1.842029
     42          8           0       -4.202183   -3.251846    2.860526
     43          8           0       -3.067233   -4.739222    1.699401
     44          6           0       -2.640803   -5.405900    2.883439
     45          6           0        2.672663   -0.990707   -1.144454
     46          6           0        4.019602   -0.656829   -0.475145
     47          6           0        5.037709    0.022115   -1.057830
     48          6           0        4.896788    0.648208   -2.465243
     49          6           0        6.334267    0.428904   -0.394453
     50          6           0        7.521511   -0.470879   -1.095361
     51          6           0        8.790395   -0.243341   -0.346732
     52          6           0       10.144927   -0.736714   -0.885287
     53          6           0       10.125422   -2.243267   -0.997967
     54          6           0       11.348903   -0.245890   -0.084189
     55          6           0       12.738893   -0.514841   -0.609236
     56          6           0       13.856954    0.118553    0.262770
     57          6           0       15.206124   -0.152577   -0.397948
     58          6           0       15.506425   -1.616766   -0.459809
     59          6           0       16.273279    0.467264    0.423917
     60          6           0       17.626999    0.691929   -0.115085
     61          6           0       18.599274    1.533442    0.684257
     62          6           0       20.049387    1.664568    0.119649
     63          6           0       20.135863    2.377499   -1.305067
     64          6           0       21.025354    2.211567    1.210506
     65          1           0       -3.901727    3.411453    1.633560
     66          1           0      -10.242515    4.002366   -0.157540
     67          1           0      -10.742447   -2.267867   -0.944931
     68          1           0       -2.846885   -1.200652    2.139538
     69          1           0       -2.238449    1.577603    1.188410
     70          1           0       -1.852248    0.840558    3.562876
     71          1           0       -3.042733    2.143250    3.598215
     72          1           0       -3.734704    0.674217    3.813714
     73          1           0       -2.190501   -1.631968   -0.559249
     74          1           0       -2.019563    0.009510   -0.622681
     75          1           0       -0.343335    0.163309    1.287674
     76          1           0       -0.365650   -1.801843    1.428720
     77          1           0       -4.328248    5.615517    0.688266
     78          1           0       -5.705293    6.945003    1.133828
     79          1           0       -5.321603    5.795008    2.418906
     80          1           0       -8.004152    7.177426    0.843517
     81          1           0       -9.601290    5.791869   -1.212239
     82          1           0       -9.586654    7.543357   -0.513178
     83          1           0      -12.428088    3.627374   -0.174499
     84          1           0      -12.267806    3.236446   -1.855353
     85          1           0      -13.407653    2.258003   -1.076297
     86          1           0      -12.468805   -1.385003   -1.640842
     87          1           0      -13.552938    0.284038   -1.356714
     88          1           0      -12.436139    0.860573   -3.882832
     89          1           0      -11.749734   -0.808318   -3.898792
     90          1           0      -13.485347   -0.926880   -3.867765
     91          1           0       -9.520356   -4.881104   -0.459892
     92          1           0       -9.288176   -4.466695   -2.166178
     93          1           0       -8.120834   -5.397739   -1.135199
     94          1           0       -3.688426   -3.569743   -0.122855
     95          1           0       -2.037016   -6.434346    2.612401
     96          1           0       -1.812118   -4.717433    3.455323
     97          1           0       -3.562396   -5.437644    3.528842
     98          1           0        2.548429   -1.946175   -1.449472
     99          1           0        2.476992   -0.363372   -2.212636
    100          1           0        4.064509   -1.027704    0.586520
    101          1           0        5.409249    1.524624   -2.434724
    102          1           0        5.240744   -0.346674   -3.225648
    103          1           0        3.779841    0.890074   -2.408195
    104          1           0        6.483018    1.448653   -0.393184
    105          1           0        6.312654    0.202766    0.552822
    106          1           0        7.223717   -1.524023   -1.223419
    107          1           0        7.793666   -0.143845   -2.227473
    108          1           0        8.738405    0.941796   -0.264617
    109          1           0        8.465803   -0.780598    0.619878
    110          1           0       10.190913   -0.364007   -2.052007
    111          1           0        9.144368   -2.477272   -1.497974
    112          1           0       11.016043   -2.330673   -1.619171
    113          1           0        9.997682   -2.755025    0.068519
    114          1           0       11.405186    0.798526    0.132230
    115          1           0       11.246156   -0.788040    0.930349
    116          1           0       12.797831   -1.586740   -0.798586
    117          1           0       12.785198    0.120728   -1.547090
    118          1           0       13.742719    1.192264    0.026416
    119          1           0       13.616178   -0.228521    1.388898
    120          1           0       15.269022    0.402512   -1.431543
    121          1           0       14.803063   -2.039864   -1.315771
    122          1           0       16.426474   -1.955350   -0.959012
    123          1           0       15.510990   -2.002202    0.411370
    124          1           0       15.944550    1.372330    0.698591
    125          1           0       16.089644   -0.016557    1.513202
    126          1           0       18.106228   -0.227245   -0.273958
    127          1           0       17.466168    1.234857   -1.069058
    128          1           0       18.103147    2.588016    0.915247
    129          1           0       18.754275    1.209559    1.646756
    130          1           0       20.560981    0.674753   -0.019848
    131          1           0       19.665882    3.389877   -1.233728
    132          1           0       21.137865    2.601204   -1.595485
    133          1           0       19.729684    1.898931   -2.057303
    134          1           0       21.296736    1.355153    2.050319
    135          1           0       22.041505    2.522443    0.436290
    136          1           0       20.530080    3.184920    1.854473
    137          1           0       -7.350230    1.710617    0.592624
    138          1           0       -7.607756   -0.297916   -0.565005
 ---------------------------------------------------------------------

 SCF Done:  E(RB3LYP) =  -2733.02743787     A.U. after   17 cycles

 Excitation energies and oscillator strengths:

 Excited State   1:      Singlet-A      2.2201 eV  558.47 nm  f=0.1278  <S**2>=0.000
     235 -> 238        0.32827
     236 -> 237        0.61243
 This state for optimization and/or second-order correction.
 Total Energy, E(TD-HF/TD-KS) =  -2732.94585237
 Copying the excited state density for this state as the 1-particle RhoCI density.

 The electronic state is 1-A.
 Alpha  occ. eigenvalues --  -19.19221 -19.18282 -19.12275 -19.12132 -19.11141
 Alpha  occ. eigenvalues --  -14.37099 -14.36526 -14.31174 -14.29661 -10.32107
 Alpha  occ. eigenvalues --  -10.30514 -10.27652 -10.26960 -10.25316 -10.24693
 Alpha  occ. eigenvalues --  -10.24406 -10.23209 -10.22696 -10.22476 -10.22317
 Alpha  occ. eigenvalues --  -10.22121 -10.21979 -10.21681 -10.21232 -10.21004
 Alpha  occ. eigenvalues --  -10.20960 -10.20868 -10.20805 -10.20741 -10.20699
 Alpha  occ. eigenvalues --  -10.20658 -10.20603 -10.20229 -10.20134 -10.20130
 Alpha  occ. eigenvalues --  -10.20114 -10.20083 -10.20039 -10.20003 -10.20000
 Alpha  occ. eigenvalues --  -10.19956 -10.19845 -10.19735 -10.19678 -10.19451
 Alpha  occ. eigenvalues --  -10.19266 -10.19224 -10.19043 -10.19030 -10.19012
 Alpha  occ. eigenvalues --  -10.18810 -10.18689 -10.18232 -10.18192 -10.18139
 Alpha  occ. eigenvalues --  -10.18007 -10.17913 -10.17827 -10.17558 -10.17529
 Alpha  occ. eigenvalues --  -10.17446 -10.16867 -10.16702 -10.16641  -1.11983
 Alpha  occ. eigenvalues --   -1.10385  -1.03664  -1.01552  -0.98843  -0.98212
 Alpha  occ. eigenvalues --   -0.97913  -0.94672  -0.94045  -0.84869  -0.83402
 Alpha  occ. eigenvalues --   -0.82573  -0.82412  -0.81165  -0.80995  -0.80164
 Alpha  occ. eigenvalues --   -0.79853  -0.79622  -0.79521  -0.79295  -0.77772
 Alpha  occ. eigenvalues --   -0.77301  -0.76444  -0.76175  -0.75298  -0.74723
 Alpha  occ. eigenvalues --   -0.74236  -0.73679  -0.73019  -0.72259  -0.70674
 Alpha  occ. eigenvalues --   -0.70010  -0.69117  -0.68488  -0.68272  -0.68069
 Alpha  occ. eigenvalues --   -0.67523  -0.67489  -0.66323  -0.66023  -0.65529
 Alpha  occ. eigenvalues --   -0.63999  -0.62984  -0.62281  -0.61882  -0.61159
 Alpha  occ. eigenvalues --   -0.59888  -0.59081  -0.58926  -0.57980  -0.57370
 Alpha  occ. eigenvalues --   -0.57031  -0.56323  -0.55715  -0.55553  -0.55344
 Alpha  occ. eigenvalues --   -0.54768  -0.54227  -0.54168  -0.53677  -0.52917
 Alpha  occ. eigenvalues --   -0.52437  -0.52007  -0.51761  -0.50872  -0.50387
 Alpha  occ. eigenvalues --   -0.50017  -0.49853  -0.49546  -0.49408  -0.48345
 Alpha  occ. eigenvalues --   -0.48021  -0.47919  -0.47577  -0.47329  -0.47155
 Alpha  occ. eigenvalues --   -0.46972  -0.46642  -0.46383  -0.46021  -0.45957
 Alpha  occ. eigenvalues --   -0.45648  -0.45356  -0.45220  -0.44770  -0.44688
 Alpha  occ. eigenvalues --   -0.44649  -0.44218  -0.44132  -0.43927  -0.43735
 Alpha  occ. eigenvalues --   -0.43554  -0.43233  -0.42897  -0.42714  -0.42635
 Alpha  occ. eigenvalues --   -0.42427  -0.42304  -0.41974  -0.41846  -0.41394
 Alpha  occ. eigenvalues --   -0.41208  -0.41051  -0.40953  -0.40828  -0.40665
 Alpha  occ. eigenvalues --   -0.40166  -0.40093  -0.40019  -0.39668  -0.39280
 Alpha  occ. eigenvalues --   -0.39257  -0.38921  -0.38703  -0.38571  -0.38431
 Alpha  occ. eigenvalues --   -0.38254  -0.38175  -0.38092  -0.37766  -0.37622
 Alpha  occ. eigenvalues --   -0.37599  -0.37285  -0.37139  -0.37071  -0.36921
 Alpha  occ. eigenvalues --   -0.36695  -0.36410  -0.36122  -0.36078  -0.35965
 Alpha  occ. eigenvalues --   -0.35646  -0.35451  -0.35362  -0.35242  -0.34883
 Alpha  occ. eigenvalues --   -0.34495  -0.34289  -0.33965  -0.33428  -0.33295
 Alpha  occ. eigenvalues --   -0.32985  -0.32872  -0.32560  -0.32330  -0.32156
 Alpha  occ. eigenvalues --   -0.31841  -0.31787  -0.31597  -0.31570  -0.31024
 Alpha  occ. eigenvalues --   -0.30583  -0.30571  -0.30379  -0.30352  -0.30346
 Alpha  occ. eigenvalues --   -0.30100  -0.29651  -0.29171  -0.28134  -0.27412
 Alpha  occ. eigenvalues --   -0.27369  -0.26445  -0.25899  -0.25629  -0.25366
 Alpha  occ. eigenvalues --   -0.24836  -0.24598  -0.24497  -0.23152  -0.19665
 Alpha  occ. eigenvalues --   -0.19149
 Alpha virt. eigenvalues --   -0.09686  -0.07307  -0.03880  -0.01846  -0.01263
 Alpha virt. eigenvalues --    0.00243   0.00584   0.01272   0.02357   0.03504
 Alpha virt. eigenvalues --    0.03549   0.03691   0.03801   0.04334   0.04350

 Mulliken charges:
               1
     1  C    0.055527
     2  C   -0.090364
     3  C   -0.086929
     4  C   -0.140880
     5  N   -0.143686
     6  C   -0.091800
     7  C    0.036606
     8  C   -0.076827
     9  C   -0.058851
    10  C    0.097015
    11  C    0.034817
    12  C   -0.045863
    13  C    0.195357
    14  O   -0.294062
    15  O   -0.270282
    16  N   -0.065714
    17  C    0.135741
    18  C   -0.146271
    19  C    0.087274
    20  C    0.072445
    21  C    0.068748
    22  C   -0.035213
    23  C   -0.043840
    24  N   -0.214065
    25  C    0.048096
    26  C   -0.144532
    27  C   -0.111580
    28  C    0.074472
    29  C    0.117676
    30  C    0.146848
    31  C   -0.126768
    32  N   -0.022667
    33  C    0.036078
    34  C   -0.178872
    35  C   -0.053304
    36  C    0.102839
    37  C    0.210516
    38  C    0.068646
    39  O   -0.145989
    40  C   -0.031815
    41  C    0.136869
    42  O   -0.217632
    43  O   -0.245090
    44  C    0.100150
    45  C    0.240621
    46  C   -0.072038
    47  C   -0.218877
    48  C    0.072651
    49  C    0.221992
    50  C   -0.077873
    51  C    0.007719
    52  C   -0.085210
    53  C    0.018115
    54  C    0.064650
    55  C   -0.008588
    56  C    0.014037
    57  C   -0.127629
    58  C    0.123837
    59  C    0.073024
    60  C    0.148272
    61  C    0.043638
    62  C   -0.100599
    63  C    0.096394
    64  C   -0.117388
    65  H    0.000724
    66  H   -0.041427
    67  H    0.041792
    68  H   -0.008082
    69  H    0.026859
    70  H    0.025358
    71  H   -0.022780
    72  H    0.018824
    73  H    0.030716
    74  H    0.000154
    75  H    0.046791
    76  H    0.050287
    77  H    0.066480
    78  H    0.029583
    79  H    0.038071
    80  H   -0.028235
    81  H    0.028170
    82  H    0.025568
    83  H    0.037580
    84  H   -0.021932
    85  H    0.009359
    86  H   -0.007564
    87  H    0.045593
    88  H    0.027053
    89  H    0.027360
    90  H    0.018212
    91  H   -0.024569
    92  H    0.036011
    93  H    0.005846
    94  H    0.049348
    95  H    0.071803
    96  H    0.041925
    97  H    0.057400
    98  H   -0.007259
    99  H    0.041478
   100  H   -0.000065
   101  H   -0.010090
   102  H    0.072171
   103  H    0.034846
   104  H   -0.012849
   105  H   -0.071131
   106  H    0.016202
   107  H    0.003614
   108  H    0.009219
   109  H    0.000916
   110  H   -0.005112
   111  H    0.007949
   112  H    0.026970
   113  H    0.022285
   114  H   -0.029496
   115  H   -0.014186
   116  H    0.012160
   117  H   -0.012202
   118  H   -0.000320
   119  H    0.028738
   120  H   -0.006794
   121  H    0.012019
   122  H   -0.006970
   123  H   -0.051005
   124  H   -0.080450
   125  H   -0.026695
   126  H   -0.028959
   127  H   -0.010425
   128  H   -0.005425
   129  H   -0.039698
   130  H    0.002530
   131  H    0.000451
   132  H   -0.013873
   133  H   -0.022064
   134  H    0.047307
   135  H    0.036254
   136  H    0.035372
   137  H    0.156743
   138  H    0.125991
 Sum of Mulliken charges =   0.00000

 Dipole moment (field-independent basis, Debye):
    X=              3.0677    Y=              4.5063    Z=              0.7547  Tot=              5.5033
 Quadrupole moment (field-independent basis, Debye-Ang):
   XX=           -371.3948   YY=           -377.9731   ZZ=           -397.0860
   XY=            -30.3389   XZ=              1.1512   YZ=             -2.2106

 Normal termination of Gaussian 09 at Sat Aug  3 19:53:25 2019.
