 Gaussian 09, Revision D.01,
 Gaussian 09:  ES64L-G09RevD.01 24-Apr-2013

 --------------------------
 # td=(NStates=1) B3LYP/SVP
 --------------------------

 --
 TD
 --
 Symbolic Z-matrix:
 Charge =  0 Multiplicity = 1

                         Standard orientation:
 ---------------------------------------------------------------------
 Center     Atomic      Atomic             Coordinates (Angstroms)
 Number     Number       Type             X           Y           Z
 ---------------------------------------------------------------------
      1          6           0       -5.087210   -1.991388    0.474505
      2          6           0       -4.674617    2.799263    1.257981
      3          6           0       -9.290425    3.269428   -0.124941
      4          6           0       -9.797473   -1.413478   -0.964181
      5          7           0       -5.159624    0.537917    0.702556
      6          6           0       -4.552036   -0.715963    0.767028
      7          6           0       -2.991775   -0.519861    1.222243
      8          6           0       -3.028621    0.964462    1.725825
      9          6           0       -4.383885    1.496264    1.225290
     10          6           0       -2.824189    1.038053    3.292621
     11          6           0       -2.093268   -0.835160    0.088650
     12          6           0       -0.622013   -0.823781    0.491426
     13          6           0        0.345606   -1.093973   -0.639695
     14          8           0        0.113206   -1.451259   -1.752480
     15          8           0        1.605309   -0.944857   -0.212502
     16          7           0       -7.042942    2.725445    0.422065
     17          6           0       -5.853957    3.460397    0.804753
     18          6           0       -6.172046    4.815107    0.976008
     19          6           0       -7.449880    4.959828    0.513097
     20          6           0       -8.021958    3.579011    0.242249
     21          6           0       -5.191191    5.981517    1.370727
     22          6           0       -8.219916    6.312633    0.543440
     23          6           0       -9.184848    6.709809   -0.356521
     24          7           0       -9.207472    0.878571   -0.509292
     25          6           0       -9.864805    2.012203   -0.413404
     26          6           0      -11.340655    1.832029   -0.953949
     27          6           0      -11.402386    0.568901   -1.176267
     28          6           0      -10.077872   -0.103240   -0.929343
     29          6           0      -12.300261    2.944115   -1.097053
     30          6           0      -12.620823   -0.192006   -1.672080
     31          6           0      -12.514296   -0.313536   -3.244659
     32          7           0       -7.405496   -1.282029   -0.207085
     33          6           0       -8.541965   -2.032369   -0.722694
     34          6           0       -8.191129   -3.330854   -0.769422
     35          6           0       -6.792417   -3.393746   -0.234265
     36          6           0       -6.435178   -2.080554    0.023506
     37          6           0       -9.045345   -4.483419   -1.125692
     38          6           0       -5.759330   -4.300187    0.033696
     39          8           0       -5.725482   -5.533732   -0.015282
     40          6           0       -4.487322   -3.344950    0.424671
     41          6           0       -4.047804   -3.783339    1.893427
     42          8           0       -4.335925   -3.326692    2.875071
     43          8           0       -3.099168   -4.760631    1.724410
     44          6           0       -2.579674   -5.365495    2.887067
     45          6           0        2.689588   -1.109348   -1.122918
     46          6           0        4.032658   -0.815693   -0.518975
     47          6           0        4.955667   -0.110044   -1.056088
     48          6           0        5.057627    0.659606   -2.294008
     49          6           0        6.362048    0.017744   -0.185159
     50          6           0        7.567178   -0.466334   -0.936945
     51          6           0        8.793211   -0.509770   -0.170246
     52          6           0       10.132555   -1.003937   -0.731776
     53          6           0       10.044457   -2.491173   -0.859763
     54          6           0       11.291556   -0.425279   -0.006742
     55          6           0       12.650565   -0.809397   -0.577814
     56          6           0       13.807617    0.050225    0.072723
     57          6           0       15.238328   -0.196993   -0.473961
     58          6           0       15.582132   -1.657407   -0.374452
     59          6           0       16.263712    0.715979    0.457541
     60          6           0       17.574952    0.900820   -0.303361
     61          6           0       18.432726    1.813986    0.580167
     62          6           0       20.022205    1.865879    0.147532
     63          6           0       20.187171    2.372101   -1.266565
     64          6           0       20.882411    2.578426    1.111398
     65          1           0       -4.049355    3.569479    1.462816
     66          1           0      -10.017548    3.869167   -0.259014
     67          1           0      -10.625288   -2.195381   -0.897608
     68          1           0       -2.866757   -1.414986    2.071175
     69          1           0       -2.302125    1.567518    1.383648
     70          1           0       -1.933022    0.664043    3.382462
     71          1           0       -2.972640    1.997547    3.691786
     72          1           0       -3.642511    0.390029    3.701505
     73          1           0       -2.343822   -1.667494   -0.205639
     74          1           0       -2.145151    0.044233   -0.581960
     75          1           0       -0.399502    0.149029    0.952828
     76          1           0       -0.404378   -1.530082    1.305545
     77          1           0       -4.268200    5.933770    0.925728
     78          1           0       -5.763881    6.832747    1.411389
     79          1           0       -4.921654    5.728920    2.366380
     80          1           0       -7.977898    6.909347    1.238505
     81          1           0       -9.314602    6.062272   -1.301732
     82          1           0       -9.548627    7.726601   -0.306515
     83          1           0      -12.824597    3.270107   -0.161623
     84          1           0      -11.732688    3.862649   -1.696621
     85          1           0      -13.205636    2.737198   -1.789183
     86          1           0      -12.679443   -1.092973   -0.900849
     87          1           0      -13.569196    0.279853   -1.320686
     88          1           0      -12.511150    0.692283   -3.608514
     89          1           0      -11.656443   -1.031203   -3.463037
     90          1           0      -13.350449   -0.828498   -3.522225
     91          1           0      -10.020099   -4.588157   -0.397575
     92          1           0       -9.566939   -4.567971   -2.131693
     93          1           0       -8.579012   -5.463617   -0.948230
     94          1           0       -3.776694   -3.395817   -0.315155
     95          1           0       -2.011598   -6.423516    2.622154
     96          1           0       -1.924640   -4.679696    3.419079
     97          1           0       -3.462124   -5.808428    3.576793
     98          1           0        2.578785   -2.114254   -1.342314
     99          1           0        2.384320   -0.613024   -2.029310
    100          1           0        4.195748   -1.094220    0.756405
    101          1           0        5.354562    1.711088   -2.159680
    102          1           0        5.695724    0.395243   -3.057375
    103          1           0        3.964370    0.764840   -2.870710
    104          1           0        6.653121    1.062188    0.095032
    105          1           0        6.047913   -0.659550    0.870285
    106          1           0        7.310025   -1.481161   -1.281232
    107          1           0        7.708178    0.189398   -1.835763
    108          1           0        8.810457    0.513776    0.319287
    109          1           0        8.512440   -1.158874    0.752333
    110          1           0       10.309377   -0.789823   -1.838244
    111          1           0        9.359059   -2.774520   -1.680280
    112          1           0       11.050319   -2.984609   -1.193890
    113          1           0        9.748987   -2.985004    0.006534
    114          1           0       11.171033    0.683137   -0.142360
    115          1           0       11.233509   -0.646260    1.045960
    116          1           0       12.893018   -1.917545   -0.448551
    117          1           0       12.503007   -0.802115   -1.678295
    118          1           0       13.615759    1.029546    0.175391
    119          1           0       13.822725   -0.277882    1.205980
    120          1           0       15.227513    0.251128   -1.554189
    121          1           0       14.926727   -1.993647   -1.281628
    122          1           0       16.546223   -1.711742   -0.719888
    123          1           0       15.183131   -1.993507    0.550577
    124          1           0       15.659739    1.923607    0.555796
    125          1           0       16.350425    0.253332    1.440157
    126          1           0       17.943384   -0.189109   -0.359257
    127          1           0       17.433318    1.234012   -1.345448
    128          1           0       18.037869    2.908606    0.418256
    129          1           0       18.525088    1.445881    1.662078
    130          1           0       20.390423    0.860815    0.180679
    131          1           0       19.647826    3.365384   -1.276873
    132          1           0       21.301507    2.305112   -1.525191
    133          1           0       19.513566    1.751252   -1.939066
    134          1           0       20.748599    2.245331    2.133687
    135          1           0       21.947411    2.521010    0.836836
    136          1           0       20.838724    3.704532    1.105423
    137          1           0       -7.069797    1.750062    0.276169
    138          1           0       -7.301622   -0.194018   -0.290508
 ---------------------------------------------------------------------

 SCF Done:  E(RB3LYP) =  -2733.04036662     A.U. after   16 cycles

 Excitation energies and oscillator strengths:

 Excited State   1:      Singlet-A      2.1240 eV  583.72 nm  f=0.2410  <S**2>=0.000
     235 -> 237       -0.33758
     235 -> 238        0.21642
     236 -> 237        0.56045
     236 -> 238        0.14927
 This state for optimization and/or second-order correction.
 Total Energy, E(TD-HF/TD-KS) =  -2732.96231019
 Copying the excited state density for this state as the 1-particle RhoCI density.

 The electronic state is 1-A.
 Alpha  occ. eigenvalues --  -19.16263 -19.16137 -19.13246 -19.11804 -19.10420
 Alpha  occ. eigenvalues --  -14.37055 -14.36586 -14.32600 -14.30439 -10.30914
 Alpha  occ. eigenvalues --  -10.30779 -10.26210 -10.25302 -10.24650 -10.24410
 Alpha  occ. eigenvalues --  -10.23705 -10.23324 -10.22775 -10.22463 -10.22011
 Alpha  occ. eigenvalues --  -10.21980 -10.21901 -10.21420 -10.21382 -10.21289
 Alpha  occ. eigenvalues --  -10.20990 -10.20910 -10.20873 -10.20807 -10.20695
 Alpha  occ. eigenvalues --  -10.20374 -10.20368 -10.20234 -10.20174 -10.20104
 Alpha  occ. eigenvalues --  -10.20071 -10.20059 -10.20015 -10.19962 -10.19896
 Alpha  occ. eigenvalues --  -10.19830 -10.19617 -10.19445 -10.19396 -10.19008
 Alpha  occ. eigenvalues --  -10.18790 -10.18746 -10.18558 -10.18438 -10.18435
 Alpha  occ. eigenvalues --  -10.18429 -10.18362 -10.18182 -10.17971 -10.17938
 Alpha  occ. eigenvalues --  -10.17908 -10.17833 -10.17632 -10.17527 -10.17490
 Alpha  occ. eigenvalues --  -10.17470 -10.17398 -10.17381 -10.17154  -1.11578
 Alpha  occ. eigenvalues --   -1.09718  -1.02726  -1.00576  -0.99880  -0.98947
 Alpha  occ. eigenvalues --   -0.98357  -0.94142  -0.93207  -0.84432  -0.83169
 Alpha  occ. eigenvalues --   -0.83103  -0.82142  -0.81668  -0.81181  -0.80886
 Alpha  occ. eigenvalues --   -0.80327  -0.80071  -0.79591  -0.79266  -0.78000
 Alpha  occ. eigenvalues --   -0.77326  -0.76455  -0.75642  -0.75240  -0.74615
 Alpha  occ. eigenvalues --   -0.74212  -0.72947  -0.72676  -0.72502  -0.72173
 Alpha  occ. eigenvalues --   -0.70230  -0.69506  -0.68377  -0.67890  -0.67618
 Alpha  occ. eigenvalues --   -0.67585  -0.67237  -0.66505  -0.65853  -0.64812
 Alpha  occ. eigenvalues --   -0.64174  -0.63522  -0.62308  -0.61945  -0.61631
 Alpha  occ. eigenvalues --   -0.61116  -0.58521  -0.57972  -0.57642  -0.57465
 Alpha  occ. eigenvalues --   -0.56994  -0.56392  -0.55849  -0.55658  -0.55631
 Alpha  occ. eigenvalues --   -0.54724  -0.54643  -0.54414  -0.53965  -0.53179
 Alpha  occ. eigenvalues --   -0.52524  -0.52191  -0.52023  -0.51571  -0.50866
 Alpha  occ. eigenvalues --   -0.50463  -0.49471  -0.49114  -0.49061  -0.48856
 Alpha  occ. eigenvalues --   -0.48247  -0.48008  -0.47856  -0.47615  -0.47417
 Alpha  occ. eigenvalues --   -0.46971  -0.46813  -0.46343  -0.46331  -0.45712
 Alpha  occ. eigenvalues --   -0.45451  -0.45321  -0.45183  -0.45052  -0.44962
 Alpha  occ. eigenvalues --   -0.44658  -0.44417  -0.44272  -0.43941  -0.43924
 Alpha  occ. eigenvalues --   -0.43681  -0.43540  -0.43169  -0.43014  -0.42884
 Alpha  occ. eigenvalues --   -0.42650  -0.42394  -0.42296  -0.42083  -0.42050
 Alpha  occ. eigenvalues --   -0.41698  -0.41641  -0.41312  -0.41140  -0.40914
 Alpha  occ. eigenvalues --   -0.40580  -0.40313  -0.40128  -0.39850  -0.39447
 Alpha  occ. eigenvalues --   -0.39362  -0.39030  -0.38831  -0.38763  -0.38671
 Alpha  occ. eigenvalues --   -0.38380  -0.38198  -0.38145  -0.38059  -0.37853
 Alpha  occ. eigenvalues --   -0.37510  -0.37447  -0.37305  -0.36879  -0.36649
 Alpha  occ. eigenvalues --   -0.36527  -0.36450  -0.36271  -0.36010  -0.35925
 Alpha  occ. eigenvalues --   -0.35610  -0.35208  -0.35017  -0.34718  -0.34529
 Alpha  occ. eigenvalues --   -0.34095  -0.33999  -0.33987  -0.33691  -0.33556
 Alpha  occ. eigenvalues --   -0.33084  -0.33037  -0.32795  -0.32347  -0.32091
 Alpha  occ. eigenvalues --   -0.31975  -0.31817  -0.31576  -0.31439  -0.31143
 Alpha  occ. eigenvalues --   -0.30856  -0.30646  -0.30393  -0.30105  -0.30047
 Alpha  occ. eigenvalues --   -0.29832  -0.29462  -0.28924  -0.28520  -0.27719
 Alpha  occ. eigenvalues --   -0.26947  -0.26848  -0.26524  -0.26299  -0.25898
 Alpha  occ. eigenvalues --   -0.25294  -0.24810  -0.24180  -0.23539  -0.19982
 Alpha  occ. eigenvalues --   -0.19398
 Alpha virt. eigenvalues --   -0.10889  -0.06826  -0.03657  -0.02104   0.00878
 Alpha virt. eigenvalues --    0.01009   0.01375   0.02297   0.02488   0.03220
 Alpha virt. eigenvalues --    0.03734   0.03978   0.04585   0.04665   0.04982

 Mulliken charges:
               1
     1  C   -0.038672
     2  C   -0.012999
     3  C    0.027510
     4  C   -0.121778
     5  N   -0.197748
     6  C   -0.031989
     7  C   -0.177089
     8  C    0.014478
     9  C    0.079211
    10  C    0.138563
    11  C    0.276308
    12  C    0.010403
    13  C    0.163761
    14  O   -0.219378
    15  O   -0.325317
    16  N   -0.032403
    17  C    0.052315
    18  C   -0.167569
    19  C   -0.001122
    20  C    0.161801
    21  C    0.246647
    22  C    0.016098
    23  C   -0.021207
    24  N   -0.198851
    25  C   -0.054305
    26  C   -0.083669
    27  C   -0.097843
    28  C    0.103316
    29  C    0.013167
    30  C   -0.014331
    31  C    0.094728
    32  N   -0.044876
    33  C    0.076996
    34  C   -0.061931
    35  C    0.008846
    36  C    0.041132
    37  C    0.017533
    38  C   -0.001548
    39  O   -0.202563
    40  C   -0.035552
    41  C    0.193683
    42  O   -0.111338
    43  O   -0.312016
    44  C    0.111018
    45  C    0.325471
    46  C   -0.121791
    47  C   -0.075577
    48  C    0.065350
    49  C   -0.047264
    50  C    0.044479
    51  C    0.010983
    52  C   -0.045707
    53  C    0.032470
    54  C    0.067670
    55  C    0.004792
    56  C    0.069653
    57  C   -0.146298
    58  C    0.136327
    59  C   -0.067913
    60  C    0.039507
    61  C   -0.006408
    62  C   -0.082207
    63  C    0.006059
    64  C    0.054292
    65  H   -0.086679
    66  H   -0.152003
    67  H    0.018360
    68  H    0.037678
    69  H   -0.049018
    70  H   -0.026821
    71  H   -0.005998
    72  H    0.028037
    73  H   -0.103523
    74  H    0.003919
    75  H    0.014683
    76  H    0.019330
    77  H    0.011897
    78  H   -0.008292
    79  H   -0.002012
    80  H   -0.067462
    81  H    0.050259
    82  H    0.029370
    83  H    0.042783
    84  H    0.045543
    85  H    0.019219
    86  H    0.013512
    87  H   -0.008356
    88  H    0.021037
    89  H    0.031180
    90  H   -0.011485
    91  H    0.028393
    92  H    0.032813
    93  H    0.036263
    94  H    0.039281
    95  H    0.051208
    96  H    0.030014
    97  H    0.042347
    98  H   -0.018512
    99  H    0.003706
   100  H    0.047016
   101  H    0.016358
   102  H    0.013622
   103  H    0.016692
   104  H    0.009868
   105  H    0.016416
   106  H   -0.009374
   107  H   -0.001049
   108  H   -0.022776
   109  H   -0.009261
   110  H   -0.016038
   111  H    0.007540
   112  H    0.006648
   113  H   -0.016965
   114  H   -0.002606
   115  H   -0.015299
   116  H    0.006350
   117  H   -0.015929
   118  H   -0.049781
   119  H   -0.013565
   120  H    0.003241
   121  H    0.016292
   122  H   -0.020422
   123  H    0.015621
   124  H    0.002282
   125  H    0.007453
   126  H    0.001315
   127  H    0.011182
   128  H    0.018792
   129  H    0.012390
   130  H   -0.020895
   131  H    0.006130
   132  H    0.028686
   133  H    0.009335
   134  H    0.000679
   135  H   -0.010195
   136  H   -0.010046
   137  H    0.109238
   138  H    0.195076
 Sum of Mulliken charges =   0.00000

 Dipole moment (field-independent basis, Debye):
    X=              1.0912    Y=              7.1710    Z=              0.5359  Tot=              7.2734
 Quadrupole moment (field-independent basis, Debye-Ang):
   XX=           -334.7019   YY=           -385.4342   ZZ=           -394.1501
   XY=            -45.1693   XZ=              5.7329   YZ=             -1.3931

 Normal termination of Gaussian 09 at Sat Aug  3 23:57:45 2019.
