 Gaussian 09, Revision D.01,
 Gaussian 09:  ES64L-G09RevD.01 24-Apr-2013

 --------------------------
 # td=(NStates=1) B3LYP/SVP
 --------------------------

 --
 TD
 --
 Symbolic Z-matrix:
 Charge =  0 Multiplicity = 1

                         Standard orientation:
 ---------------------------------------------------------------------
 Center     Atomic      Atomic             Coordinates (Angstroms)
 Number     Number       Type             X           Y           Z
 ---------------------------------------------------------------------
      1          6           0       -5.093944   -1.914067    0.487924
      2          6           0       -4.746083    2.733143    1.560416
      3          6           0       -9.185404    3.302258   -0.200051
      4          6           0       -9.730846   -1.334584   -1.008536
      5          7           0       -5.278740    0.346747    1.147239
      6          6           0       -4.531160   -0.812467    0.981105
      7          6           0       -3.083632   -0.584981    1.410827
      8          6           0       -3.173472    0.835517    2.051684
      9          6           0       -4.473549    1.376774    1.542275
     10          6           0       -3.100551    0.801965    3.544825
     11          6           0       -2.104796   -0.757267    0.248656
     12          6           0       -0.639511   -0.715601    0.616317
     13          6           0        0.383674   -1.075348   -0.438309
     14          8           0        0.056648   -1.705267   -1.447874
     15          8           0        1.641740   -0.756761   -0.020889
     16          7           0       -7.076241    2.740712    0.637312
     17          6           0       -5.833608    3.348603    1.122681
     18          6           0       -6.154226    4.799265    1.093346
     19          6           0       -7.382288    4.974595    0.509151
     20          6           0       -7.971153    3.679369    0.317324
     21          6           0       -5.177013    5.882395    1.599257
     22          6           0       -8.110140    6.261142    0.382771
     23          6           0       -8.774299    6.591082   -0.657424
     24          7           0       -9.195757    0.892845   -0.407112
     25          6           0       -9.832293    2.078836   -0.424748
     26          6           0      -11.256614    1.931537   -1.120227
     27          6           0      -11.374615    0.620267   -1.322386
     28          6           0      -10.090488    0.021996   -0.939417
     29          6           0      -12.094713    3.116112   -1.292189
     30          6           0      -12.540466   -0.027399   -1.973886
     31          6           0      -12.329911   -0.145351   -3.529919
     32          7           0       -7.504099   -1.249159   -0.328473
     33          6           0       -8.601273   -1.997382   -0.655527
     34          6           0       -8.221106   -3.423555   -0.784623
     35          6           0       -6.849286   -3.397011   -0.383251
     36          6           0       -6.548186   -2.073441   -0.051142
     37          6           0       -8.965026   -4.565171   -1.082236
     38          6           0       -5.803624   -4.315260   -0.065056
     39          8           0       -5.651558   -5.460931   -0.133228
     40          6           0       -4.556159   -3.281212    0.428042
     41          6           0       -4.036737   -3.872627    1.772767
     42          8           0       -4.202163   -3.275653    2.885673
     43          8           0       -3.418890   -4.997942    1.566393
     44          6           0       -3.022845   -5.748028    2.724671
     45          6           0        2.611755   -1.071845   -1.087652
     46          6           0        3.910935   -0.622954   -0.575410
     47          6           0        4.948194   -0.049920   -1.171305
     48          6           0        4.955158    0.484338   -2.600968
     49          6           0        6.199007    0.289567   -0.400526
     50          6           0        7.418089   -0.405764   -0.913476
     51          6           0        8.694395   -0.137411   -0.268330
     52          6           0        9.932137   -0.713144   -0.850099
     53          6           0       10.007842   -2.378552   -0.926430
     54          6           0       11.248605   -0.166309   -0.112561
     55          6           0       12.617747   -0.558606   -0.649156
     56          6           0       13.817202   -0.031822    0.192069
     57          6           0       15.270529   -0.027446   -0.483337
     58          6           0       15.656522   -1.537043   -0.521597
     59          6           0       16.318756    0.654282    0.427545
     60          6           0       17.766925    0.624757   -0.158055
     61          6           0       18.683372    1.649108    0.509676
     62          6           0       20.168249    1.556690    0.141998
     63          6           0       20.304847    2.117283   -1.283471
     64          6           0       20.978079    2.337233    1.140877
     65          1           0       -4.046063    3.371025    1.925468
     66          1           0       -9.890139    4.349506   -0.363647
     67          1           0      -10.739952   -1.957680   -1.208967
     68          1           0       -2.707433   -1.253555    2.232860
     69          1           0       -2.313672    1.562106    1.565012
     70          1           0       -2.159702    0.140052    3.881205
     71          1           0       -2.841048    1.770991    3.942329
     72          1           0       -4.054664    0.343807    4.080187
     73          1           0       -2.459470   -1.722630   -0.320277
     74          1           0       -2.112217   -0.034956   -0.492040
     75          1           0       -0.510718    0.498773    0.914663
     76          1           0       -0.481866   -1.312660    1.487775
     77          1           0       -4.228110    5.565463    1.029476
     78          1           0       -5.724874    6.755587    1.516093
     79          1           0       -5.043920    5.774255    2.796789
     80          1           0       -7.970199    6.893020    1.462233
     81          1           0       -8.868292    5.795845   -1.530021
     82          1           0       -9.286034    7.589393   -0.654276
     83          1           0      -12.516737    3.588575   -0.316839
     84          1           0      -11.500830    3.776375   -1.975776
     85          1           0      -12.943040    2.695720   -2.072501
     86          1           0      -12.599774   -1.004473   -1.619247
     87          1           0      -13.566548    0.457928   -1.725234
     88          1           0      -12.016259    0.845227   -4.008033
     89          1           0      -11.557996   -0.820391   -3.850899
     90          1           0      -13.382405   -0.645445   -4.204952
     91          1           0       -9.802888   -4.606680   -0.351320
     92          1           0       -9.485789   -4.434954   -2.055386
     93          1           0       -8.551085   -5.542269   -1.140621
     94          1           0       -3.702845   -3.515458   -0.330027
     95          1           0       -2.336207   -6.754061    2.337554
     96          1           0       -2.492794   -5.028120    3.486572
     97          1           0       -3.997305   -6.227839    3.338270
     98          1           0        2.675742   -2.126864   -1.262483
     99          1           0        2.167053   -0.536594   -2.012052
    100          1           0        4.078561   -1.000903    0.487652
    101          1           0        5.305490    1.615644   -2.487422
    102          1           0        5.602830    0.080004   -3.179688
    103          1           0        3.929463    0.332468   -3.122294
    104          1           0        6.352244    1.325175   -0.284429
    105          1           0        6.072793   -0.128596    0.645880
    106          1           0        7.086747   -1.340305   -1.095686
    107          1           0        7.521925   -0.139056   -1.968724
    108          1           0        8.812569    0.981735   -0.392127
    109          1           0        8.580545   -0.388251    0.760170
    110          1           0       10.055030   -0.447416   -1.841591
    111          1           0        9.143392   -2.664431   -1.605433
    112          1           0       10.967767   -2.569995   -1.433759
    113          1           0       10.009011   -2.761960    0.210421
    114          1           0       11.098000    0.914806   -0.002374
    115          1           0       11.323882   -0.445587    0.971217
    116          1           0       13.073099   -1.514082   -0.803254
    117          1           0       12.777103   -0.204078   -1.668336
    118          1           0       13.407944    1.066363    0.501025
    119          1           0       13.962496   -0.728823    1.125797
    120          1           0       15.427360    0.405543   -1.352301
    121          1           0       14.984578   -2.087194   -1.114263
    122          1           0       16.563505   -1.411303   -1.050280
    123          1           0       15.957750   -2.157764    0.276781
    124          1           0       16.058862    1.840908    0.467905
    125          1           0       16.393122    0.427237    1.440920
    126          1           0       18.249490   -0.254432   -0.068910
    127          1           0       17.827663    0.790729   -1.227732
    128          1           0       18.215600    2.666753    0.269490
    129          1           0       18.610281    1.542588    1.621134
    130          1           0       20.393936    0.427397    0.019467
    131          1           0       19.967291    3.130251   -1.197016
    132          1           0       21.470433    2.290095   -1.425418
    133          1           0       19.790509    1.658083   -2.100122
    134          1           0       20.875976    1.774553    2.204283
    135          1           0       22.022606    2.255507    1.123046
    136          1           0       20.717064    3.397980    1.299286
    137          1           0       -7.054643    1.756564    0.426116
    138          1           0       -7.624552   -0.190093   -0.324112
 ---------------------------------------------------------------------

 SCF Done:  E(RB3LYP) =  -2733.07048804     A.U. after   17 cycles

 Excitation energies and oscillator strengths:

 Excited State   1:      Singlet-A      2.0979 eV  591.00 nm  f=0.2085  <S**2>=0.000
     235 -> 237       -0.12034
     235 -> 238        0.23372
     236 -> 237        0.64347
     236 -> 238        0.11921
 This state for optimization and/or second-order correction.
 Total Energy, E(TD-HF/TD-KS) =  -2732.99339327
 Copying the excited state density for this state as the 1-particle RhoCI density.

 The electronic state is 1-A.
 Alpha  occ. eigenvalues --  -19.18967 -19.18275 -19.12686 -19.12609 -19.10805
 Alpha  occ. eigenvalues --  -14.37273 -14.35874 -14.31483 -14.30753 -10.31653
 Alpha  occ. eigenvalues --  -10.31052 -10.27728 -10.27501 -10.25073 -10.23652
 Alpha  occ. eigenvalues --  -10.23521 -10.23288 -10.22926 -10.22379 -10.21787
 Alpha  occ. eigenvalues --  -10.21781 -10.21642 -10.21438 -10.21400 -10.21343
 Alpha  occ. eigenvalues --  -10.20866 -10.20738 -10.20661 -10.20555 -10.20472
 Alpha  occ. eigenvalues --  -10.20319 -10.20293 -10.20217 -10.20180 -10.20051
 Alpha  occ. eigenvalues --  -10.19962 -10.19868 -10.19630 -10.19578 -10.19561
 Alpha  occ. eigenvalues --  -10.19448 -10.19420 -10.19377 -10.19225 -10.19177
 Alpha  occ. eigenvalues --  -10.18951 -10.18895 -10.18876 -10.18761 -10.18760
 Alpha  occ. eigenvalues --  -10.18582 -10.18504 -10.18441 -10.18423 -10.18350
 Alpha  occ. eigenvalues --  -10.18282 -10.18112 -10.17811 -10.17801 -10.17670
 Alpha  occ. eigenvalues --  -10.17600 -10.16909 -10.16614 -10.16416  -1.10210
 Alpha  occ. eigenvalues --   -1.08454  -1.05967  -1.00294  -0.99953  -0.97115
 Alpha  occ. eigenvalues --   -0.97042  -0.93945  -0.92934  -0.83651  -0.83481
 Alpha  occ. eigenvalues --   -0.82174  -0.81886  -0.81863  -0.80966  -0.80834
 Alpha  occ. eigenvalues --   -0.80439  -0.80252  -0.79937  -0.79110  -0.77599
 Alpha  occ. eigenvalues --   -0.77095  -0.76364  -0.75332  -0.75220  -0.74316
 Alpha  occ. eigenvalues --   -0.73749  -0.73474  -0.72947  -0.72043  -0.71179
 Alpha  occ. eigenvalues --   -0.70152  -0.69121  -0.68439  -0.67778  -0.67749
 Alpha  occ. eigenvalues --   -0.66994  -0.66829  -0.65812  -0.65641  -0.65270
 Alpha  occ. eigenvalues --   -0.63351  -0.62639  -0.62310  -0.61681  -0.61541
 Alpha  occ. eigenvalues --   -0.60913  -0.59629  -0.58678  -0.57978  -0.56825
 Alpha  occ. eigenvalues --   -0.56680  -0.56480  -0.56243  -0.55718  -0.55501
 Alpha  occ. eigenvalues --   -0.55154  -0.54969  -0.54407  -0.53174  -0.52928
 Alpha  occ. eigenvalues --   -0.52117  -0.51639  -0.50968  -0.50506  -0.49995
 Alpha  occ. eigenvalues --   -0.49699  -0.48970  -0.48906  -0.48672  -0.48324
 Alpha  occ. eigenvalues --   -0.47594  -0.47361  -0.47247  -0.46905  -0.46544
 Alpha  occ. eigenvalues --   -0.46506  -0.46175  -0.46072  -0.45844  -0.45761
 Alpha  occ. eigenvalues --   -0.45556  -0.45374  -0.45054  -0.44728  -0.44674
 Alpha  occ. eigenvalues --   -0.44597  -0.44374  -0.44213  -0.43969  -0.43708
 Alpha  occ. eigenvalues --   -0.43664  -0.43532  -0.43227  -0.43031  -0.42850
 Alpha  occ. eigenvalues --   -0.42223  -0.42158  -0.41956  -0.41737  -0.41477
 Alpha  occ. eigenvalues --   -0.41443  -0.41233  -0.41091  -0.40784  -0.40515
 Alpha  occ. eigenvalues --   -0.40348  -0.40037  -0.39744  -0.39557  -0.39206
 Alpha  occ. eigenvalues --   -0.38889  -0.38748  -0.38550  -0.38417  -0.38260
 Alpha  occ. eigenvalues --   -0.37949  -0.37751  -0.37705  -0.37528  -0.37443
 Alpha  occ. eigenvalues --   -0.37222  -0.37071  -0.36898  -0.36767  -0.36696
 Alpha  occ. eigenvalues --   -0.36326  -0.36215  -0.35954  -0.35692  -0.35564
 Alpha  occ. eigenvalues --   -0.35470  -0.35030  -0.34846  -0.34671  -0.34617
 Alpha  occ. eigenvalues --   -0.34460  -0.34316  -0.33845  -0.33726  -0.33543
 Alpha  occ. eigenvalues --   -0.33313  -0.33144  -0.32692  -0.32562  -0.32502
 Alpha  occ. eigenvalues --   -0.32203  -0.31643  -0.31637  -0.31390  -0.31303
 Alpha  occ. eigenvalues --   -0.31103  -0.30623  -0.30501  -0.30398  -0.29797
 Alpha  occ. eigenvalues --   -0.29515  -0.28648  -0.28371  -0.28094  -0.27683
 Alpha  occ. eigenvalues --   -0.27591  -0.26807  -0.26128  -0.25779  -0.25691
 Alpha  occ. eigenvalues --   -0.25246  -0.24963  -0.24075  -0.23808  -0.19949
 Alpha  occ. eigenvalues --   -0.18236
 Alpha virt. eigenvalues --   -0.09794  -0.06968  -0.03365  -0.01005  -0.00650
 Alpha virt. eigenvalues --    0.00186   0.00683   0.00814   0.02516   0.03313
 Alpha virt. eigenvalues --    0.03680   0.03773   0.04474   0.04720   0.04729

 Mulliken charges:
               1
     1  C    0.117996
     2  C   -0.037354
     3  C   -0.122971
     4  C   -0.115732
     5  N   -0.209948
     6  C   -0.062144
     7  C    0.023654
     8  C   -0.101426
     9  C    0.023121
    10  C    0.047597
    11  C    0.057364
    12  C    0.006646
    13  C    0.201372
    14  O   -0.254567
    15  O   -0.326282
    16  N   -0.101001
    17  C    0.142394
    18  C   -0.169215
    19  C   -0.001748
    20  C    0.080960
    21  C    0.106469
    22  C   -0.067669
    23  C   -0.051951
    24  N   -0.235049
    25  C    0.040046
    26  C   -0.147167
    27  C   -0.068477
    28  C    0.004845
    29  C    0.045295
    30  C    0.113514
    31  C   -0.060012
    32  N    0.025149
    33  C    0.070600
    34  C   -0.081973
    35  C   -0.023207
    36  C    0.024428
    37  C    0.109119
    38  C    0.042606
    39  O   -0.095592
    40  C   -0.181152
    41  C    0.202691
    42  O   -0.297600
    43  O   -0.230745
    44  C    0.063833
    45  C    0.271158
    46  C   -0.115424
    47  C   -0.150009
    48  C    0.124294
    49  C    0.103107
    50  C    0.034358
    51  C    0.129425
    52  C   -0.052569
    53  C   -0.034533
    54  C    0.055920
    55  C    0.083460
    56  C   -0.065468
    57  C    0.024230
    58  C    0.063725
    59  C    0.027002
    60  C    0.073830
    61  C   -0.023737
    62  C   -0.097115
    63  C    0.040019
    64  C    0.042147
    65  H   -0.083612
    66  H    0.022957
    67  H    0.007406
    68  H    0.012650
    69  H    0.009463
    70  H    0.022673
    71  H    0.002331
    72  H    0.056609
    73  H    0.026059
    74  H   -0.028952
    75  H    0.042871
    76  H    0.020510
    77  H    0.064740
    78  H   -0.004638
    79  H    0.041412
    80  H    0.050764
    81  H    0.067301
    82  H    0.035282
    83  H    0.068388
    84  H    0.035129
    85  H    0.021932
    86  H   -0.025359
    87  H    0.026567
    88  H    0.024846
    89  H    0.012608
    90  H    0.019434
    91  H    0.029896
    92  H    0.016505
    93  H    0.023648
    94  H    0.077347
    95  H    0.071542
    96  H    0.065830
    97  H    0.061982
    98  H    0.030830
    99  H    0.040511
   100  H    0.007307
   101  H    0.026508
   102  H   -0.027678
   103  H    0.016465
   104  H   -0.015331
   105  H   -0.015593
   106  H   -0.049430
   107  H   -0.041183
   108  H   -0.010903
   109  H   -0.022223
   110  H   -0.035282
   111  H    0.027124
   112  H    0.022886
   113  H    0.035554
   114  H   -0.013119
   115  H   -0.009511
   116  H   -0.026814
   117  H   -0.030296
   118  H    0.000807
   119  H    0.015225
   120  H   -0.052915
   121  H   -0.007964
   122  H   -0.023477
   123  H    0.003398
   124  H   -0.004401
   125  H   -0.022504
   126  H   -0.038654
   127  H   -0.027106
   128  H   -0.004514
   129  H   -0.012225
   130  H    0.004456
   131  H   -0.018976
   132  H    0.007250
   133  H    0.018008
   134  H    0.005515
   135  H   -0.009560
   136  H    0.020276
   137  H    0.129598
   138  H    0.171283
 Sum of Mulliken charges =   0.00000

 Dipole moment (field-independent basis, Debye):
    X=              1.9807    Y=              3.6343    Z=             -0.5344  Tot=              4.1734
 Quadrupole moment (field-independent basis, Debye-Ang):
   XX=           -340.6244   YY=           -375.0520   ZZ=           -394.4587
   XY=            -21.6891   XZ=              6.2604   YZ=             -0.5243

 Normal termination of Gaussian 09 at Mon Aug  5 03:24:47 2019.
