 Gaussian 09, Revision D.01,
 Gaussian 09:  ES64L-G09RevD.01 24-Apr-2013

 --------------------------
 # td=(NStates=1) B3LYP/SVP
 --------------------------

 --
 TD
 --
 Symbolic Z-matrix:
 Charge =  0 Multiplicity = 1

                         Standard orientation:
 ---------------------------------------------------------------------
 Center     Atomic      Atomic             Coordinates (Angstroms)
 Number     Number       Type             X           Y           Z
 ---------------------------------------------------------------------
      1          6           0       -5.029958   -1.897939    0.389855
      2          6           0       -4.924027    2.711541    1.510033
      3          6           0       -9.291865    3.354085   -0.219601
      4          6           0       -9.822838   -1.428617   -1.124545
      5          7           0       -5.162785    0.342355    0.793530
      6          6           0       -4.468504   -0.713941    0.827976
      7          6           0       -3.097321   -0.596125    1.317589
      8          6           0       -3.175227    0.882923    1.925262
      9          6           0       -4.443587    1.296039    1.337718
     10          6           0       -3.265612    0.885112    3.438664
     11          6           0       -1.940625   -0.725277    0.215551
     12          6           0       -0.496008   -0.891526    0.734811
     13          6           0        0.438859   -0.991989   -0.466560
     14          8           0        0.061222   -1.218691   -1.649872
     15          8           0        1.731456   -0.802822   -0.088467
     16          7           0       -7.094977    2.822249    0.461019
     17          6           0       -6.010945    3.321910    1.130675
     18          6           0       -6.346525    4.777256    1.078694
     19          6           0       -7.584225    4.939682    0.613902
     20          6           0       -8.087741    3.648689    0.276179
     21          6           0       -5.357599    5.710547    1.603712
     22          6           0       -8.205180    6.257436    0.500734
     23          6           0       -9.120678    6.696415   -0.444231
     24          7           0       -9.302623    0.923395   -0.603695
     25          6           0       -9.970851    2.112855   -0.578016
     26          6           0      -11.367605    1.843291   -1.083165
     27          6           0      -11.459803    0.550821   -1.373414
     28          6           0      -10.127250   -0.043750   -1.030181
     29          6           0      -12.400739    2.991996   -1.142656
     30          6           0      -12.687431   -0.223749   -1.886827
     31          6           0      -12.506497   -0.456307   -3.383497
     32          7           0       -7.415198   -1.290973   -0.285259
     33          6           0       -8.554643   -2.055563   -0.830309
     34          6           0       -8.199980   -3.431344   -0.729817
     35          6           0       -6.851811   -3.432226   -0.222403
     36          6           0       -6.429692   -2.141709   -0.014592
     37          6           0       -8.971475   -4.677804   -1.142920
     38          6           0       -5.710891   -4.301193    0.039626
     39          8           0       -5.671687   -5.532242   -0.158637
     40          6           0       -4.500312   -3.413397    0.494831
     41          6           0       -3.867325   -3.770517    1.826559
     42          8           0       -4.254053   -3.323006    2.885702
     43          8           0       -3.089687   -4.759518    1.702311
     44          6           0       -2.519711   -5.395892    2.927021
     45          6           0        2.686271   -0.903752   -1.145987
     46          6           0        3.984550   -0.588988   -0.501766
     47          6           0        4.964947    0.096975   -1.105952
     48          6           0        4.996307    0.592577   -2.496786
     49          6           0        6.259418    0.362457   -0.300897
     50          6           0        7.518427   -0.480164   -0.757656
     51          6           0        8.825495   -0.216066   -0.089370
     52          6           0       10.158085   -0.816640   -0.736649
     53          6           0       10.050021   -2.306472   -0.905974
     54          6           0       11.303191   -0.404707    0.171642
     55          6           0       12.719028   -0.534268   -0.565988
     56          6           0       13.846261    0.004316    0.279769
     57          6           0       15.316027   -0.184422   -0.437943
     58          6           0       15.723998   -1.642605   -0.532967
     59          6           0       16.359083    0.581605    0.392771
     60          6           0       17.733077    0.725829   -0.203890
     61          6           0       18.722119    1.660719    0.485635
     62          6           0       20.097883    1.714055   -0.059444
     63          6           0       20.148542    2.414192   -1.416043
     64          6           0       21.055049    2.444230    0.995470
     65          1           0       -4.019352    3.360995    1.931195
     66          1           0       -9.990963    4.242716   -0.492934
     67          1           0      -10.457176   -2.067152   -1.750860
     68          1           0       -2.759681   -1.292737    2.059556
     69          1           0       -2.145199    1.322500    1.893865
     70          1           0       -2.328206    0.348572    3.819460
     71          1           0       -3.199097    1.733071    3.968112
     72          1           0       -3.958943    0.196689    3.863579
     73          1           0       -2.206905   -1.492738   -0.453515
     74          1           0       -2.125585    0.212022   -0.484973
     75          1           0       -0.243739   -0.128626    1.481029
     76          1           0       -0.377917   -1.685853    1.386998
     77          1           0       -4.742257    5.832351    0.773277
     78          1           0       -5.609155    6.805584    2.125618
     79          1           0       -4.609724    5.260116    2.378737
     80          1           0       -7.867640    6.874800    1.255012
     81          1           0       -9.305497    6.010834   -1.203048
     82          1           0       -9.445993    7.755489   -0.474887
     83          1           0      -12.520774    3.593750   -0.061432
     84          1           0      -12.061463    3.545629   -2.141729
     85          1           0      -13.190866    2.391514   -1.433047
     86          1           0      -12.856250   -1.161582   -1.280341
     87          1           0      -13.453160    0.515034   -1.738313
     88          1           0      -12.926623    0.551047   -3.782293
     89          1           0      -11.526419   -1.000590   -3.781417
     90          1           0      -13.428130   -1.076982   -3.698558
     91          1           0       -9.997860   -4.853439   -0.714338
     92          1           0       -9.321219   -4.688065   -2.210443
     93          1           0       -8.264426   -5.529594   -0.857469
     94          1           0       -3.745036   -3.609403   -0.340183
     95          1           0       -1.936733   -6.254686    2.530518
     96          1           0       -2.193433   -4.510101    3.461123
     97          1           0       -3.277809   -5.855713    3.426105
     98          1           0        2.605192   -1.971508   -1.485588
     99          1           0        2.409039   -0.131461   -1.909955
    100          1           0        4.123919   -0.957568    0.444881
    101          1           0        5.331644    1.676231   -2.321268
    102          1           0        5.580143    0.049701   -3.325849
    103          1           0        4.016465    0.706222   -3.199125
    104          1           0        6.394372    1.373051   -0.313057
    105          1           0        6.166676   -0.092676    0.830845
    106          1           0        7.370184   -1.514013   -0.712243
    107          1           0        7.512720   -0.281848   -1.716085
    108          1           0        9.061873    0.910901    0.100515
    109          1           0        8.695237   -0.669439    0.891900
    110          1           0       10.099951   -0.447537   -1.822075
    111          1           0        9.152569   -2.506825   -1.642664
    112          1           0       10.978552   -2.992714   -1.376274
    113          1           0        9.775973   -2.725280    0.107512
    114          1           0       11.199897    0.642892    0.722460
    115          1           0       11.481218   -1.296494    1.033681
    116          1           0       12.944228   -1.506776   -0.688203
    117          1           0       12.540789   -0.094919   -1.666509
    118          1           0       13.582498    1.049894    0.483938
    119          1           0       13.932993   -0.406705    1.377869
    120          1           0       15.158106    0.213313   -1.461867
    121          1           0       14.999371   -2.331802   -0.975694
    122          1           0       16.642782   -1.885801   -1.117290
    123          1           0       15.661076   -2.106185    0.364431
    124          1           0       15.894481    1.537674    0.893529
    125          1           0       16.371257    0.113480    1.191438
    126          1           0       18.067208   -0.264845   -0.399568
    127          1           0       17.560566    1.122887   -1.286921
    128          1           0       18.245768    2.602210    0.313900
    129          1           0       18.734632    1.328618    1.542616
    130          1           0       20.688694    0.540742   -0.334926
    131          1           0       19.537747    3.429857   -1.166664
    132          1           0       21.171697    2.531423   -1.806721
    133          1           0       19.549819    1.845813   -2.305372
    134          1           0       21.060423    1.863939    1.891343
    135          1           0       22.098516    2.461704    0.585790
    136          1           0       20.405040    3.411505    1.040768
    137          1           0       -7.212536    1.754339    0.353616
    138          1           0       -7.559426   -0.280027   -0.186786
 ---------------------------------------------------------------------

 SCF Done:  E(RB3LYP) =  -2733.05296890     A.U. after   17 cycles

 Excitation energies and oscillator strengths:

 Excited State   1:      Singlet-A      2.1924 eV  565.51 nm  f=0.1328  <S**2>=0.000
     235 -> 237       -0.12554
     235 -> 238       -0.31499
     236 -> 237        0.60376
     236 -> 238       -0.13214
 This state for optimization and/or second-order correction.
 Total Energy, E(TD-HF/TD-KS) =  -2732.97239793
 Copying the excited state density for this state as the 1-particle RhoCI density.

 The electronic state is 1-A.
 Alpha  occ. eigenvalues --  -19.18327 -19.18056 -19.12877 -19.10843 -19.10825
 Alpha  occ. eigenvalues --  -14.36674 -14.36119 -14.32258 -14.29620 -10.32508
 Alpha  occ. eigenvalues --  -10.30652 -10.27055 -10.25147 -10.24884 -10.23994
 Alpha  occ. eigenvalues --  -10.23477 -10.23031 -10.22937 -10.22647 -10.21865
 Alpha  occ. eigenvalues --  -10.21790 -10.21416 -10.21266 -10.21197 -10.21140
 Alpha  occ. eigenvalues --  -10.20891 -10.20858 -10.20711 -10.20700 -10.20644
 Alpha  occ. eigenvalues --  -10.20592 -10.20505 -10.20498 -10.20476 -10.20235
 Alpha  occ. eigenvalues --  -10.20212 -10.20205 -10.20150 -10.20133 -10.20048
 Alpha  occ. eigenvalues --  -10.20009 -10.19915 -10.19741 -10.19740 -10.19621
 Alpha  occ. eigenvalues --  -10.19594 -10.19573 -10.19540 -10.19491 -10.19363
 Alpha  occ. eigenvalues --  -10.19043 -10.18858 -10.18803 -10.18385 -10.18200
 Alpha  occ. eigenvalues --  -10.18110 -10.17984 -10.17980 -10.17911 -10.17881
 Alpha  occ. eigenvalues --  -10.17704 -10.17008 -10.16922 -10.16403  -1.11286
 Alpha  occ. eigenvalues --   -1.09093  -1.00199  -0.99785  -0.99635  -0.99180
 Alpha  occ. eigenvalues --   -0.98891  -0.96312  -0.93013  -0.82927  -0.82904
 Alpha  occ. eigenvalues --   -0.82647  -0.82024  -0.81730  -0.81418  -0.81090
 Alpha  occ. eigenvalues --   -0.79841  -0.79500  -0.79357  -0.78805  -0.77796
 Alpha  occ. eigenvalues --   -0.77018  -0.76346  -0.75628  -0.75166  -0.74520
 Alpha  occ. eigenvalues --   -0.73817  -0.73568  -0.72972  -0.72180  -0.70966
 Alpha  occ. eigenvalues --   -0.70429  -0.69474  -0.68573  -0.68022  -0.67746
 Alpha  occ. eigenvalues --   -0.67046  -0.66578  -0.66050  -0.65749  -0.65079
 Alpha  occ. eigenvalues --   -0.64391  -0.63246  -0.62441  -0.61695  -0.61548
 Alpha  occ. eigenvalues --   -0.60592  -0.59615  -0.58540  -0.58005  -0.57943
 Alpha  occ. eigenvalues --   -0.57471  -0.56610  -0.56427  -0.56235  -0.55365
 Alpha  occ. eigenvalues --   -0.54819  -0.54672  -0.54171  -0.53679  -0.52992
 Alpha  occ. eigenvalues --   -0.52689  -0.52202  -0.51542  -0.51079  -0.50669
 Alpha  occ. eigenvalues --   -0.50391  -0.50066  -0.49244  -0.48827  -0.48423
 Alpha  occ. eigenvalues --   -0.47969  -0.47883  -0.47704  -0.47520  -0.47222
 Alpha  occ. eigenvalues --   -0.47114  -0.46716  -0.46071  -0.45996  -0.45802
 Alpha  occ. eigenvalues --   -0.45222  -0.45139  -0.44998  -0.44790  -0.44626
 Alpha  occ. eigenvalues --   -0.44513  -0.44157  -0.44049  -0.43854  -0.43272
 Alpha  occ. eigenvalues --   -0.43167  -0.43093  -0.42897  -0.42625  -0.42547
 Alpha  occ. eigenvalues --   -0.42249  -0.42170  -0.42101  -0.41854  -0.41709
 Alpha  occ. eigenvalues --   -0.41573  -0.41424  -0.41106  -0.40787  -0.40606
 Alpha  occ. eigenvalues --   -0.40479  -0.39864  -0.39432  -0.39235  -0.39098
 Alpha  occ. eigenvalues --   -0.38939  -0.38791  -0.38583  -0.38256  -0.38139
 Alpha  occ. eigenvalues --   -0.38075  -0.37671  -0.37588  -0.37443  -0.37336
 Alpha  occ. eigenvalues --   -0.37144  -0.36873  -0.36657  -0.36563  -0.36489
 Alpha  occ. eigenvalues --   -0.36333  -0.36105  -0.35901  -0.35840  -0.35559
 Alpha  occ. eigenvalues --   -0.35329  -0.35302  -0.35139  -0.35007  -0.34881
 Alpha  occ. eigenvalues --   -0.34329  -0.34038  -0.33994  -0.33851  -0.33603
 Alpha  occ. eigenvalues --   -0.33582  -0.33254  -0.33050  -0.32694  -0.32462
 Alpha  occ. eigenvalues --   -0.32173  -0.32094  -0.31879  -0.31693  -0.31667
 Alpha  occ. eigenvalues --   -0.31492  -0.30847  -0.30728  -0.30428  -0.30280
 Alpha  occ. eigenvalues --   -0.30108  -0.28784  -0.28557  -0.28285  -0.28081
 Alpha  occ. eigenvalues --   -0.27637  -0.26924  -0.25767  -0.25549  -0.25112
 Alpha  occ. eigenvalues --   -0.24907  -0.24100  -0.23986  -0.23204  -0.19763
 Alpha  occ. eigenvalues --   -0.18735
 Alpha virt. eigenvalues --   -0.09476  -0.07566  -0.03974  -0.01888  -0.01418
 Alpha virt. eigenvalues --   -0.00089   0.00481   0.01394   0.02504   0.03498
 Alpha virt. eigenvalues --    0.03617   0.03811   0.04265   0.04332   0.04432

 Mulliken charges:
               1
     1  C    0.049546
     2  C   -0.131917
     3  C   -0.136319
     4  C   -0.052749
     5  N   -0.040580
     6  C   -0.100952
     7  C   -0.034272
     8  C   -0.073721
     9  C   -0.015692
    10  C    0.108534
    11  C    0.035149
    12  C    0.098833
    13  C    0.211513
    14  O   -0.277937
    15  O   -0.318772
    16  N   -0.046429
    17  C    0.148459
    18  C   -0.074361
    19  C    0.020810
    20  C    0.126843
    21  C    0.032600
    22  C   -0.046641
    23  C    0.014824
    24  N   -0.223973
    25  C   -0.009629
    26  C   -0.164077
    27  C   -0.123283
    28  C    0.041864
    29  C    0.112345
    30  C    0.093629
    31  C   -0.035834
    32  N   -0.081202
    33  C    0.042389
    34  C   -0.096755
    35  C   -0.001029
    36  C    0.042789
    37  C    0.046875
    38  C    0.055200
    39  O   -0.215672
    40  C   -0.032581
    41  C    0.161102
    42  O   -0.257750
    43  O   -0.260145
    44  C    0.234466
    45  C    0.296660
    46  C   -0.069908
    47  C   -0.097826
    48  C   -0.025519
    49  C    0.046825
    50  C    0.125752
    51  C    0.008462
    52  C   -0.057740
    53  C   -0.062458
    54  C   -0.042488
    55  C    0.078539
    56  C   -0.026331
    57  C   -0.074742
    58  C    0.073434
    59  C    0.143025
    60  C    0.035366
    61  C    0.102153
    62  C   -0.187804
    63  C   -0.024461
    64  C    0.046132
    65  H    0.009101
    66  H   -0.002507
    67  H   -0.004355
    68  H   -0.011832
    69  H    0.006648
    70  H   -0.016586
    71  H   -0.014992
    72  H    0.011116
    73  H    0.003289
    74  H    0.017321
    75  H    0.009331
    76  H    0.000589
    77  H    0.014377
    78  H    0.051796
    79  H    0.033733
    80  H   -0.034042
    81  H    0.014734
    82  H    0.035924
    83  H    0.074122
    84  H    0.043613
    85  H   -0.036925
    86  H    0.022004
    87  H   -0.013374
    88  H    0.016771
    89  H    0.064782
    90  H    0.006437
    91  H    0.018387
    92  H    0.023142
    93  H    0.062580
    94  H    0.056132
    95  H    0.050002
    96  H    0.044286
    97  H    0.012098
    98  H    0.031759
    99  H    0.031710
   100  H   -0.044482
   101  H    0.028306
   102  H    0.058671
   103  H    0.028654
   104  H   -0.015989
   105  H    0.011021
   106  H   -0.021920
   107  H   -0.071236
   108  H    0.004596
   109  H   -0.015704
   110  H    0.007664
   111  H    0.024949
   112  H    0.042350
   113  H    0.014215
   114  H    0.025309
   115  H    0.012974
   116  H   -0.045562
   117  H    0.012363
   118  H   -0.009587
   119  H    0.002536
   120  H   -0.006712
   121  H   -0.016682
   122  H    0.024656
   123  H   -0.035690
   124  H   -0.024766
   125  H   -0.107168
   126  H   -0.024159
   127  H   -0.012033
   128  H   -0.009519
   129  H   -0.003043
   130  H   -0.005763
   131  H    0.012989
   132  H    0.019336
   133  H    0.036013
   134  H    0.011029
   135  H    0.020896
   136  H    0.021508
   137  H    0.172933
   138  H    0.133303
 Sum of Mulliken charges =   0.00000

 Dipole moment (field-independent basis, Debye):
    X=              3.9713    Y=              3.6703    Z=              1.5861  Tot=              5.6354
 Quadrupole moment (field-independent basis, Debye-Ang):
   XX=           -377.4583   YY=           -383.4771   ZZ=           -390.8853
   XY=            -35.4297   XZ=              9.1941   YZ=             -3.3050

 Normal termination of Gaussian 09 at Fri Aug  2 08:08:39 2019.
