 Gaussian 09, Revision D.01,
 Gaussian 09:  ES64L-G09RevD.01 24-Apr-2013

 --------------------------
 # td=(NStates=1) B3LYP/SVP
 --------------------------

 --
 TD
 --
 Symbolic Z-matrix:
 Charge =  0 Multiplicity = 1

                         Standard orientation:
 ---------------------------------------------------------------------
 Center     Atomic      Atomic             Coordinates (Angstroms)
 Number     Number       Type             X           Y           Z
 ---------------------------------------------------------------------
      1          6           0       -5.159744   -1.958550    0.489912
      2          6           0       -4.694098    2.734949    1.482342
      3          6           0       -9.171995    3.431283   -0.176269
      4          6           0       -9.831288   -1.360810   -0.952044
      5          7           0       -5.105871    0.439112    0.776147
      6          6           0       -4.525287   -0.767699    0.862432
      7          6           0       -2.986935   -0.654423    1.379172
      8          6           0       -2.948251    0.817148    1.792971
      9          6           0       -4.328288    1.372564    1.309031
     10          6           0       -2.776099    0.968675    3.317772
     11          6           0       -2.073829   -1.057920    0.235722
     12          6           0       -0.661482   -1.064077    0.699898
     13          6           0        0.337608   -1.326612   -0.431200
     14          8           0        0.018741   -1.576649   -1.587858
     15          8           0        1.670019   -1.067607   -0.065220
     16          7           0       -6.999638    2.799391    0.493687
     17          6           0       -5.774119    3.361583    0.971247
     18          6           0       -6.167500    4.755802    1.101661
     19          6           0       -7.372897    5.038166    0.552286
     20          6           0       -7.922382    3.716650    0.312645
     21          6           0       -5.119748    5.786113    1.367761
     22          6           0       -7.951269    6.302292    0.376182
     23          6           0       -8.716945    6.807254   -0.578473
     24          7           0       -9.212769    1.007184   -0.526869
     25          6           0       -9.883011    2.098565   -0.490452
     26          6           0      -11.189399    2.024559   -1.011246
     27          6           0      -11.413009    0.657487   -1.083981
     28          6           0      -10.135840   -0.035790   -0.850154
     29          6           0      -12.166346    3.216497   -1.175120
     30          6           0      -12.687274   -0.048121   -1.597690
     31          6           0      -12.616919   -0.314842   -3.170885
     32          7           0       -7.548023   -1.283789   -0.187751
     33          6           0       -8.674232   -1.956229   -0.455148
     34          6           0       -8.372165   -3.408726   -0.557464
     35          6           0       -6.933474   -3.364041   -0.154325
     36          6           0       -6.536905   -2.082400    0.055709
     37          6           0       -9.137548   -4.596293   -0.923457
     38          6           0       -5.852224   -4.381094    0.077360
     39          8           0       -5.839872   -5.501910   -0.010342
     40          6           0       -4.548536   -3.393559    0.425591
     41          6           0       -3.891923   -3.802345    1.653281
     42          8           0       -4.156775   -3.501957    2.772591
     43          8           0       -2.961936   -4.737460    1.387334
     44          6           0       -2.392570   -5.366452    2.598843
     45          6           0        2.704419   -1.297342   -1.187226
     46          6           0        4.012523   -0.869039   -0.569080
     47          6           0        4.869696   -0.039215   -1.083490
     48          6           0        4.605523    0.900263   -2.296766
     49          6           0        6.266719    0.249239   -0.385582
     50          6           0        7.414389   -0.366086   -1.181695
     51          6           0        8.688644   -0.361139   -0.260449
     52          6           0        9.996081   -0.721629   -0.972250
     53          6           0       10.034071   -2.241969   -1.289807
     54          6           0       11.222823   -0.236493   -0.083032
     55          6           0       12.547779   -0.531952   -0.852305
     56          6           0       13.818624   -0.136873    0.160842
     57          6           0       15.220390   -0.151111   -0.468827
     58          6           0       15.673957   -1.602133   -0.695829
     59          6           0       16.214953    0.562522    0.548870
     60          6           0       17.609150    0.757747   -0.063225
     61          6           0       18.592230    1.504873    0.869092
     62          6           0       20.055696    1.786794    0.200494
     63          6           0       19.928795    2.566089   -1.197120
     64          6           0       20.951043    2.422820    1.318067
     65          1           0       -3.914297    3.172849    1.869749
     66          1           0       -9.910352    4.309810   -0.464479
     67          1           0      -10.624602   -2.020903   -1.344381
     68          1           0       -2.781157   -1.508414    1.937175
     69          1           0       -2.161842    1.238293    1.342048
     70          1           0       -1.879551    0.613264    3.571602
     71          1           0       -2.860242    1.948000    3.553248
     72          1           0       -3.524547    0.434154    3.810058
     73          1           0       -2.212114   -2.048404   -0.294820
     74          1           0       -2.374907   -0.508587   -0.692308
     75          1           0       -0.214083   -0.191147    1.139242
     76          1           0       -0.396916   -1.915829    1.305559
     77          1           0       -4.303397    5.618234    0.873485
     78          1           0       -5.520695    6.999466    1.604948
     79          1           0       -4.621657    5.656077    2.369259
     80          1           0       -7.676635    6.960006    1.026141
     81          1           0       -9.326541    6.106077   -1.325593
     82          1           0       -9.041515    7.740704   -0.743283
     83          1           0      -12.247175    3.885741   -0.313718
     84          1           0      -11.704212    3.780954   -1.952377
     85          1           0      -13.108124    2.934270   -1.406238
     86          1           0      -12.472586   -1.019355   -1.040314
     87          1           0      -13.721847    0.384017   -1.343240
     88          1           0      -12.448432    0.639502   -3.862452
     89          1           0      -11.729798   -0.947701   -3.491397
     90          1           0      -13.459533   -0.874252   -3.579958
     91          1           0       -9.806359   -4.829094   -0.105720
     92          1           0       -9.608964   -4.414259   -1.906473
     93          1           0       -8.571750   -5.634494   -0.907356
     94          1           0       -3.933454   -3.399373   -0.239301
     95          1           0       -1.848308   -6.146429    2.069999
     96          1           0       -1.782523   -4.717868    3.003039
     97          1           0       -3.427644   -5.578479    3.306404
     98          1           0        2.422021   -2.418559   -1.556847
     99          1           0        2.383074   -0.578297   -2.028921
    100          1           0        4.100810   -1.469177    0.410378
    101          1           0        4.603827    1.994105   -1.726649
    102          1           0        5.416099    0.745284   -3.197702
    103          1           0        3.591554    0.697878   -2.920813
    104          1           0        6.485165    1.240777   -0.404836
    105          1           0        6.163468   -0.385188    0.681277
    106          1           0        7.048203   -1.297485   -1.261507
    107          1           0        7.643444    0.195696   -2.137160
    108          1           0        8.909382    0.671491    0.248921
    109          1           0        8.444309   -0.975326    0.597699
    110          1           0       10.074256   -0.179834   -1.954238
    111          1           0        9.085732   -2.661023   -1.794962
    112          1           0       10.964737   -2.529808   -1.868798
    113          1           0       10.054149   -2.851390   -0.401509
    114          1           0       11.193053    0.787931   -0.254518
    115          1           0       11.242081   -0.853985    0.873897
    116          1           0       12.708391   -1.515571   -1.082734
    117          1           0       12.804043    0.141211   -1.604856
    118          1           0       13.543635    0.929213    0.551827
    119          1           0       14.018511   -0.644039    1.096711
    120          1           0       15.085080    0.328734   -1.450576
    121          1           0       14.971680   -2.191587   -1.577898
    122          1           0       16.604947   -1.562487   -1.448804
    123          1           0       15.765374   -2.096733    0.372430
    124          1           0       15.870432    1.591319    0.911842
    125          1           0       16.121010   -0.128965    1.485092
    126          1           0       18.072991   -0.357851   -0.042743
    127          1           0       17.516626    1.169330   -1.189610
    128          1           0       18.266377    2.416084    1.246385
    129          1           0       18.686488    1.020759    1.803121
    130          1           0       20.434378    0.607419   -0.203231
    131          1           0       19.726855    3.680752   -1.049949
    132          1           0       20.866589    2.326822   -1.505266
    133          1           0       19.119811    2.233905   -1.885895
    134          1           0       20.690948    1.674516    2.175512
    135          1           0       22.083131    2.800547    1.130986
    136          1           0       20.493118    3.433279    1.465346
    137          1           0       -7.111982    1.838848    0.519569
    138          1           0       -7.634809   -0.213852   -0.435608
 ---------------------------------------------------------------------

 SCF Done:  E(RB3LYP) =  -2732.93776188     A.U. after   17 cycles

 Excitation energies and oscillator strengths:

 Excited State   1:      Singlet-A      2.2148 eV  559.81 nm  f=0.1028  <S**2>=0.000
     235 -> 237       -0.16547
     235 -> 238        0.34171
     236 -> 237        0.57812
     236 -> 238        0.13384
 This state for optimization and/or second-order correction.
 Total Energy, E(TD-HF/TD-KS) =  -2732.85637117
 Copying the excited state density for this state as the 1-particle RhoCI density.

 The electronic state is 1-A.
 Alpha  occ. eigenvalues --  -19.16411 -19.16290 -19.13648 -19.12136 -19.11154
 Alpha  occ. eigenvalues --  -14.36848 -14.36234 -14.31948 -14.29470 -10.31031
 Alpha  occ. eigenvalues --  -10.29624 -10.28156 -10.25994 -10.24295 -10.24093
 Alpha  occ. eigenvalues --  -10.23311 -10.23172 -10.23012 -10.22856 -10.22472
 Alpha  occ. eigenvalues --  -10.22463 -10.21648 -10.21621 -10.21207 -10.20901
 Alpha  occ. eigenvalues --  -10.20877 -10.20854 -10.20643 -10.20500 -10.20439
 Alpha  occ. eigenvalues --  -10.20286 -10.20264 -10.20185 -10.20134 -10.20133
 Alpha  occ. eigenvalues --  -10.20130 -10.20065 -10.20004 -10.19936 -10.19595
 Alpha  occ. eigenvalues --  -10.19551 -10.19519 -10.19473 -10.19426 -10.19291
 Alpha  occ. eigenvalues --  -10.19198 -10.19176 -10.19074 -10.18939 -10.18816
 Alpha  occ. eigenvalues --  -10.18742 -10.18650 -10.18506 -10.18445 -10.18245
 Alpha  occ. eigenvalues --  -10.18171 -10.18136 -10.18103 -10.18088 -10.18057
 Alpha  occ. eigenvalues --  -10.17790 -10.17655 -10.17491 -10.16502  -1.09140
 Alpha  occ. eigenvalues --   -1.08555  -1.05870  -0.99733  -0.99635  -0.99053
 Alpha  occ. eigenvalues --   -0.98022  -0.94475  -0.93974  -0.84080  -0.83494
 Alpha  occ. eigenvalues --   -0.82452  -0.82083  -0.81396  -0.80956  -0.80048
 Alpha  occ. eigenvalues --   -0.79871  -0.78962  -0.78335  -0.78200  -0.78085
 Alpha  occ. eigenvalues --   -0.77051  -0.76599  -0.75711  -0.74386  -0.73808
 Alpha  occ. eigenvalues --   -0.73448  -0.72670  -0.71959  -0.71439  -0.71199
 Alpha  occ. eigenvalues --   -0.69793  -0.69422  -0.68850  -0.68005  -0.67699
 Alpha  occ. eigenvalues --   -0.66586  -0.65739  -0.65519  -0.65382  -0.65064
 Alpha  occ. eigenvalues --   -0.64461  -0.63869  -0.62819  -0.62505  -0.61459
 Alpha  occ. eigenvalues --   -0.61044  -0.58561  -0.58264  -0.58099  -0.57715
 Alpha  occ. eigenvalues --   -0.56320  -0.56063  -0.55780  -0.55421  -0.54618
 Alpha  occ. eigenvalues --   -0.54477  -0.54319  -0.53790  -0.53450  -0.52870
 Alpha  occ. eigenvalues --   -0.52518  -0.52174  -0.51743  -0.51401  -0.50589
 Alpha  occ. eigenvalues --   -0.50095  -0.49436  -0.49318  -0.48943  -0.48542
 Alpha  occ. eigenvalues --   -0.48327  -0.47448  -0.47143  -0.47085  -0.46795
 Alpha  occ. eigenvalues --   -0.46546  -0.46327  -0.46188  -0.45840  -0.45625
 Alpha  occ. eigenvalues --   -0.45480  -0.45227  -0.44923  -0.44897  -0.44709
 Alpha  occ. eigenvalues --   -0.44500  -0.44309  -0.44119  -0.44066  -0.43542
 Alpha  occ. eigenvalues --   -0.43452  -0.43256  -0.43192  -0.42862  -0.42714
 Alpha  occ. eigenvalues --   -0.42504  -0.42109  -0.42065  -0.41862  -0.41731
 Alpha  occ. eigenvalues --   -0.41401  -0.41295  -0.40971  -0.40919  -0.40794
 Alpha  occ. eigenvalues --   -0.40715  -0.40599  -0.40426  -0.40105  -0.39804
 Alpha  occ. eigenvalues --   -0.39502  -0.39113  -0.38969  -0.38918  -0.38471
 Alpha  occ. eigenvalues --   -0.38113  -0.37898  -0.37555  -0.37545  -0.37377
 Alpha  occ. eigenvalues --   -0.37289  -0.37023  -0.36885  -0.36662  -0.36438
 Alpha  occ. eigenvalues --   -0.36081  -0.36004  -0.35880  -0.35731  -0.35699
 Alpha  occ. eigenvalues --   -0.35525  -0.34984  -0.34903  -0.34790  -0.34491
 Alpha  occ. eigenvalues --   -0.34427  -0.34415  -0.34161  -0.33940  -0.33876
 Alpha  occ. eigenvalues --   -0.33275  -0.32841  -0.32669  -0.32310  -0.32182
 Alpha  occ. eigenvalues --   -0.32118  -0.32016  -0.31568  -0.31333  -0.31244
 Alpha  occ. eigenvalues --   -0.30796  -0.30779  -0.30273  -0.30103  -0.29928
 Alpha  occ. eigenvalues --   -0.29541  -0.29334  -0.28911  -0.27627  -0.27425
 Alpha  occ. eigenvalues --   -0.27177  -0.26650  -0.26388  -0.26048  -0.25718
 Alpha  occ. eigenvalues --   -0.24872  -0.24660  -0.24337  -0.22390  -0.19711
 Alpha  occ. eigenvalues --   -0.18982
 Alpha virt. eigenvalues --   -0.09458  -0.07952  -0.03415  -0.01336  -0.00373
 Alpha virt. eigenvalues --    0.00807   0.01027   0.01480   0.02857   0.03626
 Alpha virt. eigenvalues --    0.03815   0.04234   0.04296   0.04572   0.04656

 Mulliken charges:
               1
     1  C   -0.020126
     2  C    0.046380
     3  C   -0.136519
     4  C   -0.086036
     5  N   -0.127311
     6  C   -0.102976
     7  C    0.017309
     8  C    0.087999
     9  C   -0.088156
    10  C    0.193423
    11  C   -0.045576
    12  C    0.118662
    13  C    0.151555
    14  O   -0.250461
    15  O   -0.393006
    16  N   -0.008788
    17  C    0.155870
    18  C   -0.115468
    19  C    0.108171
    20  C    0.105687
    21  C    0.104950
    22  C    0.007162
    23  C   -0.017573
    24  N   -0.224607
    25  C   -0.000297
    26  C   -0.173806
    27  C   -0.078682
    28  C    0.073105
    29  C    0.184815
    30  C    0.025401
    31  C   -0.033953
    32  N    0.000258
    33  C    0.034853
    34  C   -0.121631
    35  C   -0.111896
    36  C    0.079025
    37  C    0.066179
    38  C    0.087180
    39  O   -0.052497
    40  C    0.107484
    41  C    0.141516
    42  O   -0.220165
    43  O   -0.338604
    44  C    0.200103
    45  C    0.188073
    46  C   -0.078155
    47  C   -0.086711
    48  C   -0.064527
    49  C    0.064684
    50  C    0.069880
    51  C    0.015152
    52  C   -0.087733
    53  C    0.004606
    54  C    0.094734
    55  C    0.074531
    56  C   -0.029304
    57  C   -0.060211
    58  C   -0.061087
    59  C   -0.018565
    60  C   -0.016638
    61  C    0.080511
    62  C   -0.178317
    63  C    0.042482
    64  C   -0.008275
    65  H   -0.106299
    66  H   -0.002752
    67  H   -0.006883
    68  H   -0.032415
    69  H   -0.049332
    70  H   -0.025452
    71  H   -0.030377
    72  H    0.007320
    73  H    0.030117
    74  H    0.005751
    75  H    0.024771
    76  H    0.018311
    77  H   -0.028021
    78  H    0.047000
    79  H   -0.000847
    80  H   -0.077297
    81  H    0.030284
    82  H   -0.009545
    83  H    0.021791
    84  H    0.009124
    85  H   -0.026763
    86  H    0.016079
    87  H    0.028871
    88  H    0.026513
    89  H    0.008845
    90  H    0.013530
    91  H    0.028585
    92  H    0.042048
    93  H    0.048518
    94  H   -0.086496
    95  H    0.036421
    96  H   -0.012343
    97  H    0.081363
    98  H    0.063229
    99  H    0.032093
   100  H    0.014779
   101  H    0.065984
   102  H    0.055228
   103  H    0.044107
   104  H   -0.032687
   105  H    0.028656
   106  H   -0.030863
   107  H    0.015135
   108  H   -0.007413
   109  H   -0.018941
   110  H   -0.011707
   111  H    0.014438
   112  H    0.020927
   113  H   -0.011610
   114  H   -0.014161
   115  H    0.024734
   116  H   -0.014483
   117  H   -0.016594
   118  H   -0.011603
   119  H   -0.030200
   120  H   -0.018721
   121  H    0.025264
   122  H    0.032635
   123  H    0.038801
   124  H    0.004958
   125  H    0.006190
   126  H    0.021248
   127  H    0.034620
   128  H   -0.040516
   129  H   -0.031485
   130  H    0.004868
   131  H    0.011177
   132  H    0.003183
   133  H    0.016844
   134  H    0.042288
   135  H    0.036575
   136  H    0.013788
   137  H    0.102972
   138  H    0.191762
 Sum of Mulliken charges =   0.00000

 Dipole moment (field-independent basis, Debye):
    X=              2.5334    Y=              4.1448    Z=              0.1957  Tot=              4.8617
 Quadrupole moment (field-independent basis, Debye-Ang):
   XX=           -362.6444   YY=           -376.9581   ZZ=           -395.3202
   XY=            -13.3839   XZ=             10.4035   YZ=              0.9534

 Normal termination of Gaussian 09 at Thu Aug  1 05:18:07 2019.
