 Gaussian 09, Revision D.01,
 Gaussian 09:  ES64L-G09RevD.01 24-Apr-2013

 --------------------------
 # td=(NStates=1) B3LYP/SVP
 --------------------------

 --
 TD
 --
 Symbolic Z-matrix:
 Charge =  0 Multiplicity = 1

                         Standard orientation:
 ---------------------------------------------------------------------
 Center     Atomic      Atomic             Coordinates (Angstroms)
 Number     Number       Type             X           Y           Z
 ---------------------------------------------------------------------
      1          6           0       -5.085752   -1.953043    0.507433
      2          6           0       -4.851133    2.732106    1.362920
      3          6           0       -9.414265    3.264924   -0.156999
      4          6           0       -9.828779   -1.532854   -0.949622
      5          7           0       -5.247153    0.468767    0.903037
      6          6           0       -4.499155   -0.744097    0.885618
      7          6           0       -3.034107   -0.511121    1.218425
      8          6           0       -3.055830    0.942301    1.766601
      9          6           0       -4.434233    1.440118    1.249505
     10          6           0       -2.919706    0.989185    3.243887
     11          6           0       -2.072068   -0.704413    0.021038
     12          6           0       -0.706972   -0.641238    0.527134
     13          6           0        0.311997   -0.811612   -0.712442
     14          8           0        0.011109   -1.125723   -1.818711
     15          8           0        1.548647   -0.673921   -0.287975
     16          7           0       -7.135679    2.732516    0.595990
     17          6           0       -6.018094    3.340170    1.049103
     18          6           0       -6.340362    4.756048    1.076329
     19          6           0       -7.594901    4.962558    0.522906
     20          6           0       -8.130671    3.660854    0.214633
     21          6           0       -5.439261    5.808329    1.567891
     22          6           0       -8.324074    6.130143    0.383243
     23          6           0       -9.162164    6.603943   -0.624914
     24          7           0       -9.232534    0.835328   -0.410653
     25          6           0       -9.858342    1.937584   -0.545867
     26          6           0      -11.290530    1.794154   -0.988418
     27          6           0      -11.422503    0.418483   -1.117072
     28          6           0      -10.103862   -0.146031   -0.893950
     29          6           0      -12.336350    2.815585   -1.161282
     30          6           0      -12.600962   -0.405498   -1.629125
     31          6           0      -12.445998   -0.520660   -3.168382
     32          7           0       -7.485922   -1.314696   -0.156162
     33          6           0       -8.591226   -2.042820   -0.525850
     34          6           0       -8.185337   -3.475640   -0.475596
     35          6           0       -6.783829   -3.408757   -0.114912
     36          6           0       -6.391531   -2.133157    0.067419
     37          6           0       -8.973835   -4.718224   -0.828178
     38          6           0       -5.682103   -4.250672    0.151080
     39          8           0       -5.601460   -5.542141    0.292526
     40          6           0       -4.519808   -3.402361    0.510034
     41          6           0       -3.846507   -3.769484    1.779556
     42          8           0       -4.107295   -3.416922    2.877393
     43          8           0       -2.849399   -4.740921    1.590970
     44          6           0       -2.392864   -5.381122    2.775466
     45          6           0        2.614622   -0.976486   -1.275272
     46          6           0        3.966479   -0.572378   -0.813632
     47          6           0        4.938364    0.144305   -1.292813
     48          6           0        4.899775    0.772886   -2.703429
     49          6           0        6.204698    0.397573   -0.521469
     50          6           0        7.505929   -0.218876   -1.119730
     51          6           0        8.776855   -0.075077   -0.277299
     52          6           0       10.079259   -0.503541   -0.913395
     53          6           0        9.999716   -2.096036   -1.419985
     54          6           0       11.302813   -0.304544   -0.017748
     55          6           0       12.703217   -0.522227   -0.752124
     56          6           0       13.815602    0.002343   -0.001131
     57          6           0       15.229626   -0.169968   -0.472859
     58          6           0       15.664921   -1.583908   -0.833435
     59          6           0       16.338352    0.470061    0.428469
     60          6           0       17.743744    0.750411   -0.133363
     61          6           0       18.738100    1.321641    0.931838
     62          6           0       20.201150    1.434129    0.465278
     63          6           0       20.299014    2.227085   -0.806766
     64          6           0       21.007256    2.064771    1.621799
     65          1           0       -4.306599    3.399949    1.780658
     66          1           0      -10.243172    4.080090   -0.273462
     67          1           0      -10.540639   -2.141779   -1.143629
     68          1           0       -2.725370   -1.091623    2.019642
     69          1           0       -2.197604    1.566000    1.365927
     70          1           0       -1.753829    0.775017    3.598764
     71          1           0       -3.161103    1.865234    3.845903
     72          1           0       -3.553584    0.204634    3.635172
     73          1           0       -2.362526   -1.771088   -0.414674
     74          1           0       -2.264755    0.133004   -0.714173
     75          1           0       -0.452517    0.364526    0.953442
     76          1           0       -0.490591   -1.373417    1.308292
     77          1           0       -4.531152    5.935394    0.860544
     78          1           0       -6.018946    6.700348    1.559459
     79          1           0       -5.031260    5.641640    2.533496
     80          1           0       -8.111310    6.859946    1.210051
     81          1           0       -9.254873    5.833126   -1.425044
     82          1           0       -9.863649    7.474943   -0.553722
     83          1           0      -12.582264    3.204550   -0.047785
     84          1           0      -11.997914    3.568362   -1.920524
     85          1           0      -13.178074    2.297934   -1.514131
     86          1           0      -12.589545   -1.549772   -1.186446
     87          1           0      -13.517826   -0.008104   -1.510154
     88          1           0      -12.401430    0.433689   -3.609585
     89          1           0      -11.495250   -1.078963   -3.320458
     90          1           0      -13.322791   -1.127151   -3.585964
     91          1           0       -9.816253   -4.595747   -0.123272
     92          1           0       -9.320832   -4.818665   -1.950110
     93          1           0       -8.408081   -5.732159   -0.721884
     94          1           0       -4.015819   -3.403208   -0.458998
     95          1           0       -1.748203   -6.214086    2.360958
     96          1           0       -1.910503   -4.659616    3.567098
     97          1           0       -3.205479   -5.848637    3.193727
     98          1           0        2.524243   -2.070981   -1.478995
     99          1           0        2.252220   -0.562606   -2.264123
    100          1           0        4.171682   -1.014301    0.186707
    101          1           0        5.320125    1.814785   -2.777065
    102          1           0        5.480315    0.234674   -3.406022
    103          1           0        3.777191    1.040849   -2.990791
    104          1           0        6.534810    1.470379   -0.470238
    105          1           0        6.065451   -0.091117    0.587075
    106          1           0        7.198731   -1.092103   -1.726479
    107          1           0        7.680941    0.313124   -2.005680
    108          1           0        8.771066    0.858055   -0.102590
    109          1           0        8.622204   -0.526260    0.726580
    110          1           0       10.157141    0.208952   -1.868412
    111          1           0        9.098619   -2.133184   -1.997057
    112          1           0       10.922640   -2.252337   -2.014451
    113          1           0       10.024981   -2.845369   -0.417169
    114          1           0       11.211209    0.813579    0.305965
    115          1           0       11.322696   -1.126125    0.927595
    116          1           0       12.860731   -1.608957   -1.031431
    117          1           0       12.608224   -0.114681   -1.644639
    118          1           0       13.818084    1.102512    0.176684
    119          1           0       13.724841   -0.351436    1.028122
    120          1           0       15.274619    0.444512   -1.396257
    121          1           0       14.862915   -2.197303   -1.379313
    122          1           0       16.680403   -1.674143   -1.386989
    123          1           0       15.781769   -2.295155    0.027207
    124          1           0       16.193764    1.592767    0.817075
    125          1           0       16.274430   -0.021875    1.458429
    126          1           0       18.212868   -0.387596   -0.511728
    127          1           0       17.510263    1.490532   -0.977722
    128          1           0       18.438776    2.538779    1.289408
    129          1           0       18.578491    0.809495    1.832040
    130          1           0       20.503112    0.468193    0.191274
    131          1           0       19.758327    3.234062   -0.760570
    132          1           0       21.261777    2.356300   -1.176772
    133          1           0       19.714837    1.871933   -1.621872
    134          1           0       20.961885    1.401881    2.496043
    135          1           0       22.150386    2.354659    1.278112
    136          1           0       20.448474    2.957349    2.083593
    137          1           0       -7.145263    1.627747    0.649154
    138          1           0       -7.566291   -0.255398   -0.216208
 ---------------------------------------------------------------------

 SCF Done:  E(RB3LYP) =  -2733.15137835     A.U. after   19 cycles

 Excitation energies and oscillator strengths:

 Excited State   1:      Singlet-A      2.0808 eV  595.85 nm  f=0.1737  <S**2>=0.000
     235 -> 238       -0.30641
     236 -> 237        0.63325
 This state for optimization and/or second-order correction.
 Total Energy, E(TD-HF/TD-KS) =  -2733.07491057
 Copying the excited state density for this state as the 1-particle RhoCI density.

 The electronic state is 1-A.
 Alpha  occ. eigenvalues --  -19.17752 -19.15815 -19.12987 -19.12169 -19.10536
 Alpha  occ. eigenvalues --  -14.36816 -14.36768 -14.32720 -14.30364 -10.31567
 Alpha  occ. eigenvalues --  -10.31053 -10.26773 -10.25569 -10.24292 -10.23652
 Alpha  occ. eigenvalues --  -10.23362 -10.23360 -10.23262 -10.22719 -10.22710
 Alpha  occ. eigenvalues --  -10.22009 -10.21845 -10.21586 -10.21433 -10.21086
 Alpha  occ. eigenvalues --  -10.20890 -10.20870 -10.20756 -10.20734 -10.20731
 Alpha  occ. eigenvalues --  -10.20723 -10.20703 -10.20672 -10.20626 -10.20549
 Alpha  occ. eigenvalues --  -10.20532 -10.20479 -10.20337 -10.20162 -10.20161
 Alpha  occ. eigenvalues --  -10.20037 -10.19859 -10.19803 -10.19700 -10.19666
 Alpha  occ. eigenvalues --  -10.19640 -10.19581 -10.19484 -10.19329 -10.19306
 Alpha  occ. eigenvalues --  -10.19302 -10.19084 -10.18716 -10.18668 -10.18641
 Alpha  occ. eigenvalues --  -10.18624 -10.18419 -10.18372 -10.18232 -10.17535
 Alpha  occ. eigenvalues --  -10.17527 -10.17483 -10.17208 -10.16675  -1.10128
 Alpha  occ. eigenvalues --   -1.08833  -1.01032  -1.00290  -0.98347  -0.97768
 Alpha  occ. eigenvalues --   -0.96794  -0.94963  -0.94229  -0.86541  -0.83141
 Alpha  occ. eigenvalues --   -0.83068  -0.82270  -0.82133  -0.81358  -0.80929
 Alpha  occ. eigenvalues --   -0.80304  -0.80263  -0.79272  -0.79078  -0.77651
 Alpha  occ. eigenvalues --   -0.77147  -0.76602  -0.75903  -0.75221  -0.74754
 Alpha  occ. eigenvalues --   -0.73664  -0.73433  -0.73053  -0.71565  -0.71054
 Alpha  occ. eigenvalues --   -0.69793  -0.69561  -0.68625  -0.68184  -0.67903
 Alpha  occ. eigenvalues --   -0.67351  -0.66605  -0.66389  -0.65676  -0.65437
 Alpha  occ. eigenvalues --   -0.64335  -0.63294  -0.62645  -0.62276  -0.61462
 Alpha  occ. eigenvalues --   -0.61230  -0.59521  -0.58631  -0.58439  -0.57762
 Alpha  occ. eigenvalues --   -0.57542  -0.56010  -0.55807  -0.55561  -0.55272
 Alpha  occ. eigenvalues --   -0.55240  -0.54716  -0.54354  -0.53477  -0.53334
 Alpha  occ. eigenvalues --   -0.53173  -0.52873  -0.52078  -0.51641  -0.50739
 Alpha  occ. eigenvalues --   -0.49890  -0.49307  -0.48797  -0.48422  -0.48201
 Alpha  occ. eigenvalues --   -0.47936  -0.47518  -0.47326  -0.47199  -0.46945
 Alpha  occ. eigenvalues --   -0.46704  -0.46574  -0.46308  -0.45989  -0.45904
 Alpha  occ. eigenvalues --   -0.45779  -0.45607  -0.45463  -0.45070  -0.44986
 Alpha  occ. eigenvalues --   -0.44558  -0.44268  -0.44033  -0.43973  -0.43779
 Alpha  occ. eigenvalues --   -0.43710  -0.43584  -0.43475  -0.43245  -0.43020
 Alpha  occ. eigenvalues --   -0.42676  -0.42281  -0.41975  -0.41749  -0.41687
 Alpha  occ. eigenvalues --   -0.41370  -0.40937  -0.40866  -0.40850  -0.40550
 Alpha  occ. eigenvalues --   -0.40205  -0.40095  -0.39940  -0.39872  -0.39626
 Alpha  occ. eigenvalues --   -0.39551  -0.38951  -0.38806  -0.38776  -0.38278
 Alpha  occ. eigenvalues --   -0.38044  -0.37990  -0.37893  -0.37665  -0.37362
 Alpha  occ. eigenvalues --   -0.37302  -0.36970  -0.36916  -0.36782  -0.36745
 Alpha  occ. eigenvalues --   -0.36558  -0.36300  -0.36268  -0.36007  -0.35884
 Alpha  occ. eigenvalues --   -0.35526  -0.35321  -0.35231  -0.35022  -0.34994
 Alpha  occ. eigenvalues --   -0.34758  -0.34707  -0.34492  -0.34005  -0.33785
 Alpha  occ. eigenvalues --   -0.33706  -0.33549  -0.33478  -0.32878  -0.32709
 Alpha  occ. eigenvalues --   -0.32336  -0.32056  -0.31992  -0.31646  -0.31246
 Alpha  occ. eigenvalues --   -0.30968  -0.30805  -0.30774  -0.30668  -0.30268
 Alpha  occ. eigenvalues --   -0.29906  -0.29346  -0.29026  -0.28406  -0.28216
 Alpha  occ. eigenvalues --   -0.28120  -0.27432  -0.27139  -0.26722  -0.26165
 Alpha  occ. eigenvalues --   -0.25062  -0.24053  -0.23847  -0.22911  -0.20039
 Alpha  occ. eigenvalues --   -0.19233
 Alpha virt. eigenvalues --   -0.10447  -0.07963  -0.05153  -0.02644  -0.00323
 Alpha virt. eigenvalues --   -0.00260   0.00427   0.01531   0.02145   0.03923
 Alpha virt. eigenvalues --    0.04083   0.04205   0.04371   0.04394   0.04900

 Mulliken charges:
               1
     1  C   -0.069463
     2  C    0.026197
     3  C   -0.143828
     4  C    0.040765
     5  N   -0.191460
     6  C   -0.069144
     7  C    0.017170
     8  C   -0.050614
     9  C    0.034441
    10  C    0.024133
    11  C    0.062640
    12  C    0.003792
    13  C    0.163326
    14  O   -0.219590
    15  O   -0.299593
    16  N   -0.132786
    17  C    0.079038
    18  C   -0.140583
    19  C    0.112107
    20  C    0.139451
    21  C    0.137277
    22  C   -0.155916
    23  C   -0.032329
    24  N   -0.183729
    25  C    0.027889
    26  C   -0.200038
    27  C   -0.081368
    28  C    0.063014
    29  C    0.119222
    30  C    0.059350
    31  C    0.018050
    32  N   -0.074962
    33  C    0.066146
    34  C   -0.123228
    35  C    0.061323
    36  C    0.110035
    37  C    0.021486
    38  C   -0.035067
    39  O   -0.270216
    40  C    0.114221
    41  C    0.236286
    42  O   -0.183804
    43  O   -0.344498
    44  C    0.193750
    45  C    0.249259
    46  C   -0.081351
    47  C   -0.103939
    48  C    0.032301
    49  C    0.037657
    50  C   -0.024161
    51  C    0.210971
    52  C   -0.142608
    53  C   -0.007583
    54  C   -0.032928
    55  C    0.125257
    56  C    0.049629
    57  C    0.012194
    58  C   -0.016666
    59  C   -0.068569
    60  C   -0.008945
    61  C   -0.043128
    62  C   -0.016631
    63  C    0.060569
    64  C    0.011338
    65  H   -0.141358
    66  H    0.012185
    67  H   -0.127638
    68  H   -0.024953
    69  H   -0.000272
    70  H    0.023671
    71  H    0.013421
    72  H    0.023561
    73  H    0.038520
    74  H    0.018248
    75  H    0.026774
    76  H    0.030827
    77  H    0.037170
    78  H   -0.006408
    79  H    0.017489
    80  H    0.014861
    81  H    0.033414
    82  H    0.045860
    83  H    0.051664
    84  H    0.037547
    85  H   -0.011311
    86  H    0.024253
    87  H   -0.031067
    88  H    0.002518
    89  H    0.011379
    90  H    0.018242
    91  H    0.041366
    92  H    0.047721
    93  H    0.061881
    94  H    0.061180
    95  H    0.034304
    96  H    0.039352
    97  H    0.003591
    98  H    0.026371
    99  H    0.026280
   100  H   -0.005642
   101  H    0.009323
   102  H    0.026817
   103  H    0.037712
   104  H    0.011184
   105  H    0.018583
   106  H   -0.005960
   107  H   -0.043196
   108  H   -0.084055
   109  H   -0.011181
   110  H    0.004563
   111  H    0.013378
   112  H    0.022828
   113  H    0.034905
   114  H    0.010448
   115  H    0.025595
   116  H    0.004179
   117  H   -0.066347
   118  H   -0.015965
   119  H   -0.027482
   120  H   -0.021092
   121  H    0.008595
   122  H    0.026767
   123  H   -0.003333
   124  H   -0.005268
   125  H   -0.003063
   126  H    0.020191
   127  H    0.028272
   128  H    0.003700
   129  H   -0.013651
   130  H   -0.018134
   131  H   -0.010538
   132  H   -0.009848
   133  H   -0.011869
   134  H   -0.000236
   135  H    0.033617
   136  H    0.008621
   137  H    0.193946
   138  H    0.161435
 Sum of Mulliken charges =   0.00000

 Dipole moment (field-independent basis, Debye):
    X=              1.5891    Y=              5.8190    Z=             -0.4106  Tot=              6.0460
 Quadrupole moment (field-independent basis, Debye-Ang):
   XX=           -344.6462   YY=           -392.9442   ZZ=           -394.5470
   XY=            -33.2189   XZ=              6.4388   YZ=              4.1857

 Normal termination of Gaussian 09 at Sat Aug  3 22:10:04 2019.
