 Gaussian 09, Revision D.01,
 Gaussian 09:  ES64L-G09RevD.01 24-Apr-2013

 --------------------------
 # td=(NStates=1) B3LYP/SVP
 --------------------------

 --
 TD
 --
 Symbolic Z-matrix:
 Charge =  0 Multiplicity = 1

                         Standard orientation:
 ---------------------------------------------------------------------
 Center     Atomic      Atomic             Coordinates (Angstroms)
 Number     Number       Type             X           Y           Z
 ---------------------------------------------------------------------
      1          6           0       -5.150925   -1.993553    0.533605
      2          6           0       -4.794796    2.741459    1.357802
      3          6           0       -9.251895    3.334362   -0.288440
      4          6           0       -9.837726   -1.501623   -1.079342
      5          7           0       -5.131846    0.454012    0.822342
      6          6           0       -4.545820   -0.769623    0.952711
      7          6           0       -3.079405   -0.581329    1.376427
      8          6           0       -3.128577    0.899484    1.933596
      9          6           0       -4.429402    1.435197    1.302269
     10          6           0       -2.982030    0.966882    3.411553
     11          6           0       -2.075609   -0.928470    0.196932
     12          6           0       -0.533408   -0.812078    0.631225
     13          6           0        0.437065   -0.796881   -0.493450
     14          8           0        0.058518   -0.890408   -1.653127
     15          8           0        1.662445   -0.710608   -0.117683
     16          7           0       -7.046658    2.722289    0.458762
     17          6           0       -5.904843    3.386042    1.006152
     18          6           0       -6.236365    4.710556    1.063384
     19          6           0       -7.442076    4.981152    0.629758
     20          6           0       -7.972014    3.672544    0.162063
     21          6           0       -5.210632    5.728794    1.510681
     22          6           0       -8.115163    6.214940    0.404744
     23          6           0       -9.014778    6.677708   -0.488622
     24          7           0       -9.187468    0.868362   -0.520357
     25          6           0       -9.876764    2.039099   -0.605276
     26          6           0      -11.248294    1.882936   -0.940723
     27          6           0      -11.394773    0.501032   -1.229808
     28          6           0      -10.102249   -0.058675   -0.899684
     29          6           0      -12.302554    2.981559   -1.172251
     30          6           0      -12.623624   -0.188592   -1.642827
     31          6           0      -12.591955   -0.478435   -3.089771
     32          7           0       -7.518165   -1.295016   -0.206681
     33          6           0       -8.636588   -2.002972   -0.607645
     34          6           0       -8.267065   -3.457349   -0.672708
     35          6           0       -6.834374   -3.433717   -0.299680
     36          6           0       -6.517491   -2.111826    0.012871
     37          6           0       -9.127776   -4.623192   -1.030025
     38          6           0       -5.767757   -4.399076   -0.025190
     39          8           0       -5.632767   -5.576805   -0.065420
     40          6           0       -4.584153   -3.440619    0.405297
     41          6           0       -3.971285   -4.027331    1.668455
     42          8           0       -4.404193   -3.721583    2.819922
     43          8           0       -3.000935   -4.803933    1.401467
     44          6           0       -2.661646   -5.651262    2.577556
     45          6           0        2.653655   -0.753394   -1.155531
     46          6           0        4.022786   -0.550032   -0.553561
     47          6           0        5.011168    0.362201   -0.903152
     48          6           0        4.699334    1.473798   -1.951159
     49          6           0        6.334217    0.227830   -0.143930
     50          6           0        7.484544   -0.397979   -0.951820
     51          6           0        8.749230   -0.225032   -0.241615
     52          6           0       10.038398   -0.671671   -1.008427
     53          6           0       10.074537   -2.100804   -1.477335
     54          6           0       11.286310   -0.312628   -0.051521
     55          6           0       12.663438   -0.542727   -0.766234
     56          6           0       13.810117   -0.063005    0.101508
     57          6           0       15.335630   -0.123921   -0.588951
     58          6           0       15.595980   -1.633470   -0.818167
     59          6           0       16.254093    0.502723    0.424304
     60          6           0       17.712612    0.637145   -0.115992
     61          6           0       18.551607    1.323950    0.828193
     62          6           0       20.059489    1.407953    0.353860
     63          6           0       20.289295    2.269775   -1.121496
     64          6           0       21.078099    2.106319    1.341634
     65          1           0       -3.845129    3.401591    1.810116
     66          1           0       -9.827012    4.209987   -0.577644
     67          1           0      -10.598295   -2.133016   -1.321655
     68          1           0       -2.634173   -1.275217    2.159275
     69          1           0       -2.034064    1.264625    1.459611
     70          1           0       -1.898177    0.750253    3.712456
     71          1           0       -3.161734    2.122861    3.833857
     72          1           0       -3.721363    0.438015    3.838850
     73          1           0       -2.106290   -2.005460   -0.220942
     74          1           0       -2.230205   -0.239645   -0.756219
     75          1           0       -0.539218    0.456866    1.109951
     76          1           0       -0.441674   -1.574691    1.452257
     77          1           0       -4.466365    5.713815    0.838750
     78          1           0       -5.639882    6.742658    1.486659
     79          1           0       -4.664880    5.356901    2.398442
     80          1           0       -7.707596    7.084806    1.125670
     81          1           0       -9.230544    6.324829   -1.386277
     82          1           0       -9.247425    7.681978   -0.266700
     83          1           0      -12.310123    3.687668   -0.310557
     84          1           0      -11.848607    3.642597   -2.005118
     85          1           0      -13.289407    2.623368   -1.088422
     86          1           0      -12.642713   -0.998069   -1.049533
     87          1           0      -13.429078    0.411738   -1.132219
     88          1           0      -12.482290    0.367543   -3.922817
     89          1           0      -11.806257   -1.189302   -3.429419
     90          1           0      -13.585712   -1.033352   -3.334930
     91          1           0      -10.253412   -4.575845   -0.519873
     92          1           0       -8.841948   -4.536174   -2.242662
     93          1           0       -8.675663   -5.578196   -0.488409
     94          1           0       -3.790954   -3.548640   -0.437603
     95          1           0       -1.758551   -6.421281    2.233281
     96          1           0       -2.194987   -5.056073    3.320199
     97          1           0       -3.507330   -6.557060    2.920421
     98          1           0        2.553579   -1.919638   -1.652138
     99          1           0        2.428742   -0.129218   -1.964065
    100          1           0        4.413876   -1.340549    0.280978
    101          1           0        5.315755    2.341933   -1.640569
    102          1           0        5.317738    1.103288   -3.044883
    103          1           0        3.639240    1.849039   -2.271550
    104          1           0        6.784476    1.155577    0.106884
    105          1           0        6.076949   -0.336924    0.909167
    106          1           0        7.284724   -1.555160   -1.119735
    107          1           0        7.581172    0.027078   -2.032179
    108          1           0        8.948803    0.781718    0.151100
    109          1           0        8.611494   -0.843525    0.806290
    110          1           0       10.095646   -0.040150   -1.922384
    111          1           0        9.178493   -2.233998   -2.299962
    112          1           0       11.016470   -2.423038   -2.013473
    113          1           0        9.818041   -2.880268   -0.623868
    114          1           0       11.016029    0.688558    0.401999
    115          1           0       11.155628   -1.148078    1.002439
    116          1           0       12.683573   -1.725670   -1.151550
    117          1           0       12.700444    0.233130   -1.602157
    118          1           0       13.767170    1.107327    0.176743
    119          1           0       13.753581   -0.500858    1.095554
    120          1           0       15.139023    0.362112   -1.642269
    121          1           0       14.679129   -2.217512   -1.194659
    122          1           0       16.677212   -1.719114   -1.385086
    123          1           0       15.884308   -2.393421    0.060497
    124          1           0       15.946028    1.501459    0.915779
    125          1           0       16.240626   -0.116764    1.258765
    126          1           0       18.159825   -0.331710   -0.306519
    127          1           0       17.850282    1.103663   -1.290490
    128          1           0       18.315414    2.418995    0.838874
    129          1           0       18.627632    0.833850    1.678672
    130          1           0       20.312881    0.311517    0.066886
    131          1           0       19.829222    3.345504   -0.890304
    132          1           0       21.320929    2.461138   -1.567710
    133          1           0       19.625085    1.826611   -2.110669
    134          1           0       21.030846    1.447790    2.144951
    135          1           0       22.067399    2.358489    0.976763
    136          1           0       20.618900    3.103190    1.664892
    137          1           0       -7.129484    1.703106    0.416426
    138          1           0       -7.768163   -0.395449   -0.029482
 ---------------------------------------------------------------------

 SCF Done:  E(RB3LYP) =  -2732.95951738     A.U. after   17 cycles

 Excitation energies and oscillator strengths:

 Excited State   1:      Singlet-A      2.0557 eV  603.13 nm  f=0.0960  <S**2>=0.000
     235 -> 237       -0.20517
     235 -> 238       -0.30793
     236 -> 237        0.55833
     236 -> 238       -0.21744
 This state for optimization and/or second-order correction.
 Total Energy, E(TD-HF/TD-KS) =  -2732.88397243
 Copying the excited state density for this state as the 1-particle RhoCI density.

 The electronic state is 1-A.
 Alpha  occ. eigenvalues --  -19.19880 -19.18731 -19.12667 -19.11266 -19.10508
 Alpha  occ. eigenvalues --  -14.36896 -14.36216 -14.31726 -14.29408 -10.31139
 Alpha  occ. eigenvalues --  -10.30932 -10.27940 -10.27491 -10.26314 -10.23999
 Alpha  occ. eigenvalues --  -10.23469 -10.23416 -10.23399 -10.23343 -10.22829
 Alpha  occ. eigenvalues --  -10.22777 -10.22527 -10.22418 -10.22237 -10.21840
 Alpha  occ. eigenvalues --  -10.21447 -10.21172 -10.21156 -10.21138 -10.21023
 Alpha  occ. eigenvalues --  -10.21019 -10.20951 -10.20910 -10.20678 -10.20631
 Alpha  occ. eigenvalues --  -10.20616 -10.20613 -10.20568 -10.20550 -10.20299
 Alpha  occ. eigenvalues --  -10.20233 -10.20085 -10.20074 -10.20052 -10.20040
 Alpha  occ. eigenvalues --  -10.19859 -10.19629 -10.19551 -10.19536 -10.19426
 Alpha  occ. eigenvalues --  -10.19414 -10.19322 -10.19315 -10.19137 -10.18913
 Alpha  occ. eigenvalues --  -10.18796 -10.18740 -10.18569 -10.18514 -10.18233
 Alpha  occ. eigenvalues --  -10.18161 -10.17942 -10.17484 -10.17473  -1.11773
 Alpha  occ. eigenvalues --   -1.11491  -1.04554  -1.00045  -0.99888  -0.97813
 Alpha  occ. eigenvalues --   -0.97188  -0.94918  -0.93198  -0.84194  -0.83091
 Alpha  occ. eigenvalues --   -0.82400  -0.81732  -0.81377  -0.80423  -0.80282
 Alpha  occ. eigenvalues --   -0.79882  -0.79471  -0.78840  -0.78363  -0.77381
 Alpha  occ. eigenvalues --   -0.77008  -0.75813  -0.75315  -0.74657  -0.73988
 Alpha  occ. eigenvalues --   -0.73294  -0.73028  -0.72335  -0.71671  -0.71339
 Alpha  occ. eigenvalues --   -0.69650  -0.69152  -0.68304  -0.67437  -0.67284
 Alpha  occ. eigenvalues --   -0.66862  -0.65868  -0.65526  -0.64774  -0.64623
 Alpha  occ. eigenvalues --   -0.64131  -0.63976  -0.62638  -0.62213  -0.61398
 Alpha  occ. eigenvalues --   -0.60328  -0.58518  -0.57995  -0.57805  -0.57145
 Alpha  occ. eigenvalues --   -0.56024  -0.56008  -0.55463  -0.55147  -0.55089
 Alpha  occ. eigenvalues --   -0.54527  -0.54430  -0.54267  -0.54121  -0.52576
 Alpha  occ. eigenvalues --   -0.52448  -0.51895  -0.51362  -0.50614  -0.50427
 Alpha  occ. eigenvalues --   -0.50298  -0.49628  -0.49036  -0.48426  -0.48396
 Alpha  occ. eigenvalues --   -0.48183  -0.48126  -0.47830  -0.47409  -0.46720
 Alpha  occ. eigenvalues --   -0.46645  -0.46456  -0.46124  -0.45767  -0.45403
 Alpha  occ. eigenvalues --   -0.45389  -0.45149  -0.44992  -0.44862  -0.44433
 Alpha  occ. eigenvalues --   -0.44129  -0.43890  -0.43613  -0.43544  -0.43492
 Alpha  occ. eigenvalues --   -0.43205  -0.43095  -0.42786  -0.42545  -0.42536
 Alpha  occ. eigenvalues --   -0.42110  -0.41946  -0.41757  -0.41728  -0.41211
 Alpha  occ. eigenvalues --   -0.41105  -0.41068  -0.40630  -0.40427  -0.40340
 Alpha  occ. eigenvalues --   -0.40108  -0.39667  -0.39505  -0.39258  -0.39088
 Alpha  occ. eigenvalues --   -0.38823  -0.38720  -0.38517  -0.38163  -0.37996
 Alpha  occ. eigenvalues --   -0.37865  -0.37575  -0.37294  -0.37281  -0.37243
 Alpha  occ. eigenvalues --   -0.36852  -0.36642  -0.36619  -0.36404  -0.36145
 Alpha  occ. eigenvalues --   -0.36134  -0.35888  -0.35730  -0.35663  -0.35408
 Alpha  occ. eigenvalues --   -0.35005  -0.34732  -0.34647  -0.34550  -0.34331
 Alpha  occ. eigenvalues --   -0.34295  -0.34264  -0.34165  -0.33782  -0.33729
 Alpha  occ. eigenvalues --   -0.33186  -0.33120  -0.32715  -0.32439  -0.32275
 Alpha  occ. eigenvalues --   -0.32261  -0.31836  -0.31232  -0.31197  -0.31149
 Alpha  occ. eigenvalues --   -0.30726  -0.30502  -0.30369  -0.30340  -0.30148
 Alpha  occ. eigenvalues --   -0.29572  -0.29171  -0.28672  -0.27158  -0.27004
 Alpha  occ. eigenvalues --   -0.26899  -0.26433  -0.26143  -0.25876  -0.25426
 Alpha  occ. eigenvalues --   -0.24877  -0.24455  -0.24166  -0.21683  -0.19807
 Alpha  occ. eigenvalues --   -0.18684
 Alpha virt. eigenvalues --   -0.09808  -0.08451  -0.04277  -0.01928  -0.01648
 Alpha virt. eigenvalues --   -0.00806   0.00150   0.00991   0.02701   0.03085
 Alpha virt. eigenvalues --    0.03254   0.03306   0.03590   0.03921   0.04158

 Mulliken charges:
               1
     1  C    0.056452
     2  C   -0.106312
     3  C   -0.056211
     4  C   -0.008804
     5  N   -0.129374
     6  C   -0.029108
     7  C   -0.045219
     8  C   -0.103917
     9  C   -0.047953
    10  C    0.089502
    11  C   -0.018581
    12  C   -0.096909
    13  C    0.193456
    14  O   -0.261899
    15  O   -0.241194
    16  N   -0.097890
    17  C    0.167255
    18  C   -0.129025
    19  C    0.089175
    20  C    0.036594
    21  C    0.213846
    22  C   -0.129917
    23  C    0.042242
    24  N   -0.245686
    25  C    0.055330
    26  C   -0.170061
    27  C   -0.177334
    28  C    0.035855
    29  C    0.143718
    30  C    0.196918
    31  C   -0.024467
    32  N    0.091253
    33  C    0.039888
    34  C   -0.118658
    35  C   -0.073227
    36  C    0.077357
    37  C   -0.042742
    38  C    0.079645
    39  O   -0.138628
    40  C   -0.095327
    41  C    0.187500
    42  O   -0.298557
    43  O   -0.232145
    44  C    0.105350
    45  C    0.244148
    46  C   -0.110911
    47  C   -0.114067
    48  C   -0.027794
    49  C    0.063348
    50  C   -0.004551
    51  C   -0.015384
    52  C   -0.038296
    53  C   -0.043548
    54  C   -0.071304
    55  C    0.026778
    56  C   -0.034807
    57  C   -0.058293
    58  C   -0.068997
    59  C    0.102644
    60  C   -0.030804
    61  C    0.145393
    62  C   -0.172101
    63  C   -0.113943
    64  C    0.082595
    65  H    0.016137
    66  H   -0.049431
    67  H   -0.056447
    68  H    0.007561
    69  H    0.013190
    70  H    0.030324
    71  H    0.011588
    72  H    0.000927
    73  H    0.035223
    74  H    0.035910
    75  H    0.052730
    76  H    0.049378
    77  H   -0.022642
    78  H    0.010123
    79  H    0.016000
    80  H    0.023665
    81  H   -0.012283
    82  H    0.015298
    83  H    0.000967
    84  H    0.041835
    85  H   -0.003425
    86  H   -0.046567
    87  H   -0.004350
    88  H    0.035052
    89  H    0.015961
    90  H    0.010237
    91  H    0.068592
    92  H    0.094595
    93  H    0.073456
    94  H    0.070393
    95  H    0.039685
    96  H    0.047531
    97  H    0.092744
    98  H    0.043058
    99  H    0.004661
   100  H    0.020645
   101  H    0.022257
   102  H    0.040582
   103  H    0.065882
   104  H   -0.020983
   105  H    0.037796
   106  H    0.020351
   107  H    0.010670
   108  H   -0.007228
   109  H    0.000915
   110  H   -0.004505
   111  H    0.021052
   112  H    0.031663
   113  H    0.025361
   114  H    0.010921
   115  H    0.002486
   116  H    0.050782
   117  H    0.006190
   118  H    0.009191
   119  H   -0.002346
   120  H    0.018766
   121  H    0.026014
   122  H    0.027894
   123  H    0.010954
   124  H   -0.000566
   125  H   -0.029671
   126  H   -0.019555
   127  H    0.015414
   128  H    0.004292
   129  H   -0.042855
   130  H    0.009365
   131  H    0.018391
   132  H    0.033687
   133  H    0.026993
   134  H   -0.004937
   135  H    0.021149
   136  H    0.008042
   137  H    0.145980
   138  H    0.084981
 Sum of Mulliken charges =   0.00000

 Dipole moment (field-independent basis, Debye):
    X=              2.9891    Y=              2.9699    Z=              0.7384  Tot=              4.2779
 Quadrupole moment (field-independent basis, Debye-Ang):
   XX=           -352.9738   YY=           -375.5512   ZZ=           -401.1719
   XY=            -11.1551   XZ=             17.7457   YZ=             -2.3365

 Normal termination of Gaussian 09 at Mon Aug  5 05:20:26 2019.
