 Gaussian 09, Revision D.01,
 Gaussian 09:  ES64L-G09RevD.01 24-Apr-2013

 --------------------------
 # td=(NStates=1) B3LYP/SVP
 --------------------------

 --
 TD
 --
 Symbolic Z-matrix:
 Charge =  0 Multiplicity = 1

                         Standard orientation:
 ---------------------------------------------------------------------
 Center     Atomic      Atomic             Coordinates (Angstroms)
 Number     Number       Type             X           Y           Z
 ---------------------------------------------------------------------
      1          6           0       -5.168053   -1.952434    0.483069
      2          6           0       -4.710455    2.749632    1.350373
      3          6           0       -9.308413    3.307786   -0.346951
      4          6           0       -9.773545   -1.422508   -0.866831
      5          7           0       -5.222778    0.457291    0.888772
      6          6           0       -4.575264   -0.727501    0.793172
      7          6           0       -3.135467   -0.549942    1.282217
      8          6           0       -3.105060    0.890687    1.778383
      9          6           0       -4.432455    1.521218    1.332119
     10          6           0       -2.810219    1.000653    3.213933
     11          6           0       -2.081363   -0.859041    0.129077
     12          6           0       -0.709965   -0.876261    0.582559
     13          6           0        0.361667   -1.070754   -0.593756
     14          8           0        0.068545   -1.422043   -1.684810
     15          8           0        1.591216   -0.846195   -0.086240
     16          7           0       -7.086583    2.760055    0.514044
     17          6           0       -5.930285    3.365861    0.865243
     18          6           0       -6.266159    4.782048    1.002410
     19          6           0       -7.544457    5.001119    0.595864
     20          6           0       -8.110659    3.615732    0.144047
     21          6           0       -5.317250    5.808718    1.522853
     22          6           0       -8.286940    6.255402    0.396660
     23          6           0       -9.002395    6.597420   -0.729976
     24          7           0       -9.242027    0.925551   -0.480050
     25          6           0       -9.871552    2.021036   -0.631548
     26          6           0      -11.304292    1.871477   -1.055051
     27          6           0      -11.382638    0.428377   -1.160006
     28          6           0      -10.088779   -0.090053   -0.875697
     29          6           0      -12.255205    2.942751   -1.017757
     30          6           0      -12.665513   -0.243864   -1.474979
     31          6           0      -12.799405   -0.441188   -3.026480
     32          7           0       -7.517105   -1.310664   -0.166387
     33          6           0       -8.569092   -2.031842   -0.610647
     34          6           0       -8.198612   -3.521117   -0.593578
     35          6           0       -6.863998   -3.445965   -0.259952
     36          6           0       -6.467726   -2.106722    0.079336
     37          6           0       -8.949431   -4.629368   -0.921511
     38          6           0       -5.708319   -4.307822    0.034371
     39          8           0       -5.581029   -5.564977   -0.025722
     40          6           0       -4.561121   -3.331495    0.466438
     41          6           0       -3.911206   -3.802216    1.868334
     42          8           0       -4.305602   -3.354500    2.867076
     43          8           0       -2.963732   -4.666063    1.610369
     44          6           0       -2.324257   -5.295265    2.697353
     45          6           0        2.651781   -1.090886   -1.167690
     46          6           0        3.962561   -0.813948   -0.561679
     47          6           0        4.945450    0.043326   -1.084541
     48          6           0        4.867032    0.847382   -2.345812
     49          6           0        6.272829    0.203747   -0.379658
     50          6           0        7.552800   -0.298066   -1.053372
     51          6           0        8.739479   -0.179415   -0.263688
     52          6           0       10.069759   -0.616409   -0.970458
     53          6           0        9.998033   -2.125692   -1.397236
     54          6           0       11.314517   -0.198486   -0.183204
     55          6           0       12.718599   -0.432227   -0.903670
     56          6           0       13.912848   -0.020791    0.127159
     57          6           0       15.154607   -0.155927   -0.401139
     58          6           0       15.696499   -1.555795   -0.549668
     59          6           0       16.303801    0.477708    0.513999
     60          6           0       17.673078    0.646590   -0.041941
     61          6           0       18.649666    1.504849    0.782670
     62          6           0       20.088334    1.602234    0.392568
     63          6           0       20.266896    2.204957   -1.157526
     64          6           0       20.966795    2.362909    1.316515
     65          1           0       -3.935980    3.426523    1.640829
     66          1           0       -9.876644    4.147265   -0.466919
     67          1           0      -10.579958   -2.277482   -1.297729
     68          1           0       -2.990900   -1.310460    1.926704
     69          1           0       -2.369305    1.238282    1.265599
     70          1           0       -1.980075    0.538141    3.635948
     71          1           0       -2.960899    2.078058    3.636955
     72          1           0       -3.690268    0.556972    3.731220
     73          1           0       -2.129583   -1.876002   -0.165093
     74          1           0       -1.888731   -0.254429   -0.827095
     75          1           0       -0.254710    0.124580    0.878493
     76          1           0       -0.537033   -1.752215    1.259556
     77          1           0       -4.402198    5.662795    0.868956
     78          1           0       -5.682710    6.796615    1.381239
     79          1           0       -5.125999    5.721997    2.495436
     80          1           0       -8.109099    6.954864    1.325515
     81          1           0       -9.302087    5.834459   -1.471602
     82          1           0       -9.473474    7.580089   -0.568923
     83          1           0      -12.140010    3.745229   -0.187799
     84          1           0      -12.059450    3.575045   -2.059381
     85          1           0      -13.419038    2.471000   -0.899740
     86          1           0      -12.652996   -1.263366   -1.031379
     87          1           0      -13.652815    0.327685   -1.239859
     88          1           0      -12.720451    0.622889   -3.332438
     89          1           0      -11.913435   -0.684085   -3.416924
     90          1           0      -13.476556   -1.115685   -3.421447
     91          1           0      -10.069809   -4.848609   -0.490889
     92          1           0       -9.155040   -4.770457   -2.061068
     93          1           0       -8.353728   -5.515294   -0.744364
     94          1           0       -3.720674   -3.494093   -0.426078
     95          1           0       -1.466338   -5.946660    2.346329
     96          1           0       -2.012224   -4.490466    3.418167
     97          1           0       -3.031648   -6.089649    3.353704
     98          1           0        2.639713   -2.073563   -1.540450
     99          1           0        2.316415   -0.408202   -2.136097
    100          1           0        4.003033   -1.425141    0.193652
    101          1           0        5.264897    1.778750   -2.101115
    102          1           0        5.516041    0.483711   -3.187024
    103          1           0        3.795024    0.798828   -2.741866
    104          1           0        6.428670    1.347819   -0.119570
    105          1           0        6.251664   -0.310283    0.625445
    106          1           0        7.293682   -1.180257   -1.375327
    107          1           0        7.550295    0.141205   -1.991063
    108          1           0        8.983202    0.874314    0.007806
    109          1           0        8.911234   -0.742625    0.867574
    110          1           0       10.216481   -0.050100   -1.985269
    111          1           0        9.209553   -2.163116   -2.024647
    112          1           0       10.999927   -2.582215   -1.783909
    113          1           0        9.785221   -2.830619   -0.516878
    114          1           0       11.394275    0.870911   -0.193765
    115          1           0       11.154041   -0.533025    0.842909
    116          1           0       12.577872   -1.632671   -1.069451
    117          1           0       12.662467   -0.048700   -2.005084
    118          1           0       13.737375    1.131675    0.525150
    119          1           0       13.760294   -0.740062    1.138261
    120          1           0       15.140506    0.318103   -1.385973
    121          1           0       15.101866   -2.243877   -1.191928
    122          1           0       16.868329   -1.557025   -0.807949
    123          1           0       15.481512   -2.326006    0.429868
    124          1           0       15.916550    1.562242    0.744168
    125          1           0       16.330131   -0.160884    1.462186
    126          1           0       18.281103   -0.273835   -0.004897
    127          1           0       17.470529    1.136974   -1.103531
    128          1           0       18.375146    2.580855    0.767955
    129          1           0       18.600970    1.161483    1.973622
    130          1           0       20.218675    0.599390    0.314074
    131          1           0       19.905234    3.238466   -1.130947
    132          1           0       21.481947    2.214603   -1.262279
    133          1           0       19.953668    1.449148   -1.859521
    134          1           0       20.764139    1.861576    2.163571
    135          1           0       22.047899    2.649167    1.049476
    136          1           0       20.786842    3.556064    1.371809
    137          1           0       -7.265102    1.852749    0.531184
    138          1           0       -7.638098   -0.198471   -0.034474
 ---------------------------------------------------------------------

 SCF Done:  E(RB3LYP) =  -2732.95637733     A.U. after   16 cycles

 Excitation energies and oscillator strengths:

 Excited State   1:      Singlet-A      2.0401 eV  607.74 nm  f=0.2232  <S**2>=0.000
     235 -> 237       -0.13654
     235 -> 238       -0.23633
     236 -> 237        0.63344
     236 -> 238       -0.15443
 This state for optimization and/or second-order correction.
 Total Energy, E(TD-HF/TD-KS) =  -2732.88140594
 Copying the excited state density for this state as the 1-particle RhoCI density.

 The electronic state is 1-A.
 Alpha  occ. eigenvalues --  -19.19420 -19.18176 -19.13281 -19.12870 -19.11635
 Alpha  occ. eigenvalues --  -14.37054 -14.36970 -14.31001 -14.29786 -10.32082
 Alpha  occ. eigenvalues --  -10.31021 -10.27608 -10.26881 -10.25605 -10.24898
 Alpha  occ. eigenvalues --  -10.23412 -10.23088 -10.22740 -10.22549 -10.22024
 Alpha  occ. eigenvalues --  -10.21838 -10.21752 -10.21708 -10.21705 -10.21532
 Alpha  occ. eigenvalues --  -10.20976 -10.20859 -10.20848 -10.20815 -10.20812
 Alpha  occ. eigenvalues --  -10.20660 -10.20534 -10.20420 -10.20326 -10.20141
 Alpha  occ. eigenvalues --  -10.19897 -10.19849 -10.19817 -10.19738 -10.19681
 Alpha  occ. eigenvalues --  -10.19517 -10.19314 -10.19230 -10.19170 -10.19093
 Alpha  occ. eigenvalues --  -10.18989 -10.18974 -10.18946 -10.18899 -10.18887
 Alpha  occ. eigenvalues --  -10.18839 -10.18662 -10.18452 -10.18427 -10.18404
 Alpha  occ. eigenvalues --  -10.18376 -10.18369 -10.18267 -10.18195 -10.18060
 Alpha  occ. eigenvalues --  -10.17897 -10.17814 -10.17235 -10.16031  -1.12288
 Alpha  occ. eigenvalues --   -1.09156  -1.04292  -1.01337  -0.99519  -0.98986
 Alpha  occ. eigenvalues --   -0.98447  -0.94862  -0.92840  -0.84857  -0.83488
 Alpha  occ. eigenvalues --   -0.83203  -0.82382  -0.81917  -0.81494  -0.81196
 Alpha  occ. eigenvalues --   -0.80884  -0.80713  -0.80023  -0.79085  -0.78119
 Alpha  occ. eigenvalues --   -0.77590  -0.76772  -0.75883  -0.75471  -0.74735
 Alpha  occ. eigenvalues --   -0.74438  -0.74248  -0.72747  -0.71642  -0.71434
 Alpha  occ. eigenvalues --   -0.70543  -0.69811  -0.68465  -0.67960  -0.67469
 Alpha  occ. eigenvalues --   -0.67024  -0.66769  -0.66115  -0.65764  -0.65322
 Alpha  occ. eigenvalues --   -0.63839  -0.63146  -0.62586  -0.61849  -0.61270
 Alpha  occ. eigenvalues --   -0.60671  -0.59635  -0.58870  -0.58504  -0.57905
 Alpha  occ. eigenvalues --   -0.57420  -0.57145  -0.56461  -0.55690  -0.55024
 Alpha  occ. eigenvalues --   -0.54886  -0.54867  -0.54156  -0.54043  -0.53551
 Alpha  occ. eigenvalues --   -0.52770  -0.52037  -0.51779  -0.50792  -0.50511
 Alpha  occ. eigenvalues --   -0.50329  -0.49618  -0.49277  -0.49038  -0.48564
 Alpha  occ. eigenvalues --   -0.48291  -0.48159  -0.47770  -0.47479  -0.47182
 Alpha  occ. eigenvalues --   -0.47019  -0.46920  -0.46548  -0.46422  -0.46138
 Alpha  occ. eigenvalues --   -0.45779  -0.45728  -0.45432  -0.45267  -0.45062
 Alpha  occ. eigenvalues --   -0.44689  -0.44679  -0.44422  -0.44156  -0.43925
 Alpha  occ. eigenvalues --   -0.43862  -0.43739  -0.43511  -0.43426  -0.43023
 Alpha  occ. eigenvalues --   -0.42829  -0.42725  -0.42465  -0.41944  -0.41829
 Alpha  occ. eigenvalues --   -0.41584  -0.41526  -0.41342  -0.40831  -0.40514
 Alpha  occ. eigenvalues --   -0.40237  -0.40192  -0.40102  -0.40011  -0.39916
 Alpha  occ. eigenvalues --   -0.39531  -0.39509  -0.39227  -0.39059  -0.38743
 Alpha  occ. eigenvalues --   -0.38542  -0.38421  -0.37924  -0.37606  -0.37535
 Alpha  occ. eigenvalues --   -0.37307  -0.37127  -0.36999  -0.36910  -0.36598
 Alpha  occ. eigenvalues --   -0.36298  -0.36072  -0.35847  -0.35508  -0.35494
 Alpha  occ. eigenvalues --   -0.35429  -0.35272  -0.35033  -0.34829  -0.34703
 Alpha  occ. eigenvalues --   -0.34623  -0.34191  -0.34108  -0.33713  -0.33394
 Alpha  occ. eigenvalues --   -0.33343  -0.33169  -0.32990  -0.32897  -0.32541
 Alpha  occ. eigenvalues --   -0.31953  -0.31841  -0.31640  -0.31544  -0.31397
 Alpha  occ. eigenvalues --   -0.31350  -0.31175  -0.30677  -0.30205  -0.29593
 Alpha  occ. eigenvalues --   -0.29267  -0.28673  -0.28614  -0.28367  -0.27946
 Alpha  occ. eigenvalues --   -0.27423  -0.26930  -0.26768  -0.25881  -0.25021
 Alpha  occ. eigenvalues --   -0.24607  -0.24482  -0.24341  -0.21641  -0.20586
 Alpha  occ. eigenvalues --   -0.18033
 Alpha virt. eigenvalues --   -0.09815  -0.08037  -0.03968  -0.02383  -0.01925
 Alpha virt. eigenvalues --    0.00443   0.01259   0.01471   0.02439   0.03594
 Alpha virt. eigenvalues --    0.03871   0.04111   0.04194   0.04455   0.04659

 Mulliken charges:
               1
     1  C    0.065401
     2  C   -0.069140
     3  C   -0.016474
     4  C   -0.151469
     5  N   -0.215373
     6  C   -0.080142
     7  C    0.002128
     8  C    0.201075
     9  C    0.034114
    10  C    0.071178
    11  C    0.053051
    12  C   -0.021440
    13  C    0.143074
    14  O   -0.207564
    15  O   -0.335443
    16  N    0.030925
    17  C    0.099343
    18  C   -0.179836
    19  C    0.016613
    20  C    0.038531
    21  C    0.188008
    22  C   -0.102546
    23  C   -0.008564
    24  N   -0.180243
    25  C    0.026909
    26  C   -0.103969
    27  C   -0.113133
    28  C    0.130101
    29  C   -0.030756
    30  C    0.030206
    31  C    0.107517
    32  N   -0.055635
    33  C    0.008981
    34  C   -0.045914
    35  C    0.011879
    36  C    0.061049
    37  C   -0.020739
    38  C    0.091804
    39  O   -0.227414
    40  C   -0.132400
    41  C    0.185930
    42  O   -0.163245
    43  O   -0.244229
    44  C    0.104490
    45  C    0.203726
    46  C   -0.005306
    47  C   -0.113517
    48  C    0.099244
    49  C   -0.010617
    50  C    0.190871
    51  C    0.014376
    52  C   -0.125364
    53  C    0.036121
    54  C    0.049075
    55  C   -0.067848
    56  C   -0.026104
    57  C    0.033464
    58  C   -0.053182
    59  C   -0.019476
    60  C    0.038455
    61  C   -0.050926
    62  C   -0.031534
    63  C   -0.028470
    64  C    0.057918
    65  H   -0.037700
    66  H   -0.093191
    67  H    0.028029
    68  H   -0.056901
    69  H   -0.090482
    70  H    0.005696
    71  H    0.002438
    72  H    0.002524
    73  H   -0.016850
    74  H    0.019577
    75  H    0.031167
    76  H    0.025199
    77  H    0.032898
    78  H   -0.005887
    79  H   -0.005187
    80  H    0.036186
    81  H    0.049510
    82  H    0.035378
    83  H    0.050782
    84  H    0.041622
    85  H    0.045779
    86  H   -0.004826
    87  H    0.020733
    88  H   -0.012017
    89  H   -0.046681
    90  H    0.002618
    91  H    0.052262
    92  H    0.042956
    93  H    0.031219
    94  H    0.092325
    95  H    0.054039
    96  H    0.041594
    97  H    0.055450
    98  H    0.026228
    99  H    0.047977
   100  H   -0.068490
   101  H    0.003050
   102  H    0.036124
   103  H    0.018576
   104  H    0.014231
   105  H   -0.001086
   106  H   -0.060919
   107  H   -0.047801
   108  H   -0.009109
   109  H    0.017030
   110  H   -0.012248
   111  H   -0.011906
   112  H    0.025190
   113  H    0.001873
   114  H   -0.016582
   115  H   -0.006301
   116  H    0.018004
   117  H    0.024421
   118  H    0.018067
   119  H    0.016955
   120  H   -0.013211
   121  H    0.003065
   122  H    0.040812
   123  H    0.004992
   124  H   -0.001342
   125  H    0.003794
   126  H    0.005600
   127  H    0.021575
   128  H   -0.020436
   129  H    0.006496
   130  H   -0.047082
   131  H    0.024456
   132  H    0.015903
   133  H    0.021678
   134  H   -0.011647
   135  H    0.016710
   136  H    0.004210
   137  H    0.065630
   138  H    0.207711
 Sum of Mulliken charges =   0.00000

 Dipole moment (field-independent basis, Debye):
    X=              3.7784    Y=              3.8447    Z=              0.3502  Tot=              5.4019
 Quadrupole moment (field-independent basis, Debye-Ang):
   XX=           -371.0134   YY=           -379.3457   ZZ=           -396.6240
   XY=            -22.5884   XZ=             -1.7395   YZ=              0.0839

 Normal termination of Gaussian 09 at Fri Aug  2 07:27:01 2019.
