 Gaussian 09, Revision D.01,
 Gaussian 09:  ES64L-G09RevD.01 24-Apr-2013

 --------------------------
 # td=(NStates=1) B3LYP/SVP
 --------------------------

 --
 TD
 --
 Symbolic Z-matrix:
 Charge =  0 Multiplicity = 1

                         Standard orientation:
 ---------------------------------------------------------------------
 Center     Atomic      Atomic             Coordinates (Angstroms)
 Number     Number       Type             X           Y           Z
 ---------------------------------------------------------------------
      1          6           0       -5.166842   -1.974040    0.406330
      2          6           0       -4.727388    2.724337    1.485461
      3          6           0       -9.311793    3.268678   -0.256801
      4          6           0       -9.922028   -1.399150   -0.936634
      5          7           0       -5.209820    0.432377    0.891846
      6          6           0       -4.529127   -0.745984    0.859817
      7          6           0       -3.051423   -0.625660    1.406604
      8          6           0       -3.047027    0.795757    1.867334
      9          6           0       -4.413245    1.362368    1.430544
     10          6           0       -2.909765    1.058446    3.297567
     11          6           0       -2.039178   -0.887831    0.225126
     12          6           0       -0.592025   -0.963584    0.719663
     13          6           0        0.407516   -1.170613   -0.430571
     14          8           0        0.080958   -1.604061   -1.463487
     15          8           0        1.709276   -0.846664   -0.089604
     16          7           0       -7.014724    2.730450    0.490807
     17          6           0       -5.907768    3.413814    0.994050
     18          6           0       -6.181853    4.821178    0.961678
     19          6           0       -7.568179    4.889866    0.507877
     20          6           0       -8.098479    3.648784    0.211048
     21          6           0       -5.239686    5.749545    1.438473
     22          6           0       -8.086577    6.293959    0.241476
     23          6           0       -9.008583    6.590936   -0.645293
     24          7           0       -9.211661    0.940690   -0.625009
     25          6           0       -9.932477    2.056788   -0.520754
     26          6           0      -11.326171    1.918335   -0.850726
     27          6           0      -11.509497    0.576065   -1.089195
     28          6           0      -10.211492   -0.069480   -0.944417
     29          6           0      -12.358317    3.037941   -0.953250
     30          6           0      -12.721878   -0.037436   -1.638213
     31          6           0      -12.754164   -0.282494   -3.089244
     32          7           0       -7.533745   -1.293523   -0.276746
     33          6           0       -8.670383   -2.083488   -0.646112
     34          6           0       -8.230948   -3.346696   -0.785755
     35          6           0       -6.882422   -3.443586   -0.416023
     36          6           0       -6.491988   -2.105565    0.015473
     37          6           0       -9.128478   -4.557366   -1.169041
     38          6           0       -5.737461   -4.261129   -0.090417
     39          8           0       -5.588245   -5.478546   -0.050053
     40          6           0       -4.542544   -3.356317    0.341418
     41          6           0       -3.854225   -3.808277    1.585385
     42          8           0       -4.153495   -3.492849    2.795789
     43          8           0       -2.937062   -4.813319    1.525026
     44          6           0       -2.498313   -5.506902    2.614900
     45          6           0        2.693907   -1.078914   -1.057027
     46          6           0        4.003671   -0.706941   -0.522203
     47          6           0        5.008811    0.026568   -0.973428
     48          6           0        4.910790    0.668563   -2.370647
     49          6           0        6.313459    0.193796   -0.179707
     50          6           0        7.546266   -0.366006   -0.899818
     51          6           0        8.766494   -0.196983   -0.112365
     52          6           0       10.123962   -0.730707   -0.838747
     53          6           0       10.122295   -2.167709   -1.115539
     54          6           0       11.313762   -0.271900   -0.074834
     55          6           0       12.643017   -0.672693   -0.568415
     56          6           0       13.891529   -0.149320    0.236432
     57          6           0       15.305759   -0.255867   -0.300112
     58          6           0       15.727987   -1.707601   -0.492639
     59          6           0       16.191251    0.526805    0.482223
     60          6           0       17.643861    0.823749   -0.188414
     61          6           0       18.589906    1.674290    0.657920
     62          6           0       19.962072    1.800391    0.078503
     63          6           0       20.013211    2.298083   -1.422362
     64          6           0       20.981861    2.533185    0.975124
     65          1           0       -3.947925    3.449657    1.660966
     66          1           0      -10.100497    4.086554   -0.213188
     67          1           0      -10.766327   -1.911177   -1.577391
     68          1           0       -2.762673   -1.349781    2.187204
     69          1           0       -2.351308    1.288049    1.334775
     70          1           0       -1.968413    0.579757    3.862525
     71          1           0       -2.645936    2.361390    3.499963
     72          1           0       -3.922401    0.516892    3.799000
     73          1           0       -2.239384   -1.809667   -0.444069
     74          1           0       -2.217585   -0.046170   -0.448736
     75          1           0       -0.260872   -0.025648    1.294943
     76          1           0       -0.655613   -1.711087    1.554574
     77          1           0       -4.344497    5.929510    0.748473
     78          1           0       -5.732673    6.610219    1.946403
     79          1           0       -4.714342    5.566706    2.458352
     80          1           0       -7.620583    7.042932    0.809830
     81          1           0       -9.334800    5.861006   -1.452185
     82          1           0       -9.367465    7.604064   -0.662505
     83          1           0      -12.317054    3.621645    0.033618
     84          1           0      -12.144908    3.628885   -1.832878
     85          1           0      -13.447621    2.775947   -1.142106
     86          1           0      -12.957011   -0.902081   -0.944432
     87          1           0      -13.644222    0.631856   -1.280183
     88          1           0      -12.803766    0.744962   -3.848947
     89          1           0      -11.828980   -0.795295   -3.352123
     90          1           0      -13.549987   -0.799244   -3.496858
     91          1           0       -9.919749   -4.455645   -0.516115
     92          1           0       -9.339036   -4.449805   -2.212811
     93          1           0       -8.678672   -5.551450   -0.985056
     94          1           0       -3.799918   -3.485946   -0.450466
     95          1           0       -2.020539   -6.483971    2.103302
     96          1           0       -1.846544   -4.812696    3.246411
     97          1           0       -3.354542   -5.769874    3.317743
     98          1           0        2.770413   -2.215534   -1.117768
     99          1           0        2.551814   -0.408393   -2.075909
    100          1           0        4.206921   -1.131547    0.473691
    101          1           0        5.294440    1.765839   -2.430090
    102          1           0        5.479637    0.207141   -2.995223
    103          1           0        3.874201    0.940220   -2.799924
    104          1           0        6.585823    1.304525    0.152034
    105          1           0        6.450212   -0.574135    0.767556
    106          1           0        7.472574   -1.376329   -1.271949
    107          1           0        7.746293    0.107828   -1.882003
    108          1           0        8.818058    0.879519   -0.154255
    109          1           0        8.814928   -0.559856    0.865362
    110          1           0       10.141699   -0.036645   -1.756791
    111          1           0        9.296019   -2.367341   -1.558167
    112          1           0       11.074194   -2.332862   -2.018586
    113          1           0       10.250093   -2.849933   -0.222607
    114          1           0       11.162749    0.997666   -0.250792
    115          1           0       11.243326   -0.237279    1.157541
    116          1           0       12.723211   -1.795440   -0.776804
    117          1           0       12.981760   -0.140627   -1.461346
    118          1           0       13.625886    0.982795    0.498024
    119          1           0       13.914661   -0.701651    1.148639
    120          1           0       15.270603    0.129156   -1.371014
    121          1           0       15.010662   -2.390349   -0.920638
    122          1           0       16.628053   -1.670686   -1.254112
    123          1           0       16.055389   -2.209027    0.456577
    124          1           0       15.612973    1.472717    0.729095
    125          1           0       16.254455    0.187108    1.472234
    126          1           0       18.020134   -0.049328   -0.312658
    127          1           0       17.645504    1.198097   -1.213605
    128          1           0       18.183383    2.706028    0.781714
    129          1           0       18.794045    1.333595    1.906717
    130          1           0       20.393621    0.862671   -0.050665
    131          1           0       19.626025    3.199086   -1.454965
    132          1           0       21.076773    2.579153   -1.842608
    133          1           0       19.423566    1.603073   -1.945024
    134          1           0       20.844253    2.223192    1.978429
    135          1           0       21.903044    2.657275    0.632050
    136          1           0       20.693444    3.561464    0.941247
    137          1           0       -6.736632    1.754312    0.505347
    138          1           0       -7.732176   -0.264374   -0.204773
 ---------------------------------------------------------------------

 SCF Done:  E(RB3LYP) =  -2733.02563662     A.U. after   17 cycles

 Excitation energies and oscillator strengths:

 Excited State   1:      Singlet-A      2.0433 eV  606.79 nm  f=0.2157  <S**2>=0.000
     235 -> 237       -0.19559
     235 -> 238        0.24242
     236 -> 237        0.62016
     236 -> 238        0.14088
 This state for optimization and/or second-order correction.
 Total Energy, E(TD-HF/TD-KS) =  -2732.95054784
 Copying the excited state density for this state as the 1-particle RhoCI density.

 The electronic state is 1-A.
 Alpha  occ. eigenvalues --  -19.17618 -19.16878 -19.13437 -19.11254 -19.10982
 Alpha  occ. eigenvalues --  -14.36539 -14.35856 -14.33322 -14.30413 -10.32023
 Alpha  occ. eigenvalues --  -10.31781 -10.27670 -10.25809 -10.24983 -10.24520
 Alpha  occ. eigenvalues --  -10.24475 -10.23775 -10.23616 -10.23524 -10.23437
 Alpha  occ. eigenvalues --  -10.22672 -10.21912 -10.21812 -10.21639 -10.21501
 Alpha  occ. eigenvalues --  -10.21460 -10.21454 -10.21370 -10.21118 -10.20972
 Alpha  occ. eigenvalues --  -10.20897 -10.20816 -10.20659 -10.20512 -10.20389
 Alpha  occ. eigenvalues --  -10.20354 -10.20306 -10.20235 -10.20220 -10.20188
 Alpha  occ. eigenvalues --  -10.19783 -10.19668 -10.19543 -10.19325 -10.19266
 Alpha  occ. eigenvalues --  -10.19263 -10.19217 -10.19118 -10.19107 -10.18936
 Alpha  occ. eigenvalues --  -10.18625 -10.18532 -10.18343 -10.18322 -10.18298
 Alpha  occ. eigenvalues --  -10.18133 -10.18128 -10.18125 -10.17655 -10.17566
 Alpha  occ. eigenvalues --  -10.17485 -10.17444 -10.16790 -10.15582  -1.10487
 Alpha  occ. eigenvalues --   -1.08767  -1.03015  -1.01472  -0.97590  -0.96501
 Alpha  occ. eigenvalues --   -0.96357  -0.95176  -0.93217  -0.85008  -0.83241
 Alpha  occ. eigenvalues --   -0.82652  -0.82316  -0.81973  -0.81568  -0.81424
 Alpha  occ. eigenvalues --   -0.80456  -0.80360  -0.80285  -0.79230  -0.78358
 Alpha  occ. eigenvalues --   -0.77764  -0.76669  -0.76039  -0.75434  -0.74887
 Alpha  occ. eigenvalues --   -0.74189  -0.73510  -0.72776  -0.72464  -0.71200
 Alpha  occ. eigenvalues --   -0.70014  -0.69798  -0.68774  -0.68765  -0.68518
 Alpha  occ. eigenvalues --   -0.67998  -0.67584  -0.67102  -0.66259  -0.65358
 Alpha  occ. eigenvalues --   -0.64130  -0.62892  -0.62854  -0.62549  -0.61916
 Alpha  occ. eigenvalues --   -0.61307  -0.59669  -0.58790  -0.58100  -0.57471
 Alpha  occ. eigenvalues --   -0.57263  -0.56106  -0.55881  -0.55786  -0.55164
 Alpha  occ. eigenvalues --   -0.55037  -0.53988  -0.53699  -0.53620  -0.53358
 Alpha  occ. eigenvalues --   -0.52891  -0.52206  -0.51880  -0.51273  -0.50847
 Alpha  occ. eigenvalues --   -0.50444  -0.49626  -0.49383  -0.48819  -0.48558
 Alpha  occ. eigenvalues --   -0.48003  -0.47930  -0.47635  -0.47325  -0.47109
 Alpha  occ. eigenvalues --   -0.46655  -0.46514  -0.46379  -0.46199  -0.45707
 Alpha  occ. eigenvalues --   -0.45524  -0.45459  -0.45337  -0.45292  -0.45081
 Alpha  occ. eigenvalues --   -0.44795  -0.44758  -0.44473  -0.44353  -0.44205
 Alpha  occ. eigenvalues --   -0.43845  -0.43745  -0.43650  -0.43143  -0.42865
 Alpha  occ. eigenvalues --   -0.42694  -0.42549  -0.42301  -0.42207  -0.41780
 Alpha  occ. eigenvalues --   -0.41532  -0.41461  -0.41044  -0.40792  -0.40667
 Alpha  occ. eigenvalues --   -0.40642  -0.40402  -0.40215  -0.39928  -0.39622
 Alpha  occ. eigenvalues --   -0.39219  -0.39152  -0.38983  -0.38957  -0.38756
 Alpha  occ. eigenvalues --   -0.38598  -0.38445  -0.38077  -0.37978  -0.37450
 Alpha  occ. eigenvalues --   -0.37208  -0.37207  -0.36879  -0.36758  -0.36640
 Alpha  occ. eigenvalues --   -0.36546  -0.36478  -0.36238  -0.35628  -0.35618
 Alpha  occ. eigenvalues --   -0.35373  -0.35037  -0.34928  -0.34828  -0.34789
 Alpha  occ. eigenvalues --   -0.34725  -0.33933  -0.33811  -0.33545  -0.33420
 Alpha  occ. eigenvalues --   -0.33289  -0.32980  -0.32899  -0.32608  -0.32562
 Alpha  occ. eigenvalues --   -0.31922  -0.31560  -0.31434  -0.31311  -0.31193
 Alpha  occ. eigenvalues --   -0.30925  -0.30631  -0.30168  -0.29907  -0.29590
 Alpha  occ. eigenvalues --   -0.29264  -0.28956  -0.28579  -0.28450  -0.28275
 Alpha  occ. eigenvalues --   -0.28101  -0.27554  -0.26934  -0.26164  -0.25926
 Alpha  occ. eigenvalues --   -0.25347  -0.24592  -0.23706  -0.23249  -0.20770
 Alpha  occ. eigenvalues --   -0.19279
 Alpha virt. eigenvalues --   -0.11201  -0.08071  -0.04747  -0.02317  -0.01245
 Alpha virt. eigenvalues --   -0.00249   0.00112   0.00537   0.01541   0.02365
 Alpha virt. eigenvalues --    0.02718   0.03481   0.04474   0.04530   0.04763

 Mulliken charges:
               1
     1  C    0.022607
     2  C   -0.003090
     3  C   -0.101539
     4  C   -0.072063
     5  N   -0.164790
     6  C   -0.038095
     7  C   -0.055356
     8  C    0.143684
     9  C   -0.017572
    10  C   -0.075909
    11  C   -0.019311
    12  C    0.004701
    13  C    0.198709
    14  O   -0.175222
    15  O   -0.321959
    16  N   -0.124039
    17  C   -0.016749
    18  C   -0.065925
    19  C    0.008714
    20  C    0.193121
    21  C    0.010114
    22  C    0.009311
    23  C   -0.023072
    24  N   -0.253034
    25  C    0.019571
    26  C   -0.108011
    27  C   -0.075261
    28  C    0.015800
    29  C    0.080646
    30  C    0.027827
    31  C    0.041038
    32  N   -0.091330
    33  C    0.083104
    34  C   -0.189219
    35  C    0.026909
    36  C    0.059527
    37  C    0.162061
    38  C    0.046210
    39  O   -0.187410
    40  C    0.040356
    41  C    0.193870
    42  O   -0.307088
    43  O   -0.269681
    44  C    0.132664
    45  C    0.287335
    46  C   -0.129858
    47  C   -0.092047
    48  C    0.072666
    49  C    0.016978
    50  C    0.024395
    51  C    0.039715
    52  C   -0.096279
    53  C    0.104969
    54  C   -0.064291
    55  C    0.064227
    56  C   -0.036824
    57  C   -0.049245
    58  C    0.007148
    59  C    0.088465
    60  C    0.133846
    61  C   -0.022130
    62  C   -0.100834
    63  C    0.052582
    64  C    0.154834
    65  H   -0.031585
    66  H   -0.003389
    67  H    0.024126
    68  H    0.020215
    69  H   -0.048103
    70  H    0.036479
    71  H    0.038021
    72  H    0.060685
    73  H    0.045750
    74  H    0.000377
    75  H    0.030029
    76  H    0.040705
    77  H    0.053015
    78  H    0.017466
    79  H    0.028045
    80  H   -0.027163
    81  H    0.044279
    82  H    0.014728
    83  H    0.044931
    84  H    0.022282
    85  H    0.017764
    86  H    0.011742
    87  H    0.001380
    88  H    0.018693
    89  H    0.010583
    90  H    0.000704
    91  H    0.009147
    92  H    0.021808
    93  H    0.032602
    94  H    0.047689
    95  H    0.058962
    96  H    0.025204
    97  H    0.037528
    98  H    0.025413
    99  H    0.040202
   100  H   -0.016269
   101  H    0.004111
   102  H   -0.014219
   103  H    0.030182
   104  H    0.031723
   105  H    0.025668
   106  H   -0.015671
   107  H   -0.024908
   108  H   -0.020913
   109  H   -0.019006
   110  H    0.001957
   111  H   -0.057868
   112  H    0.028729
   113  H    0.023932
   114  H   -0.007840
   115  H    0.014958
   116  H    0.017741
   117  H   -0.012269
   118  H    0.007944
   119  H   -0.025359
   120  H   -0.016753
   121  H    0.003108
   122  H    0.017852
   123  H    0.006103
   124  H   -0.022370
   125  H   -0.037351
   126  H   -0.068567
   127  H   -0.006040
   128  H   -0.003395
   129  H    0.007655
   130  H   -0.023500
   131  H   -0.041235
   132  H    0.012746
   133  H    0.007024
   134  H   -0.009621
   135  H   -0.039182
   136  H   -0.035455
   137  H    0.130203
   138  H    0.155369
 Sum of Mulliken charges =   0.00000

 Dipole moment (field-independent basis, Debye):
    X=              0.6893    Y=              5.5140    Z=             -1.0719  Tot=              5.6593
 Quadrupole moment (field-independent basis, Debye-Ang):
   XX=           -345.3375   YY=           -386.7898   ZZ=           -397.4726
   XY=            -31.6463   XZ=              9.7952   YZ=              2.9073

 Normal termination of Gaussian 09 at Mon Aug  5 08:38:18 2019.
