 Gaussian 09, Revision D.01,
 Gaussian 09:  ES64L-G09RevD.01 24-Apr-2013

 --------------------------
 # td=(NStates=1) B3LYP/SVP
 --------------------------

 --
 TD
 --
 Symbolic Z-matrix:
 Charge =  0 Multiplicity = 1

                         Standard orientation:
 ---------------------------------------------------------------------
 Center     Atomic      Atomic             Coordinates (Angstroms)
 Number     Number       Type             X           Y           Z
 ---------------------------------------------------------------------
      1          6           0       -5.013184   -1.897982    0.390235
      2          6           0       -4.833430    2.808668    1.523687
      3          6           0       -9.350612    3.273235   -0.235226
      4          6           0       -9.749429   -1.668645   -0.955937
      5          7           0       -5.152339    0.523988    0.794341
      6          6           0       -4.541770   -0.699632    0.833430
      7          6           0       -3.052056   -0.525262    1.212969
      8          6           0       -3.036469    0.955344    1.889818
      9          6           0       -4.430252    1.437543    1.386295
     10          6           0       -3.020210    1.052098    3.419407
     11          6           0       -2.010480   -0.587616    0.125521
     12          6           0       -0.582839   -0.435940    0.568443
     13          6           0        0.413213   -0.751261   -0.519970
     14          8           0        0.168531   -1.249650   -1.608575
     15          8           0        1.664446   -0.482101   -0.226549
     16          7           0       -7.144642    2.676326    0.427086
     17          6           0       -6.094681    3.337254    1.062367
     18          6           0       -6.470033    4.802760    1.099425
     19          6           0       -7.681173    4.907185    0.621245
     20          6           0       -8.183053    3.470272    0.271299
     21          6           0       -5.484687    5.869314    1.492820
     22          6           0       -8.371806    6.188023    0.337142
     23          6           0       -9.283337    6.459694   -0.603087
     24          7           0       -9.338233    0.700377   -0.496276
     25          6           0       -9.843588    1.906823   -0.549370
     26          6           0      -11.267675    1.723036   -1.060693
     27          6           0      -11.389680    0.310561   -1.218611
     28          6           0      -10.220003   -0.252531   -0.885671
     29          6           0      -12.361194    2.766083   -1.108112
     30          6           0      -12.577319   -0.514401   -1.826224
     31          6           0      -12.635204   -0.616593   -3.313770
     32          7           0       -7.481317   -1.272611   -0.102621
     33          6           0       -8.603722   -2.212171   -0.529634
     34          6           0       -8.096483   -3.469411   -0.676882
     35          6           0       -6.745962   -3.424858   -0.239187
     36          6           0       -6.363835   -2.089663   -0.022856
     37          6           0       -8.978313   -4.702028   -0.953365
     38          6           0       -5.527507   -4.318516   -0.023356
     39          8           0       -5.426203   -5.556203   -0.042925
     40          6           0       -4.454130   -3.305148    0.402549
     41          6           0       -3.838839   -3.754963    1.713732
     42          8           0       -4.226529   -3.367865    2.749302
     43          8           0       -2.933750   -4.733875    1.460415
     44          6           0       -2.342995   -5.242692    2.710151
     45          6           0        2.674499   -0.822891   -1.155012
     46          6           0        4.018877   -0.478066   -0.594716
     47          6           0        4.988089    0.311102   -1.134357
     48          6           0        5.070787    1.037020   -2.535193
     49          6           0        6.313120    0.510783   -0.303016
     50          6           0        7.482200   -0.454723   -0.937008
     51          6           0        8.791472   -0.055928   -0.078850
     52          6           0       10.017220   -0.674239   -0.751355
     53          6           0        9.977271   -2.275269   -0.771741
     54          6           0       11.294157   -0.205726    0.103932
     55          6           0       12.615277   -0.509284   -0.469152
     56          6           0       13.779284   -0.032852    0.375063
     57          6           0       15.140138   -0.414832   -0.133286
     58          6           0       15.667630   -1.895503    0.137802
     59          6           0       16.203813    0.674933    0.372735
     60          6           0       17.620325    0.430500   -0.140089
     61          6           0       18.736217    1.646481    0.387321
     62          6           0       20.058171    1.478629   -0.078262
     63          6           0       20.151654    1.745099   -1.644655
     64          6           0       20.999268    2.615854    0.610131
     65          1           0       -4.203942    3.321989    2.234574
     66          1           0      -10.198002    4.070051   -0.318722
     67          1           0      -10.447970   -2.302573   -1.269700
     68          1           0       -2.685372   -1.105076    2.030103
     69          1           0       -2.089662    1.328381    1.399705
     70          1           0       -2.085990    0.686770    3.794910
     71          1           0       -2.948418    1.962088    3.665714
     72          1           0       -3.750871    0.454738    4.041430
     73          1           0       -2.053715   -1.347934   -0.398203
     74          1           0       -2.386014    0.129965   -0.642266
     75          1           0       -0.285060    0.545299    0.838821
     76          1           0       -0.247024   -1.089421    1.448628
     77          1           0       -4.511093    5.899523    0.730302
     78          1           0       -6.071828    6.819536    1.432319
     79          1           0       -5.136330    5.727460    2.516849
     80          1           0       -8.157599    6.876666    1.027716
     81          1           0       -9.368811    5.844734   -1.468676
     82          1           0       -9.713290    7.634526   -0.595517
     83          1           0      -12.372526    3.360796   -0.107042
     84          1           0      -12.164066    3.487884   -1.811118
     85          1           0      -13.261558    2.196495   -1.579114
     86          1           0      -12.639270   -1.591683   -1.507723
     87          1           0      -13.390005   -0.072483   -1.388322
     88          1           0      -12.708816    0.355444   -3.859015
     89          1           0      -11.707776   -1.276319   -3.534919
     90          1           0      -13.778453   -1.039484   -3.662651
     91          1           0       -9.936662   -4.744385   -0.512376
     92          1           0       -9.374589   -4.572829   -1.951865
     93          1           0       -8.467868   -5.679169   -1.170679
     94          1           0       -3.602928   -3.510434   -0.257403
     95          1           0       -1.639199   -6.102279    2.501984
     96          1           0       -1.827858   -4.454227    3.238108
     97          1           0       -3.182401   -5.386044    3.236339
     98          1           0        2.781715   -2.038778   -1.342662
     99          1           0        2.471530   -0.395609   -2.282835
    100          1           0        4.270422   -0.691096    0.433102
    101          1           0        5.252101    2.145396   -2.124997
    102          1           0        5.741570    0.640069   -3.136789
    103          1           0        4.024632    0.875790   -3.226602
    104          1           0        6.818462    1.613444   -0.267021
    105          1           0        6.019007    0.257578    0.595225
    106          1           0        7.280043   -1.546389   -0.690723
    107          1           0        7.502128   -0.316144   -2.014606
    108          1           0        9.214632    0.937596    0.052818
    109          1           0        8.941896   -0.602916    0.922080
    110          1           0       10.122775   -0.131056   -1.737956
    111          1           0        9.287452   -2.707426   -1.593150
    112          1           0       11.049193   -2.601685   -1.116590
    113          1           0        9.934268   -2.625275    0.243965
    114          1           0       11.228139    0.848921    0.577367
    115          1           0       11.218217   -0.727107    1.239511
    116          1           0       12.769287   -1.614246   -0.679505
    117          1           0       12.556841    0.046147   -1.344701
    118          1           0       13.614283    1.113455    0.416754
    119          1           0       13.651384   -0.263369    1.454603
    120          1           0       15.012037   -0.277932   -1.287936
    121          1           0       14.928129   -2.651522   -0.215887
    122          1           0       16.669456   -2.104231   -0.347740
    123          1           0       15.910681   -1.923760    1.430555
    124          1           0       15.916499    1.786118    0.395945
    125          1           0       16.180115    0.493988    1.492719
    126          1           0       18.169622   -0.514349    0.442669
    127          1           0       17.722084    0.456543   -1.369359
    128          1           0       18.339890    2.722373   -0.065337
    129          1           0       18.602617    1.764772    1.609989
    130          1           0       20.289632    0.402003    0.160729
    131          1           0       19.658216    2.759604   -1.808936
    132          1           0       21.197141    1.756602   -1.764296
    133          1           0       19.826034    0.962720   -2.425760
    134          1           0       20.988978    2.237732    1.634603
    135          1           0       22.017935    2.758589    0.386849
    136          1           0       20.483674    3.607340    0.389295
    137          1           0       -7.111225    1.629372    0.405909
    138          1           0       -7.773172   -0.368300   -0.147809
 ---------------------------------------------------------------------

 SCF Done:  E(RB3LYP) =  -2732.96785812     A.U. after   17 cycles

 Excitation energies and oscillator strengths:

 Excited State   1:      Singlet-A      2.1335 eV  581.12 nm  f=0.0754  <S**2>=0.000
     235 -> 237        0.16610
     235 -> 238       -0.31680
     236 -> 237        0.56299
     236 -> 238        0.22206
 This state for optimization and/or second-order correction.
 Total Energy, E(TD-HF/TD-KS) =  -2732.88945257
 Copying the excited state density for this state as the 1-particle RhoCI density.

 The electronic state is 1-A.
 Alpha  occ. eigenvalues --  -19.18608 -19.17614 -19.12766 -19.12032 -19.11536
 Alpha  occ. eigenvalues --  -14.38206 -14.35351 -14.32302 -14.28594 -10.31437
 Alpha  occ. eigenvalues --  -10.31115 -10.28158 -10.27093 -10.25736 -10.23926
 Alpha  occ. eigenvalues --  -10.23814 -10.23587 -10.23582 -10.23272 -10.22205
 Alpha  occ. eigenvalues --  -10.21730 -10.21651 -10.21500 -10.21366 -10.21084
 Alpha  occ. eigenvalues --  -10.21068 -10.20902 -10.20851 -10.20762 -10.20755
 Alpha  occ. eigenvalues --  -10.20753 -10.20750 -10.20730 -10.20539 -10.20366
 Alpha  occ. eigenvalues --  -10.20265 -10.20143 -10.20134 -10.20077 -10.20052
 Alpha  occ. eigenvalues --  -10.19926 -10.19877 -10.19831 -10.19674 -10.19651
 Alpha  occ. eigenvalues --  -10.19553 -10.19524 -10.19481 -10.19432 -10.19379
 Alpha  occ. eigenvalues --  -10.19280 -10.19139 -10.19055 -10.18809 -10.18775
 Alpha  occ. eigenvalues --  -10.18336 -10.18321 -10.18225 -10.18031 -10.17998
 Alpha  occ. eigenvalues --  -10.17980 -10.17805 -10.17584 -10.16931  -1.11434
 Alpha  occ. eigenvalues --   -1.09873  -1.02022  -1.00755  -0.99797  -0.99434
 Alpha  occ. eigenvalues --   -0.95715  -0.94770  -0.93465  -0.84787  -0.83194
 Alpha  occ. eigenvalues --   -0.82587  -0.81864  -0.81243  -0.80930  -0.80624
 Alpha  occ. eigenvalues --   -0.80366  -0.79277  -0.78817  -0.78020  -0.77805
 Alpha  occ. eigenvalues --   -0.76886  -0.76313  -0.75857  -0.74819  -0.74099
 Alpha  occ. eigenvalues --   -0.73663  -0.72866  -0.71928  -0.70910  -0.70743
 Alpha  occ. eigenvalues --   -0.70156  -0.69833  -0.69650  -0.67782  -0.67055
 Alpha  occ. eigenvalues --   -0.66944  -0.66535  -0.66051  -0.65836  -0.65553
 Alpha  occ. eigenvalues --   -0.64560  -0.64130  -0.62708  -0.61656  -0.61388
 Alpha  occ. eigenvalues --   -0.59737  -0.59063  -0.58714  -0.58284  -0.57461
 Alpha  occ. eigenvalues --   -0.56425  -0.56063  -0.55922  -0.55874  -0.55272
 Alpha  occ. eigenvalues --   -0.55089  -0.54450  -0.53732  -0.53268  -0.53217
 Alpha  occ. eigenvalues --   -0.53153  -0.52220  -0.51406  -0.51235  -0.50583
 Alpha  occ. eigenvalues --   -0.50214  -0.49531  -0.49217  -0.48596  -0.48366
 Alpha  occ. eigenvalues --   -0.47756  -0.47680  -0.47471  -0.47373  -0.46621
 Alpha  occ. eigenvalues --   -0.46602  -0.46444  -0.46244  -0.46125  -0.45672
 Alpha  occ. eigenvalues --   -0.45578  -0.45111  -0.44804  -0.44674  -0.44549
 Alpha  occ. eigenvalues --   -0.44279  -0.43967  -0.43828  -0.43381  -0.43331
 Alpha  occ. eigenvalues --   -0.43217  -0.42839  -0.42727  -0.42617  -0.42485
 Alpha  occ. eigenvalues --   -0.42444  -0.42003  -0.41949  -0.41718  -0.41671
 Alpha  occ. eigenvalues --   -0.41309  -0.41177  -0.41084  -0.40798  -0.40624
 Alpha  occ. eigenvalues --   -0.40509  -0.40130  -0.40067  -0.39781  -0.39263
 Alpha  occ. eigenvalues --   -0.39149  -0.38916  -0.38835  -0.38494  -0.38261
 Alpha  occ. eigenvalues --   -0.38234  -0.38168  -0.37862  -0.37741  -0.37530
 Alpha  occ. eigenvalues --   -0.37255  -0.36860  -0.36656  -0.36552  -0.36489
 Alpha  occ. eigenvalues --   -0.36332  -0.36180  -0.36103  -0.36074  -0.35908
 Alpha  occ. eigenvalues --   -0.35768  -0.35626  -0.35503  -0.35087  -0.34866
 Alpha  occ. eigenvalues --   -0.34719  -0.34526  -0.34369  -0.34111  -0.33755
 Alpha  occ. eigenvalues --   -0.33262  -0.33201  -0.32975  -0.32366  -0.32219
 Alpha  occ. eigenvalues --   -0.32182  -0.31992  -0.31850  -0.31004  -0.30950
 Alpha  occ. eigenvalues --   -0.30707  -0.30589  -0.30274  -0.30128  -0.30049
 Alpha  occ. eigenvalues --   -0.29705  -0.29257  -0.29072  -0.28001  -0.27727
 Alpha  occ. eigenvalues --   -0.27467  -0.26787  -0.26442  -0.25654  -0.25501
 Alpha  occ. eigenvalues --   -0.24976  -0.24316  -0.24285  -0.21652  -0.20306
 Alpha  occ. eigenvalues --   -0.18859
 Alpha virt. eigenvalues --   -0.09513  -0.08707  -0.04397  -0.02090   0.00278
 Alpha virt. eigenvalues --    0.00367   0.00558   0.01409   0.02398   0.03801
 Alpha virt. eigenvalues --    0.03909   0.03943   0.04334   0.04420   0.04539

 Mulliken charges:
               1
     1  C    0.094389
     2  C   -0.045111
     3  C   -0.196542
     4  C    0.038520
     5  N   -0.144646
     6  C   -0.051899
     7  C   -0.052105
     8  C   -0.115769
     9  C   -0.027280
    10  C    0.184484
    11  C    0.222930
    12  C    0.060214
    13  C    0.125773
    14  O   -0.253621
    15  O   -0.260213
    16  N   -0.037391
    17  C    0.103228
    18  C   -0.130190
    19  C   -0.003407
    20  C    0.204126
    21  C    0.076714
    22  C   -0.011673
    23  C   -0.043926
    24  N   -0.197763
    25  C   -0.005639
    26  C   -0.224501
    27  C   -0.082798
    28  C    0.022537
    29  C    0.122606
    30  C    0.093492
    31  C   -0.032229
    32  N   -0.084727
    33  C    0.095975
    34  C   -0.123552
    35  C   -0.053660
    36  C    0.107071
    37  C    0.149216
    38  C    0.115521
    39  O   -0.189356
    40  C   -0.019281
    41  C    0.151923
    42  O   -0.184769
    43  O   -0.325294
    44  C    0.244757
    45  C    0.193473
    46  C   -0.051159
    47  C   -0.177021
    48  C    0.047676
    49  C    0.071172
    50  C    0.025828
    51  C    0.031042
    52  C   -0.095926
    53  C    0.019070
    54  C   -0.125733
    55  C    0.128237
    56  C    0.005658
    57  C   -0.056231
    58  C   -0.032314
    59  C    0.015549
    60  C   -0.060896
    61  C   -0.085311
    62  C   -0.082883
    63  C    0.020484
    64  C    0.033179
    65  H   -0.023618
    66  H    0.026766
    67  H   -0.099970
    68  H   -0.027702
    69  H    0.013222
    70  H   -0.022140
    71  H   -0.058933
    72  H    0.039598
    73  H   -0.091755
    74  H   -0.000173
    75  H    0.013209
    76  H    0.044034
    77  H    0.061139
    78  H    0.015698
    79  H    0.031663
    80  H   -0.030627
    81  H    0.032802
    82  H    0.052272
    83  H    0.042439
    84  H   -0.017342
    85  H    0.022556
    86  H   -0.003995
    87  H   -0.027451
    88  H    0.015180
    89  H    0.032382
    90  H    0.017386
    91  H    0.014217
    92  H   -0.010596
    93  H    0.040687
    94  H    0.043087
    95  H    0.055697
    96  H    0.009306
    97  H   -0.000483
    98  H    0.044339
    99  H    0.054442
   100  H   -0.018254
   101  H    0.054241
   102  H    0.000518
   103  H    0.022879
   104  H    0.025475
   105  H   -0.046265
   106  H    0.024391
   107  H    0.011064
   108  H   -0.002241
   109  H    0.002453
   110  H   -0.003543
   111  H    0.037222
   112  H    0.007963
   113  H    0.010671
   114  H    0.000034
   115  H   -0.019668
   116  H    0.010402
   117  H   -0.025037
   118  H   -0.009173
   119  H   -0.015563
   120  H   -0.002038
   121  H    0.029007
   122  H    0.040298
   123  H    0.023247
   124  H    0.012000
   125  H   -0.009551
   126  H    0.035455
   127  H    0.039912
   128  H   -0.002044
   129  H    0.014802
   130  H   -0.000487
   131  H    0.015815
   132  H   -0.005126
   133  H    0.024612
   134  H    0.011559
   135  H    0.000361
   136  H    0.020221
   137  H    0.175450
   138  H    0.061574
 Sum of Mulliken charges =   0.00000

 Dipole moment (field-independent basis, Debye):
    X=              4.0466    Y=              5.0525    Z=              1.6433  Tot=              6.6785
 Quadrupole moment (field-independent basis, Debye-Ang):
   XX=           -367.4484   YY=           -381.4829   ZZ=           -393.0107
   XY=            -30.4179   XZ=              2.9808   YZ=              1.7082

 Normal termination of Gaussian 09 at Thu Aug  1 18:22:07 2019.
