 Gaussian 09, Revision D.01,
 Gaussian 09:  ES64L-G09RevD.01 24-Apr-2013

 --------------------------
 # td=(NStates=1) B3LYP/SVP
 --------------------------

 --
 TD
 --
 Symbolic Z-matrix:
 Charge =  0 Multiplicity = 1

                         Standard orientation:
 ---------------------------------------------------------------------
 Center     Atomic      Atomic             Coordinates (Angstroms)
 Number     Number       Type             X           Y           Z
 ---------------------------------------------------------------------
      1          6           0       -5.044396   -2.045403    0.367055
      2          6           0       -4.659338    2.649009    1.444565
      3          6           0       -9.350104    3.423665   -0.099028
      4          6           0       -9.782116   -1.426994   -0.946604
      5          7           0       -5.118293    0.283849    0.921087
      6          6           0       -4.449977   -0.864272    0.871416
      7          6           0       -3.075017   -0.720009    1.386058
      8          6           0       -3.130598    0.786113    1.949578
      9          6           0       -4.373288    1.292335    1.373736
     10          6           0       -3.072697    0.700578    3.452063
     11          6           0       -1.985607   -0.959251    0.115753
     12          6           0       -0.567488   -0.864144    0.650685
     13          6           0        0.394427   -1.175098   -0.482987
     14          8           0        0.149444   -1.568498   -1.516579
     15          8           0        1.685990   -0.717151   -0.098884
     16          7           0       -7.074178    2.701495    0.602962
     17          6           0       -5.930998    3.294009    1.027267
     18          6           0       -6.183805    4.669246    1.056618
     19          6           0       -7.477301    4.947570    0.685327
     20          6           0       -8.081461    3.679561    0.392735
     21          6           0       -5.112504    5.697795    1.635918
     22          6           0       -7.942079    6.276698    0.483192
     23          6           0       -8.931330    6.621313   -0.393528
     24          7           0       -9.217504    0.939193   -0.561519
     25          6           0       -9.841830    2.203640   -0.578171
     26          6           0      -11.218327    2.046198   -0.999326
     27          6           0      -11.362306    0.677570   -1.348301
     28          6           0      -10.046256    0.092983   -0.934751
     29          6           0      -12.209730    3.094687   -1.023712
     30          6           0      -12.579736    0.023203   -1.787875
     31          6           0      -12.470153   -0.150951   -3.368810
     32          7           0       -7.475982   -1.127630   -0.300390
     33          6           0       -8.708428   -1.902482   -0.715239
     34          6           0       -8.214517   -3.294023   -0.771173
     35          6           0       -6.889444   -3.359567   -0.414190
     36          6           0       -6.462985   -1.993673    0.002140
     37          6           0       -8.977748   -4.480030   -1.299766
     38          6           0       -5.780687   -4.370377   -0.203011
     39          8           0       -5.791777   -5.583971   -0.259169
     40          6           0       -4.541154   -3.441406    0.282927
     41          6           0       -3.927543   -3.974516    1.547321
     42          8           0       -4.128083   -3.520642    2.625536
     43          8           0       -3.173721   -5.029130    1.339531
     44          6           0       -2.709224   -5.600622    2.595829
     45          6           0        2.673139   -0.945354   -1.098575
     46          6           0        3.904622   -0.541008   -0.473287
     47          6           0        4.953582    0.160672   -0.959538
     48          6           0        4.879159    0.828079   -2.254662
     49          6           0        6.249519    0.137887   -0.161056
     50          6           0        7.526278   -0.307690   -0.895142
     51          6           0        8.692127   -0.176315   -0.039975
     52          6           0       10.070256   -0.773541   -0.539905
     53          6           0        9.991409   -2.293428   -0.861895
     54          6           0       11.209890   -0.326922    0.278015
     55          6           0       12.619753   -0.473306   -0.404993
     56          6           0       13.833782    0.047816    0.341559
     57          6           0       15.166448   -0.304817   -0.260250
     58          6           0       15.589740   -1.799223    0.023526
     59          6           0       16.168039    0.795141    0.325182
     60          6           0       17.612587    0.652169   -0.219680
     61          6           0       18.554890    1.740918    0.470143
     62          6           0       20.050700    1.653290   -0.226181
     63          6           0       20.072524    2.016695   -1.757129
     64          6           0       20.914354    2.648155    0.494455
     65          1           0       -3.988745    3.391880    2.174407
     66          1           0       -9.862029    4.452058   -0.149448
     67          1           0      -10.725629   -2.057518   -1.293039
     68          1           0       -2.730137   -1.514646    1.946636
     69          1           0       -1.992916    1.076530    1.471550
     70          1           0       -2.186870    0.134220    3.993110
     71          1           0       -3.229676    1.682889    3.908747
     72          1           0       -4.101040   -0.048363    3.726810
     73          1           0       -2.197466   -2.142137   -0.123370
     74          1           0       -2.092006   -0.173677   -0.634793
     75          1           0       -0.333540    0.120482    1.117626
     76          1           0       -0.257483   -1.472893    1.607871
     77          1           0       -4.195407    5.424494    0.823277
     78          1           0       -5.524474    6.761709    1.409362
     79          1           0       -4.786668    5.623836    2.705484
     80          1           0       -7.671549    7.087981    0.960148
     81          1           0       -9.371770    5.831560   -1.085778
     82          1           0       -9.096189    7.891376   -0.614444
     83          1           0      -12.699645    3.471941    0.050408
     84          1           0      -11.588320    4.107457   -1.530735
     85          1           0      -13.105407    2.776494   -1.934772
     86          1           0      -12.906696   -0.927302   -1.520187
     87          1           0      -13.604069    0.536474   -1.735797
     88          1           0      -12.424207    0.892911   -3.935530
     89          1           0      -11.617801   -0.538384   -3.717394
     90          1           0      -13.505537   -0.550588   -3.845182
     91          1           0      -10.011204   -4.395829   -0.701588
     92          1           0       -9.104549   -4.357193   -2.466608
     93          1           0       -8.440760   -5.490164   -0.819008
     94          1           0       -3.960011   -3.443516   -0.330152
     95          1           0       -1.828463   -6.196594    2.400557
     96          1           0       -2.438127   -4.724826    3.313083
     97          1           0       -3.746262   -6.108307    3.059562
     98          1           0        2.663949   -2.079479   -1.408613
     99          1           0        2.490543   -0.495004   -1.968549
    100          1           0        4.132177   -1.179939    0.422495
    101          1           0        5.271460    1.904387   -2.168557
    102          1           0        5.650738    0.268828   -2.948689
    103          1           0        3.898312    0.855584   -2.485576
    104          1           0        6.501231    1.362331   -0.018768
    105          1           0        6.140569   -0.323134    0.839682
    106          1           0        7.462632   -1.319072   -0.951271
    107          1           0        7.792181    0.190135   -1.857214
    108          1           0        8.918839    0.988136    0.292211
    109          1           0        8.341082   -0.586398    0.979053
    110          1           0       10.172908   -0.227771   -1.520475
    111          1           0        9.214570   -2.755566   -1.407413
    112          1           0       10.996969   -2.674993   -1.245231
    113          1           0        9.872337   -2.805907    0.116338
    114          1           0       11.190320    0.865763    0.747281
    115          1           0       11.289249   -1.009685    1.036189
    116          1           0       13.042378   -1.421319   -0.600580
    117          1           0       12.680522    0.078674   -1.234436
    118          1           0       13.613388    1.339906    0.441484
    119          1           0       13.801967   -0.325189    1.506169
    120          1           0       15.194245    0.057008   -1.184346
    121          1           0       14.700717   -2.527668   -0.467388
    122          1           0       16.490877   -2.189027   -0.339818
    123          1           0       15.710501   -2.066777    1.268926
    124          1           0       15.870889    1.972789    0.168500
    125          1           0       16.338616    0.600626    1.492180
    126          1           0       17.945052   -0.390076    0.008102
    127          1           0       17.624043    0.685810   -1.422095
    128          1           0       18.106723    2.766812    0.138941
    129          1           0       18.347940    1.527543    1.454266
    130          1           0       20.472603    0.704236    0.107330
    131          1           0       19.694993    3.083781   -2.054642
    132          1           0       21.175530    2.229933   -1.992958
    133          1           0       19.654826    1.331132   -2.371307
    134          1           0       21.063228    2.449729    1.741025
    135          1           0       21.906756    2.724528    0.155368
    136          1           0       20.718353    3.881677    0.446544
    137          1           0       -7.091726    1.623322    0.296009
    138          1           0       -7.693291   -0.216690   -0.005374
 ---------------------------------------------------------------------

 SCF Done:  E(RB3LYP) =  -2732.78239202     A.U. after   17 cycles

 Excitation energies and oscillator strengths:

 Excited State   1:      Singlet-A      2.0312 eV  610.39 nm  f=0.1267  <S**2>=0.000
     235 -> 237       -0.14053
     235 -> 238       -0.22684
     236 -> 237        0.63448
     236 -> 238       -0.14753
 This state for optimization and/or second-order correction.
 Total Energy, E(TD-HF/TD-KS) =  -2732.70774608
 Copying the excited state density for this state as the 1-particle RhoCI density.

 The electronic state is 1-A.
 Alpha  occ. eigenvalues --  -19.18728 -19.15874 -19.14802 -19.14213 -19.12451
 Alpha  occ. eigenvalues --  -14.37363 -14.36999 -14.31461 -14.30380 -10.31391
 Alpha  occ. eigenvalues --  -10.31239 -10.30392 -10.26364 -10.25590 -10.23281
 Alpha  occ. eigenvalues --  -10.23210 -10.23157 -10.23135 -10.22887 -10.22845
 Alpha  occ. eigenvalues --  -10.22821 -10.22741 -10.22499 -10.22249 -10.21872
 Alpha  occ. eigenvalues --  -10.21712 -10.21537 -10.21395 -10.21318 -10.21178
 Alpha  occ. eigenvalues --  -10.21075 -10.20923 -10.20892 -10.20625 -10.20623
 Alpha  occ. eigenvalues --  -10.20548 -10.20475 -10.20371 -10.20267 -10.20069
 Alpha  occ. eigenvalues --  -10.19958 -10.19870 -10.19837 -10.19603 -10.19601
 Alpha  occ. eigenvalues --  -10.19591 -10.19403 -10.19395 -10.19259 -10.19247
 Alpha  occ. eigenvalues --  -10.19190 -10.19098 -10.18986 -10.18985 -10.18905
 Alpha  occ. eigenvalues --  -10.18793 -10.18751 -10.18708 -10.18503 -10.18468
 Alpha  occ. eigenvalues --  -10.18372 -10.17744 -10.17470 -10.16377  -1.11829
 Alpha  occ. eigenvalues --   -1.11305  -1.04548  -1.02102  -1.01914  -0.97260
 Alpha  occ. eigenvalues --   -0.96689  -0.95651  -0.94875  -0.85444  -0.82995
 Alpha  occ. eigenvalues --   -0.82238  -0.82051  -0.81913  -0.80805  -0.80552
 Alpha  occ. eigenvalues --   -0.80260  -0.79595  -0.79375  -0.79083  -0.78114
 Alpha  occ. eigenvalues --   -0.77533  -0.76230  -0.75758  -0.74667  -0.74407
 Alpha  occ. eigenvalues --   -0.73885  -0.73101  -0.71907  -0.71651  -0.70089
 Alpha  occ. eigenvalues --   -0.69155  -0.68811  -0.67943  -0.67266  -0.67156
 Alpha  occ. eigenvalues --   -0.66940  -0.66363  -0.65729  -0.65342  -0.64544
 Alpha  occ. eigenvalues --   -0.63896  -0.62438  -0.62086  -0.61359  -0.61050
 Alpha  occ. eigenvalues --   -0.60520  -0.58764  -0.58102  -0.57583  -0.57239
 Alpha  occ. eigenvalues --   -0.56177  -0.56084  -0.56044  -0.55478  -0.55397
 Alpha  occ. eigenvalues --   -0.54840  -0.54648  -0.54357  -0.54141  -0.53771
 Alpha  occ. eigenvalues --   -0.53236  -0.52693  -0.51991  -0.51743  -0.50834
 Alpha  occ. eigenvalues --   -0.50182  -0.49923  -0.49746  -0.49163  -0.48733
 Alpha  occ. eigenvalues --   -0.48293  -0.48108  -0.48041  -0.47793  -0.47215
 Alpha  occ. eigenvalues --   -0.46775  -0.46718  -0.46368  -0.45835  -0.45769
 Alpha  occ. eigenvalues --   -0.45533  -0.45323  -0.45122  -0.44817  -0.44617
 Alpha  occ. eigenvalues --   -0.44141  -0.44077  -0.43866  -0.43753  -0.43674
 Alpha  occ. eigenvalues --   -0.43523  -0.43175  -0.42955  -0.42830  -0.42705
 Alpha  occ. eigenvalues --   -0.41978  -0.41920  -0.41530  -0.41291  -0.41030
 Alpha  occ. eigenvalues --   -0.40880  -0.40831  -0.40767  -0.40356  -0.40048
 Alpha  occ. eigenvalues --   -0.39868  -0.39671  -0.39640  -0.39411  -0.39213
 Alpha  occ. eigenvalues --   -0.38957  -0.38831  -0.38490  -0.38358  -0.38331
 Alpha  occ. eigenvalues --   -0.37973  -0.37759  -0.37617  -0.37288  -0.37142
 Alpha  occ. eigenvalues --   -0.36900  -0.36840  -0.36724  -0.36508  -0.36239
 Alpha  occ. eigenvalues --   -0.36050  -0.35825  -0.35636  -0.35551  -0.35469
 Alpha  occ. eigenvalues --   -0.35203  -0.35160  -0.35099  -0.34824  -0.34749
 Alpha  occ. eigenvalues --   -0.34472  -0.34426  -0.34337  -0.34255  -0.33721
 Alpha  occ. eigenvalues --   -0.33452  -0.33072  -0.32744  -0.32358  -0.32151
 Alpha  occ. eigenvalues --   -0.32060  -0.31864  -0.31403  -0.31381  -0.31289
 Alpha  occ. eigenvalues --   -0.31179  -0.30842  -0.30704  -0.30148  -0.30092
 Alpha  occ. eigenvalues --   -0.29828  -0.29664  -0.29439  -0.28844  -0.28632
 Alpha  occ. eigenvalues --   -0.27502  -0.27486  -0.26779  -0.26665  -0.26136
 Alpha  occ. eigenvalues --   -0.25829  -0.23583  -0.23533  -0.22231  -0.20584
 Alpha  occ. eigenvalues --   -0.18518
 Alpha virt. eigenvalues --   -0.09963  -0.08577  -0.05014  -0.01861  -0.00308
 Alpha virt. eigenvalues --    0.00028   0.00330   0.00694   0.02504   0.03017
 Alpha virt. eigenvalues --    0.03512   0.03633   0.03828   0.04255   0.04272

 Mulliken charges:
               1
     1  C   -0.094750
     2  C   -0.117288
     3  C   -0.103859
     4  C   -0.212802
     5  N   -0.141578
     6  C    0.004893
     7  C   -0.043336
     8  C   -0.063722
     9  C    0.049561
    10  C   -0.004523
    11  C   -0.008453
    12  C   -0.029931
    13  C    0.172471
    14  O   -0.131157
    15  O   -0.367276
    16  N   -0.135436
    17  C    0.057850
    18  C   -0.151315
    19  C    0.125241
    20  C    0.033744
    21  C   -0.001042
    22  C   -0.003272
    23  C   -0.133209
    24  N   -0.166912
    25  C    0.121101
    26  C   -0.073316
    27  C   -0.045432
    28  C   -0.053966
    29  C   -0.093640
    30  C    0.065888
    31  C   -0.051181
    32  N   -0.095198
    33  C    0.292022
    34  C   -0.148901
    35  C   -0.050016
    36  C    0.125778
    37  C   -0.020582
    38  C    0.116197
    39  O   -0.146025
    40  C    0.285520
    41  C    0.127450
    42  O   -0.213437
    43  O   -0.273640
    44  C    0.116418
    45  C    0.318303
    46  C   -0.096362
    47  C   -0.152411
    48  C    0.124043
    49  C    0.017336
    50  C    0.129860
    51  C   -0.091167
    52  C   -0.011034
    53  C    0.025567
    54  C    0.066615
    55  C    0.127403
    56  C   -0.123930
    57  C    0.076554
    58  C   -0.031643
    59  C   -0.091818
    60  C   -0.045327
    61  C    0.052693
    62  C   -0.030707
    63  C    0.036571
    64  C   -0.052570
    65  H    0.042663
    66  H    0.005975
    67  H    0.030824
    68  H   -0.032317
    69  H    0.025075
    70  H    0.039645
    71  H    0.016765
    72  H    0.040242
    73  H    0.057965
    74  H    0.027408
    75  H    0.034890
    76  H    0.039590
    77  H    0.053195
    78  H    0.030129
    79  H    0.056996
    80  H   -0.057014
    81  H    0.049135
    82  H    0.055765
    83  H    0.068851
    84  H    0.041277
    85  H    0.050115
    86  H   -0.016812
    87  H    0.004401
    88  H    0.004974
    89  H   -0.012627
    90  H    0.019844
    91  H    0.044137
    92  H    0.078673
    93  H    0.082957
    94  H   -0.145665
    95  H    0.044350
    96  H    0.060317
    97  H    0.066854
    98  H    0.018228
    99  H   -0.050469
   100  H   -0.015979
   101  H    0.014892
   102  H    0.046686
   103  H   -0.018213
   104  H    0.005921
   105  H    0.009418
   106  H   -0.038078
   107  H    0.007372
   108  H   -0.004985
   109  H   -0.014738
   110  H   -0.016501
   111  H    0.011812
   112  H    0.017718
   113  H   -0.006973
   114  H    0.029656
   115  H   -0.037176
   116  H   -0.034338
   117  H   -0.048539
   118  H    0.000401
   119  H    0.004348
   120  H   -0.048728
   121  H    0.037192
   122  H    0.016685
   123  H    0.035478
   124  H    0.028030
   125  H    0.004787
   126  H   -0.005260
   127  H    0.002086
   128  H    0.010561
   129  H   -0.017833
   130  H    0.006572
   131  H    0.020518
   132  H    0.010678
   133  H    0.002290
   134  H    0.016437
   135  H   -0.010332
   136  H    0.010267
   137  H    0.203997
   138  H    0.120624
 Sum of Mulliken charges =   0.00000

 Dipole moment (field-independent basis, Debye):
    X=              2.5852    Y=              0.3652    Z=             -0.0047  Tot=              2.6108
 Quadrupole moment (field-independent basis, Debye-Ang):
   XX=           -355.8140   YY=           -384.6465   ZZ=           -396.6389
   XY=            -17.6069   XZ=             -6.6086   YZ=             -3.8896

 Normal termination of Gaussian 09 at Mon Jul 29 19:32:59 2019.
