 Gaussian 09, Revision D.01,
 Gaussian 09:  ES64L-G09RevD.01 24-Apr-2013

 --------------------------
 # td=(NStates=1) B3LYP/SVP
 --------------------------

 --
 TD
 --
 Symbolic Z-matrix:
 Charge =  0 Multiplicity = 1

                         Standard orientation:
 ---------------------------------------------------------------------
 Center     Atomic      Atomic             Coordinates (Angstroms)
 Number     Number       Type             X           Y           Z
 ---------------------------------------------------------------------
      1          6           0       -5.074057   -1.960101    0.402997
      2          6           0       -4.790203    2.821137    1.603497
      3          6           0       -9.347267    3.331991   -0.190573
      4          6           0       -9.827599   -1.493888   -0.849676
      5          7           0       -5.224151    0.486879    0.844340
      6          6           0       -4.521151   -0.667940    0.791400
      7          6           0       -3.032185   -0.520354    1.223002
      8          6           0       -3.156874    0.928602    1.880278
      9          6           0       -4.508557    1.449516    1.445377
     10          6           0       -3.066862    0.930181    3.457281
     11          6           0       -2.076661   -0.652897    0.095020
     12          6           0       -0.608204   -0.658201    0.557958
     13          6           0        0.402206   -0.906883   -0.609983
     14          8           0        0.010117   -1.418559   -1.665583
     15          8           0        1.657385   -0.649461   -0.243151
     16          7           0       -7.035171    2.788505    0.480021
     17          6           0       -6.041874    3.504317    1.132167
     18          6           0       -6.308475    4.846432    1.104794
     19          6           0       -7.632599    4.951777    0.617771
     20          6           0       -8.046939    3.609356    0.140106
     21          6           0       -5.476122    6.004601    1.581219
     22          6           0       -8.358898    6.230289    0.298723
     23          6           0       -9.075885    6.485199   -0.875718
     24          7           0       -9.273780    0.842529   -0.500344
     25          6           0       -9.821543    2.064019   -0.527834
     26          6           0      -11.347737    1.723709   -1.024769
     27          6           0      -11.429652    0.397986   -1.229181
     28          6           0      -10.132777   -0.171735   -0.862785
     29          6           0      -12.271533    2.835599   -1.087152
     30          6           0      -12.609841   -0.282271   -1.772737
     31          6           0      -12.637199   -0.612626   -3.247379
     32          7           0       -7.514547   -1.303099   -0.256002
     33          6           0       -8.602311   -2.065821   -0.668483
     34          6           0       -8.149464   -3.485127   -0.614028
     35          6           0       -6.840873   -3.472079   -0.165819
     36          6           0       -6.401856   -2.169233   -0.017362
     37          6           0       -8.873973   -4.721512   -1.050224
     38          6           0       -5.700818   -4.340309    0.078718
     39          8           0       -5.627998   -5.475879    0.043445
     40          6           0       -4.517206   -3.297447    0.445450
     41          6           0       -3.911303   -3.778922    1.795550
     42          8           0       -3.983688   -3.233963    2.835524
     43          8           0       -3.121307   -4.929780    1.608631
     44          6           0       -2.556971   -5.479959    2.774177
     45          6           0        2.676526   -1.064908   -1.285042
     46          6           0        4.025258   -0.596638   -0.733574
     47          6           0        5.064902    0.103255   -1.222767
     48          6           0        4.973292    0.805290   -2.409407
     49          6           0        6.269197    0.346133   -0.384151
     50          6           0        7.579658   -0.274416   -1.014309
     51          6           0        8.751637   -0.066551   -0.159400
     52          6           0       10.116291   -0.622170   -0.688065
     53          6           0        9.943105   -2.233363   -0.840985
     54          6           0       11.375800   -0.210680    0.086692
     55          6           0       12.654500   -0.462292   -0.581201
     56          6           0       13.832078    0.008016    0.223659
     57          6           0       15.189536   -0.192528   -0.463039
     58          6           0       15.503631   -1.689890   -0.616187
     59          6           0       16.342937    0.612757    0.389915
     60          6           0       17.767917    0.670649   -0.232002
     61          6           0       18.757010    1.559616    0.659675
     62          6           0       20.180126    1.415480    0.115426
     63          6           0       20.244246    2.205256   -1.294343
     64          6           0       21.076200    2.162598    1.160944
     65          1           0       -3.928768    3.378613    2.017052
     66          1           0      -10.062811    4.150460   -0.468349
     67          1           0      -10.771261   -1.967137   -1.231381
     68          1           0       -2.671830   -1.316325    2.146531
     69          1           0       -2.453564    1.627359    1.436157
     70          1           0       -2.002086    0.616975    3.867281
     71          1           0       -3.122544    1.863970    3.842242
     72          1           0       -3.725449    0.151936    3.904626
     73          1           0       -2.316428   -1.668421   -0.556661
     74          1           0       -2.159553    0.242493   -0.549585
     75          1           0       -0.096985    0.271734    1.062674
     76          1           0       -0.354920   -1.317450    1.373230
     77          1           0       -4.614553    5.752261    0.898160
     78          1           0       -5.845746    6.992410    1.499365
     79          1           0       -5.056028    6.048371    2.675878
     80          1           0       -8.150164    6.974505    1.221735
     81          1           0       -9.234969    5.691207   -1.435305
     82          1           0       -9.636980    7.545593   -0.942552
     83          1           0      -12.655045    3.327578   -0.148836
     84          1           0      -11.930432    3.714996   -1.632986
     85          1           0      -13.226107    2.649732   -1.688642
     86          1           0      -12.609749   -1.252988   -1.232120
     87          1           0      -13.486762    0.173415   -1.783135
     88          1           0      -12.523728    0.257693   -3.655495
     89          1           0      -11.590164   -1.140522   -3.426382
     90          1           0      -13.465219   -1.271059   -3.626508
     91          1           0       -9.912361   -4.888380   -0.466771
     92          1           0       -9.179143   -4.615722   -2.015650
     93          1           0       -8.375439   -5.601754   -0.980859
     94          1           0       -3.641343   -3.524343   -0.157195
     95          1           0       -2.167945   -6.589129    2.451844
     96          1           0       -1.759494   -4.782581    3.293205
     97          1           0       -3.437274   -5.814567    3.425543
     98          1           0        2.546306   -2.010627   -1.494218
     99          1           0        2.524745   -0.567666   -2.197123
    100          1           0        4.270994   -1.149711    0.324720
    101          1           0        5.571998    1.736047   -2.348986
    102          1           0        5.476071    0.217221   -3.340737
    103          1           0        3.834211    1.078037   -2.804236
    104          1           0        6.456803    1.395655   -0.125669
    105          1           0        6.074280   -0.247556    0.586817
    106          1           0        7.306435   -1.385947   -1.207998
    107          1           0        7.929029    0.163475   -1.939601
    108          1           0        8.894103    1.026874    0.144996
    109          1           0        8.476569   -0.391980    0.867644
    110          1           0       10.209504   -0.470950   -1.731088
    111          1           0        9.180129   -2.491318   -1.555671
    112          1           0       10.783574   -2.682995   -1.403848
    113          1           0        9.901684   -2.561016    0.322632
    114          1           0       11.085093    0.795429    0.231805
    115          1           0       11.214886   -0.561034    1.243438
    116          1           0       12.920899   -1.577511   -0.822038
    117          1           0       12.571331   -0.076716   -1.495079
    118          1           0       13.439771    1.092189    0.259617
    119          1           0       13.941876   -0.387627    1.359100
    120          1           0       15.115945    0.264087   -1.602888
    121          1           0       14.678114   -2.176140   -1.054238
    122          1           0       16.376314   -1.875075   -1.192393
    123          1           0       15.644451   -1.995836    0.463199
    124          1           0       15.976490    1.552354    0.638571
    125          1           0       16.334072    0.072204    1.410131
    126          1           0       18.216010   -0.222796   -0.340880
    127          1           0       17.587720    1.027310   -1.129890
    128          1           0       18.554841    2.522593    0.886844
    129          1           0       18.712858    0.768688    1.459612
    130          1           0       20.420369    0.254008    0.001110
    131          1           0       19.600380    3.089034   -1.382865
    132          1           0       21.381746    2.507557   -1.435122
    133          1           0       20.060915    1.531089   -2.212105
    134          1           0       20.935064    1.833597    2.244833
    135          1           0       22.095894    2.535504    0.787308
    136          1           0       20.661742    3.226993    1.563668
    137          1           0       -7.146058    1.660303    0.329896
    138          1           0       -7.618333   -0.359366   -0.095142
 ---------------------------------------------------------------------

 SCF Done:  E(RB3LYP) =  -2733.03185297     A.U. after   17 cycles

 Excitation energies and oscillator strengths:

 Excited State   1:      Singlet-A      1.9943 eV  621.69 nm  f=0.2091  <S**2>=0.000
     235 -> 237       -0.12759
     235 -> 238        0.27931
     236 -> 237        0.63159
 This state for optimization and/or second-order correction.
 Total Energy, E(TD-HF/TD-KS) =  -2732.95856313
 Copying the excited state density for this state as the 1-particle RhoCI density.

 The electronic state is 1-A.
 Alpha  occ. eigenvalues --  -19.18507 -19.16546 -19.13093 -19.13046 -19.11727
 Alpha  occ. eigenvalues --  -14.37540 -14.36139 -14.32515 -14.30164 -10.31400
 Alpha  occ. eigenvalues --  -10.31258 -10.27864 -10.25638 -10.24592 -10.24391
 Alpha  occ. eigenvalues --  -10.23907 -10.23887 -10.23268 -10.23261 -10.22520
 Alpha  occ. eigenvalues --  -10.22252 -10.21942 -10.21893 -10.21368 -10.21015
 Alpha  occ. eigenvalues --  -10.20964 -10.20829 -10.20817 -10.20666 -10.20553
 Alpha  occ. eigenvalues --  -10.20474 -10.20471 -10.20462 -10.20405 -10.20383
 Alpha  occ. eigenvalues --  -10.20334 -10.20308 -10.20141 -10.20058 -10.20035
 Alpha  occ. eigenvalues --  -10.19982 -10.19822 -10.19658 -10.19598 -10.19368
 Alpha  occ. eigenvalues --  -10.19280 -10.19266 -10.19116 -10.19085 -10.18789
 Alpha  occ. eigenvalues --  -10.18783 -10.18782 -10.18747 -10.18651 -10.18495
 Alpha  occ. eigenvalues --  -10.18261 -10.18235 -10.18073 -10.17808 -10.17744
 Alpha  occ. eigenvalues --  -10.17663 -10.17646 -10.17454 -10.16451  -1.09097
 Alpha  occ. eigenvalues --   -1.08423  -1.07702  -1.01235  -0.99117  -0.98157
 Alpha  occ. eigenvalues --   -0.97021  -0.94276  -0.92591  -0.85847  -0.84044
 Alpha  occ. eigenvalues --   -0.82361  -0.81682  -0.81000  -0.80683  -0.80352
 Alpha  occ. eigenvalues --   -0.80140  -0.80083  -0.79614  -0.78874  -0.77420
 Alpha  occ. eigenvalues --   -0.77034  -0.75995  -0.75494  -0.74972  -0.74127
 Alpha  occ. eigenvalues --   -0.73745  -0.73380  -0.72113  -0.71926  -0.70581
 Alpha  occ. eigenvalues --   -0.70052  -0.69527  -0.68172  -0.67878  -0.67257
 Alpha  occ. eigenvalues --   -0.67076  -0.66464  -0.66322  -0.66078  -0.65096
 Alpha  occ. eigenvalues --   -0.63486  -0.62796  -0.62563  -0.62147  -0.61498
 Alpha  occ. eigenvalues --   -0.61271  -0.59543  -0.58490  -0.57769  -0.57685
 Alpha  occ. eigenvalues --   -0.57198  -0.56179  -0.56028  -0.55733  -0.55372
 Alpha  occ. eigenvalues --   -0.55266  -0.54289  -0.53704  -0.53319  -0.52909
 Alpha  occ. eigenvalues --   -0.52213  -0.51966  -0.50931  -0.50340  -0.50123
 Alpha  occ. eigenvalues --   -0.49815  -0.49749  -0.49198  -0.48877  -0.48204
 Alpha  occ. eigenvalues --   -0.47921  -0.47509  -0.47425  -0.47304  -0.47132
 Alpha  occ. eigenvalues --   -0.47003  -0.46372  -0.46311  -0.46090  -0.45998
 Alpha  occ. eigenvalues --   -0.45683  -0.45421  -0.45267  -0.45196  -0.45006
 Alpha  occ. eigenvalues --   -0.44744  -0.44627  -0.44203  -0.43874  -0.43754
 Alpha  occ. eigenvalues --   -0.43640  -0.43463  -0.43330  -0.43240  -0.42759
 Alpha  occ. eigenvalues --   -0.42673  -0.42622  -0.42184  -0.41872  -0.41579
 Alpha  occ. eigenvalues --   -0.41510  -0.41382  -0.41016  -0.40869  -0.40618
 Alpha  occ. eigenvalues --   -0.40304  -0.40071  -0.39985  -0.39681  -0.39579
 Alpha  occ. eigenvalues --   -0.39430  -0.39289  -0.39179  -0.39139  -0.38991
 Alpha  occ. eigenvalues --   -0.38831  -0.38632  -0.38286  -0.37835  -0.37769
 Alpha  occ. eigenvalues --   -0.37490  -0.37396  -0.37249  -0.36870  -0.36601
 Alpha  occ. eigenvalues --   -0.36454  -0.36128  -0.36073  -0.35646  -0.35502
 Alpha  occ. eigenvalues --   -0.35265  -0.35189  -0.34855  -0.34773  -0.34586
 Alpha  occ. eigenvalues --   -0.34249  -0.34150  -0.33929  -0.33750  -0.33637
 Alpha  occ. eigenvalues --   -0.33519  -0.33499  -0.33293  -0.32969  -0.32715
 Alpha  occ. eigenvalues --   -0.32569  -0.32156  -0.31687  -0.31571  -0.31278
 Alpha  occ. eigenvalues --   -0.30775  -0.30651  -0.30214  -0.29709  -0.29579
 Alpha  occ. eigenvalues --   -0.29513  -0.28841  -0.28696  -0.27878  -0.27665
 Alpha  occ. eigenvalues --   -0.27262  -0.26710  -0.26182  -0.25921  -0.25375
 Alpha  occ. eigenvalues --   -0.24968  -0.24564  -0.23893  -0.22920  -0.19980
 Alpha  occ. eigenvalues --   -0.18595
 Alpha virt. eigenvalues --   -0.10440  -0.07459  -0.04023  -0.02261  -0.01484
 Alpha virt. eigenvalues --    0.00269   0.00545   0.01003   0.02189   0.04019
 Alpha virt. eigenvalues --    0.04126   0.04385   0.04641   0.04757   0.05018

 Mulliken charges:
               1
     1  C    0.124957
     2  C   -0.068275
     3  C   -0.051619
     4  C   -0.067174
     5  N   -0.147195
     6  C   -0.048343
     7  C   -0.126960
     8  C   -0.030360
     9  C   -0.008274
    10  C    0.075476
    11  C    0.079367
    12  C   -0.012347
    13  C    0.182877
    14  O   -0.272371
    15  O   -0.318055
    16  N   -0.124195
    17  C    0.102451
    18  C   -0.077009
    19  C   -0.062720
    20  C    0.081563
    21  C    0.060968
    22  C   -0.083808
    23  C    0.017513
    24  N   -0.233398
    25  C    0.011733
    26  C   -0.096679
    27  C   -0.068223
    28  C    0.003159
    29  C    0.055366
    30  C    0.113333
    31  C    0.052443
    32  N   -0.062589
    33  C    0.132974
    34  C   -0.158830
    35  C    0.012866
    36  C    0.052934
    37  C    0.166100
    38  C    0.049963
    39  O   -0.065853
    40  C   -0.105844
    41  C    0.180657
    42  O   -0.176871
    43  O   -0.329792
    44  C    0.114442
    45  C    0.401492
    46  C   -0.152952
    47  C   -0.091325
    48  C   -0.014073
    49  C    0.071958
    50  C   -0.020905
    51  C    0.047768
    52  C   -0.084892
    53  C   -0.018690
    54  C    0.068777
    55  C    0.116406
    56  C   -0.025323
    57  C   -0.140239
    58  C    0.088836
    59  C    0.035039
    60  C    0.166732
    61  C    0.024914
    62  C   -0.102447
    63  C   -0.023359
    64  C   -0.011008
    65  H   -0.012549
    66  H   -0.002212
    67  H   -0.016967
    68  H    0.057990
    69  H   -0.010047
    70  H    0.005917
    71  H   -0.019034
    72  H    0.041752
    73  H    0.062325
    74  H    0.008565
    75  H    0.027448
    76  H    0.014490
    77  H    0.040738
    78  H    0.007418
    79  H    0.038869
    80  H    0.036899
    81  H   -0.007766
    82  H    0.059035
    83  H    0.029493
    84  H    0.005427
    85  H   -0.002484
    86  H   -0.002378
    87  H   -0.050546
    88  H   -0.040812
    89  H   -0.002560
    90  H    0.034483
    91  H    0.026303
    92  H   -0.003319
    93  H   -0.001438
    94  H    0.043595
    95  H    0.045772
    96  H    0.055230
    97  H    0.032505
    98  H   -0.016829
    99  H   -0.014418
   100  H    0.009878
   101  H    0.015756
   102  H    0.044300
   103  H    0.048599
   104  H    0.011886
   105  H    0.006208
   106  H    0.027762
   107  H   -0.006660
   108  H   -0.016931
   109  H   -0.025248
   110  H   -0.031525
   111  H    0.002096
   112  H   -0.001158
   113  H    0.030674
   114  H   -0.029879
   115  H   -0.002165
   116  H    0.001155
   117  H   -0.048952
   118  H   -0.002505
   119  H    0.018980
   120  H   -0.004194
   121  H   -0.006444
   122  H    0.004399
   123  H    0.003784
   124  H   -0.027330
   125  H   -0.014587
   126  H   -0.044391
   127  H   -0.049799
   128  H   -0.022907
   129  H    0.005558
   130  H    0.024937
   131  H    0.023229
   132  H    0.015513
   133  H    0.021970
   134  H    0.010090
   135  H    0.027260
   136  H   -0.007118
   137  H    0.225549
   138  H    0.080250
 Sum of Mulliken charges =   0.00000

 Dipole moment (field-independent basis, Debye):
    X=              2.5554    Y=              4.1677    Z=             -0.4023  Tot=              4.9053
 Quadrupole moment (field-independent basis, Debye-Ang):
   XX=           -352.9101   YY=           -380.6154   ZZ=           -394.3278
   XY=            -14.0281   XZ=              3.1515   YZ=              3.1690

 Normal termination of Gaussian 09 at Sat Aug  3 11:17:57 2019.
