 Gaussian 09, Revision D.01,
 Gaussian 09:  ES64L-G09RevD.01 24-Apr-2013

 --------------------------
 # td=(NStates=1) B3LYP/SVP
 --------------------------

 --
 TD
 --
 Symbolic Z-matrix:
 Charge =  0 Multiplicity = 1

                         Standard orientation:
 ---------------------------------------------------------------------
 Center     Atomic      Atomic             Coordinates (Angstroms)
 Number     Number       Type             X           Y           Z
 ---------------------------------------------------------------------
      1          6           0       -5.040710   -1.871175    0.451459
      2          6           0       -4.797984    2.902662    1.436397
      3          6           0       -9.516154    3.440502   -0.311557
      4          6           0       -9.783681   -1.443392   -0.871511
      5          7           0       -5.256574    0.505801    0.802805
      6          6           0       -4.580529   -0.635231    0.868082
      7          6           0       -3.184399   -0.515251    1.269770
      8          6           0       -3.101386    1.038697    1.734011
      9          6           0       -4.466413    1.544874    1.301693
     10          6           0       -2.844346    1.163102    3.282046
     11          6           0       -2.161379   -0.802793    0.074110
     12          6           0       -0.584865   -0.624119    0.495855
     13          6           0        0.351237   -1.227445   -0.567157
     14          8           0        0.022130   -1.760997   -1.643639
     15          8           0        1.638842   -0.915672   -0.236445
     16          7           0       -7.177482    2.852946    0.338593
     17          6           0       -6.083920    3.439801    0.927558
     18          6           0       -6.335055    4.810229    0.900457
     19          6           0       -7.605178    4.937103    0.319300
     20          6           0       -8.146397    3.669496    0.028578
     21          6           0       -5.312407    5.788698    1.544389
     22          6           0       -8.219263    6.343545    0.212470
     23          6           0       -9.124932    6.765540   -0.603274
     24          7           0       -9.229148    0.933391   -0.513269
     25          6           0       -9.935329    2.053512   -0.540104
     26          6           0      -11.375208    1.762518   -0.887649
     27          6           0      -11.457068    0.473702   -1.121841
     28          6           0      -10.123441   -0.135005   -0.786886
     29          6           0      -12.413106    2.857652   -1.044790
     30          6           0      -12.669808   -0.331140   -1.497968
     31          6           0      -12.844944   -0.597629   -2.965103
     32          7           0       -7.388132   -1.255735   -0.231680
     33          6           0       -8.588522   -1.989665   -0.577376
     34          6           0       -8.148973   -3.338346   -0.536031
     35          6           0       -6.776333   -3.337249   -0.136798
     36          6           0       -6.433975   -2.092819    0.052550
     37          6           0       -9.171266   -4.496438   -0.844707
     38          6           0       -5.624877   -4.280229    0.005108
     39          8           0       -5.611741   -5.465357   -0.051635
     40          6           0       -4.455379   -3.213035    0.398707
     41          6           0       -3.853392   -3.836131    1.772173
     42          8           0       -4.202757   -3.324707    2.855778
     43          8           0       -3.119086   -4.914110    1.611388
     44          6           0       -2.486624   -5.327023    2.798935
     45          6           0        2.688290   -1.327300   -1.128902
     46          6           0        4.004965   -0.892548   -0.561142
     47          6           0        5.010238   -0.269617   -1.224269
     48          6           0        4.968238    0.110874   -2.700228
     49          6           0        6.308605    0.000445   -0.472470
     50          6           0        7.610217   -0.712276   -0.976973
     51          6           0        8.815805   -0.352005   -0.179889
     52          6           0       10.173811   -0.758922   -0.801969
     53          6           0       10.310924   -2.352204   -0.776778
     54          6           0       11.358198   -0.181984   -0.044473
     55          6           0       12.742550   -0.535396   -0.655877
     56          6           0       13.827149    0.144060    0.112567
     57          6           0       15.314449   -0.092835   -0.403368
     58          6           0       15.656059   -1.529099   -0.238753
     59          6           0       16.323180    0.793815    0.422733
     60          6           0       17.794169    0.681417   -0.017468
     61          6           0       18.554829    1.783635    0.590688
     62          6           0       20.133218    1.743980    0.199621
     63          6           0       20.354897    2.304215   -1.201713
     64          6           0       20.985402    2.655555    1.185510
     65          1           0       -3.948990    3.610841    1.632801
     66          1           0      -10.231377    4.350744   -0.728165
     67          1           0      -10.674570   -2.002092   -1.305703
     68          1           0       -2.657942   -1.268714    2.055751
     69          1           0       -2.127718    1.565503    1.185858
     70          1           0       -1.792172    0.916239    3.468162
     71          1           0       -3.186392    2.298732    3.440190
     72          1           0       -3.754439    0.515944    3.706895
     73          1           0       -2.343213   -1.761218   -0.365711
     74          1           0       -2.242982   -0.035066   -0.671704
     75          1           0       -0.173657    0.342462    0.636228
     76          1           0       -0.521815   -1.172395    1.431078
     77          1           0       -4.662155    6.001137    0.732593
     78          1           0       -5.768271    6.704590    1.886114
     79          1           0       -4.667587    5.194817    2.301983
     80          1           0       -7.897978    6.920638    1.181596
     81          1           0       -9.689707    6.224720   -1.565820
     82          1           0       -9.458530    7.773934   -0.588742
     83          1           0      -12.172845    3.782206   -0.257193
     84          1           0      -12.594820    3.327886   -2.123753
     85          1           0      -13.589485    2.530539   -0.754722
     86          1           0      -12.594965   -1.529670   -0.787471
     87          1           0      -13.351266    0.250674   -1.125418
     88          1           0      -13.015893    0.483333   -3.510319
     89          1           0      -11.610708   -0.808056   -3.317528
     90          1           0      -13.525361   -1.483158   -3.349081
     91          1           0       -9.916299   -4.570806   -0.193295
     92          1           0       -9.678261   -4.381843   -1.855932
     93          1           0       -8.754501   -5.424927   -0.658878
     94          1           0       -3.531346   -3.394419   -0.373159
     95          1           0       -1.802545   -6.140584    2.377808
     96          1           0       -2.007363   -4.439829    3.320631
     97          1           0       -3.292794   -5.498713    3.512175
     98          1           0        2.616263   -2.467641   -1.391107
     99          1           0        2.432929   -0.969413   -2.008201
    100          1           0        4.036795   -1.221523    0.390105
    101          1           0        5.166947    1.158342   -2.669493
    102          1           0        5.818759   -0.182455   -3.349489
    103          1           0        4.076233    0.015374   -3.334809
    104          1           0        6.354379    1.204738   -0.328578
    105          1           0        6.235252   -0.130151    0.523375
    106          1           0        7.365364   -1.746598   -0.643408
    107          1           0        7.736026   -0.765514   -2.174089
    108          1           0        8.907412    0.696031   -0.018809
    109          1           0        8.659480   -0.514014    0.943202
    110          1           0       10.291372   -0.578485   -1.942343
    111          1           0        9.457872   -2.746433   -1.442608
    112          1           0       11.245317   -2.692149   -1.166384
    113          1           0       10.338825   -2.626273    0.253318
    114          1           0       11.354064    0.831338   -0.083824
    115          1           0       11.108838   -0.549723    0.890644
    116          1           0       12.785925   -1.591873   -0.937880
    117          1           0       12.800935    0.011631   -1.664428
    118          1           0       13.642417    1.230495   -0.050371
    119          1           0       13.956237   -0.116112    1.394412
    120          1           0       15.507595    0.099639   -1.557585
    121          1           0       14.932485   -2.190879   -0.813503
    122          1           0       16.714528   -1.742085   -0.761955
    123          1           0       16.046573   -1.958608    0.692962
    124          1           0       15.794923    1.818156    0.399871
    125          1           0       16.320856    0.421743    1.465845
    126          1           0       18.093677   -0.326219    0.182559
    127          1           0       17.862729    0.950046   -1.203746
    128          1           0       18.035728    2.884911    0.346583
    129          1           0       18.383471    1.481978    1.555173
    130          1           0       20.604753    0.804542    0.304080
    131          1           0       20.112034    3.401512   -1.460358
    132          1           0       21.589544    2.237374   -1.351664
    133          1           0       19.770257    1.694896   -1.987850
    134          1           0       20.778446    2.288653    2.301818
    135          1           0       21.884152    2.622913    0.917656
    136          1           0       20.671414    3.816991    0.928407
    137          1           0       -7.294391    1.890973    0.164268
    138          1           0       -7.653339   -0.205604    0.045755
 ---------------------------------------------------------------------

 SCF Done:  E(RB3LYP) =  -2732.95759067     A.U. after   17 cycles

 Excitation energies and oscillator strengths:

 Excited State   1:      Singlet-A      2.0390 eV  608.08 nm  f=0.1854  <S**2>=0.000
     235 -> 237       -0.31717
     235 -> 238        0.23163
     236 -> 237        0.56178
     236 -> 238        0.17358
 This state for optimization and/or second-order correction.
 Total Energy, E(TD-HF/TD-KS) =  -2732.88266035
 Copying the excited state density for this state as the 1-particle RhoCI density.

 The electronic state is 1-A.
 Alpha  occ. eigenvalues --  -19.19008 -19.17643 -19.12916 -19.12535 -19.12066
 Alpha  occ. eigenvalues --  -14.37085 -14.36067 -14.32400 -14.31398 -10.31924
 Alpha  occ. eigenvalues --  -10.31836 -10.28232 -10.25157 -10.24227 -10.23701
 Alpha  occ. eigenvalues --  -10.23605 -10.23385 -10.22781 -10.22651 -10.22438
 Alpha  occ. eigenvalues --  -10.22400 -10.22363 -10.22348 -10.22183 -10.21963
 Alpha  occ. eigenvalues --  -10.21744 -10.21373 -10.21256 -10.21147 -10.21087
 Alpha  occ. eigenvalues --  -10.21066 -10.20668 -10.20626 -10.20607 -10.20481
 Alpha  occ. eigenvalues --  -10.20416 -10.20316 -10.20296 -10.20232 -10.20087
 Alpha  occ. eigenvalues --  -10.20020 -10.19881 -10.19811 -10.19778 -10.19655
 Alpha  occ. eigenvalues --  -10.19605 -10.19542 -10.19454 -10.19327 -10.19183
 Alpha  occ. eigenvalues --  -10.19022 -10.18850 -10.18741 -10.18677 -10.18602
 Alpha  occ. eigenvalues --  -10.18593 -10.18539 -10.18260 -10.18186 -10.18124
 Alpha  occ. eigenvalues --  -10.18108 -10.17722 -10.17567 -10.16704  -1.11124
 Alpha  occ. eigenvalues --   -1.08219  -1.04395  -1.00756  -0.99405  -0.99164
 Alpha  occ. eigenvalues --   -0.98361  -0.94144  -0.93681  -0.84481  -0.82674
 Alpha  occ. eigenvalues --   -0.81866  -0.81860  -0.81118  -0.80930  -0.80318
 Alpha  occ. eigenvalues --   -0.80113  -0.79403  -0.79064  -0.78923  -0.77475
 Alpha  occ. eigenvalues --   -0.76744  -0.76053  -0.75420  -0.74846  -0.74565
 Alpha  occ. eigenvalues --   -0.73923  -0.73287  -0.72954  -0.72109  -0.71216
 Alpha  occ. eigenvalues --   -0.70232  -0.69289  -0.68854  -0.68103  -0.67083
 Alpha  occ. eigenvalues --   -0.66874  -0.66408  -0.66198  -0.65748  -0.65198
 Alpha  occ. eigenvalues --   -0.62986  -0.62227  -0.61733  -0.61603  -0.61076
 Alpha  occ. eigenvalues --   -0.60954  -0.58971  -0.58217  -0.57663  -0.57277
 Alpha  occ. eigenvalues --   -0.56978  -0.56693  -0.56517  -0.55715  -0.55468
 Alpha  occ. eigenvalues --   -0.55314  -0.54482  -0.53944  -0.53870  -0.53221
 Alpha  occ. eigenvalues --   -0.52730  -0.51944  -0.51516  -0.50499  -0.49614
 Alpha  occ. eigenvalues --   -0.49549  -0.49288  -0.48995  -0.48834  -0.48260
 Alpha  occ. eigenvalues --   -0.47691  -0.47642  -0.47382  -0.47005  -0.46862
 Alpha  occ. eigenvalues --   -0.46688  -0.46148  -0.46022  -0.45770  -0.45616
 Alpha  occ. eigenvalues --   -0.45236  -0.45129  -0.44961  -0.44820  -0.44626
 Alpha  occ. eigenvalues --   -0.44163  -0.43954  -0.43865  -0.43580  -0.43507
 Alpha  occ. eigenvalues --   -0.43204  -0.43128  -0.43004  -0.42807  -0.42608
 Alpha  occ. eigenvalues --   -0.42330  -0.42257  -0.42064  -0.41854  -0.41736
 Alpha  occ. eigenvalues --   -0.41281  -0.41025  -0.40606  -0.40519  -0.40482
 Alpha  occ. eigenvalues --   -0.40217  -0.40047  -0.39742  -0.39643  -0.39408
 Alpha  occ. eigenvalues --   -0.39124  -0.38900  -0.38743  -0.38682  -0.38501
 Alpha  occ. eigenvalues --   -0.38417  -0.38058  -0.37899  -0.37774  -0.37597
 Alpha  occ. eigenvalues --   -0.37286  -0.37150  -0.36954  -0.36852  -0.36671
 Alpha  occ. eigenvalues --   -0.36484  -0.36405  -0.36200  -0.36032  -0.35877
 Alpha  occ. eigenvalues --   -0.35755  -0.35268  -0.35166  -0.35003  -0.34320
 Alpha  occ. eigenvalues --   -0.34290  -0.34028  -0.33519  -0.33489  -0.33354
 Alpha  occ. eigenvalues --   -0.33117  -0.32928  -0.32737  -0.32549  -0.32514
 Alpha  occ. eigenvalues --   -0.31956  -0.31923  -0.31498  -0.31476  -0.30800
 Alpha  occ. eigenvalues --   -0.30664  -0.30587  -0.30310  -0.30090  -0.29831
 Alpha  occ. eigenvalues --   -0.29395  -0.29260  -0.28564  -0.28234  -0.27860
 Alpha  occ. eigenvalues --   -0.27465  -0.27295  -0.26817  -0.25998  -0.25688
 Alpha  occ. eigenvalues --   -0.24874  -0.24699  -0.24573  -0.24187  -0.20112
 Alpha  occ. eigenvalues --   -0.19400
 Alpha virt. eigenvalues --   -0.11161  -0.07469  -0.03462  -0.01311  -0.00804
 Alpha virt. eigenvalues --   -0.00104   0.00031   0.00780   0.01569   0.02491
 Alpha virt. eigenvalues --    0.03249   0.03717   0.03795   0.04319   0.04452

 Mulliken charges:
               1
     1  C    0.085773
     2  C   -0.098323
     3  C   -0.131591
     4  C   -0.091368
     5  N   -0.159534
     6  C    0.007159
     7  C   -0.122921
     8  C   -0.111911
     9  C    0.036409
    10  C    0.022522
    11  C    0.059258
    12  C    0.027640
    13  C    0.191859
    14  O   -0.263759
    15  O   -0.333170
    16  N    0.034460
    17  C    0.094855
    18  C   -0.168005
    19  C   -0.056732
    20  C    0.054457
    21  C    0.133969
    22  C   -0.004837
    23  C   -0.076855
    24  N   -0.256999
    25  C    0.033462
    26  C   -0.063278
    27  C   -0.086877
    28  C    0.019221
    29  C   -0.084093
    30  C    0.096928
    31  C   -0.088105
    32  N   -0.084517
    33  C    0.131947
    34  C   -0.162442
    35  C   -0.037959
    36  C    0.037399
    37  C    0.191803
    38  C    0.102736
    39  O   -0.122658
    40  C   -0.176131
    41  C    0.184680
    42  O   -0.271738
    43  O   -0.241990
    44  C    0.176139
    45  C    0.329074
    46  C   -0.062561
    47  C   -0.080537
    48  C    0.087888
    49  C    0.069721
    50  C    0.020817
    51  C    0.064546
    52  C   -0.121631
    53  C    0.024353
    54  C    0.120198
    55  C    0.027919
    56  C   -0.003043
    57  C   -0.086762
    58  C   -0.015407
    59  C   -0.000224
    60  C    0.012862
    61  C    0.056329
    62  C   -0.059215
    63  C   -0.064015
    64  C    0.064552
    65  H    0.022697
    66  H    0.064232
    67  H    0.005449
    68  H    0.041110
    69  H    0.025594
    70  H    0.036051
    71  H    0.017256
    72  H    0.054876
    73  H    0.014725
    74  H    0.001268
    75  H    0.028621
    76  H    0.018292
    77  H    0.017532
    78  H    0.013792
    79  H    0.045821
    80  H    0.037890
    81  H    0.053571
    82  H    0.012126
    83  H    0.053273
    84  H    0.054981
    85  H    0.040123
    86  H    0.022402
    87  H   -0.049401
    88  H    0.037781
    89  H    0.030328
    90  H    0.060656
    91  H   -0.025474
    92  H    0.031126
    93  H   -0.004142
    94  H    0.085381
    95  H    0.063136
    96  H    0.023723
    97  H    0.028527
    98  H    0.028914
    99  H   -0.062856
   100  H   -0.050940
   101  H   -0.004584
   102  H    0.016448
   103  H    0.019946
   104  H    0.002186
   105  H   -0.052208
   106  H    0.012380
   107  H    0.033964
   108  H   -0.036505
   109  H   -0.009625
   110  H   -0.005476
   111  H    0.023710
   112  H   -0.002108
   113  H   -0.008063
   114  H   -0.039391
   115  H   -0.025080
   116  H    0.000195
   117  H   -0.005135
   118  H    0.002413
   119  H    0.016593
   120  H    0.007881
   121  H    0.018606
   122  H   -0.002554
   123  H    0.003200
   124  H    0.002561
   125  H   -0.006387
   126  H    0.001670
   127  H   -0.002401
   128  H    0.026078
   129  H   -0.041522
   130  H   -0.012250
   131  H    0.026367
   132  H    0.019567
   133  H    0.026888
   134  H    0.029370
   135  H   -0.056853
   136  H    0.011199
   137  H    0.112151
   138  H    0.206583
 Sum of Mulliken charges =   0.00000

 Dipole moment (field-independent basis, Debye):
    X=              2.2298    Y=              4.3600    Z=              0.4058  Tot=              4.9139
 Quadrupole moment (field-independent basis, Debye-Ang):
   XX=           -344.8045   YY=           -386.7932   ZZ=           -398.4271
   XY=            -32.8260   XZ=             12.0004   YZ=             -5.5196

 Normal termination of Gaussian 09 at Fri Aug  2 11:49:34 2019.
