 Gaussian 09, Revision D.01,
 Gaussian 09:  ES64L-G09RevD.01 24-Apr-2013

 --------------------------
 # td=(NStates=1) B3LYP/SVP
 --------------------------

 --
 TD
 --
 Symbolic Z-matrix:
 Charge =  0 Multiplicity = 1

                         Standard orientation:
 ---------------------------------------------------------------------
 Center     Atomic      Atomic             Coordinates (Angstroms)
 Number     Number       Type             X           Y           Z
 ---------------------------------------------------------------------
      1          6           0       -5.055336   -1.990240    0.415900
      2          6           0       -4.795376    2.767755    1.366000
      3          6           0       -9.456053    3.199412   -0.243550
      4          6           0       -9.819093   -1.590333   -0.769352
      5          7           0       -5.199741    0.379148    0.862109
      6          6           0       -4.454441   -0.767308    0.866793
      7          6           0       -3.098262   -0.575116    1.241139
      8          6           0       -3.016131    0.901146    1.882237
      9          6           0       -4.377350    1.412503    1.350243
     10          6           0       -2.901847    0.885192    3.360692
     11          6           0       -2.003967   -0.810684    0.077266
     12          6           0       -0.528273   -0.660133    0.495920
     13          6           0        0.411750   -0.815222   -0.706268
     14          8           0        0.188163   -1.370254   -1.778244
     15          8           0        1.648455   -0.431796   -0.334914
     16          7           0       -7.120079    2.711828    0.555361
     17          6           0       -6.020605    3.428039    1.003200
     18          6           0       -6.373983    4.800485    1.006626
     19          6           0       -7.650272    4.951571    0.638885
     20          6           0       -8.194045    3.581941    0.246766
     21          6           0       -5.530413    5.769375    1.535393
     22          6           0       -8.354340    6.207084    0.410293
     23          6           0       -9.193743    6.523842   -0.554545
     24          7           0       -9.288305    0.739910   -0.297727
     25          6           0       -9.957111    1.909466   -0.422691
     26          6           0      -11.253514    1.683787   -1.008794
     27          6           0      -11.417545    0.377531   -1.162019
     28          6           0      -10.181548   -0.180561   -0.791650
     29          6           0      -12.162379    2.842330   -1.089385
     30          6           0      -12.536952   -0.357949   -1.757301
     31          6           0      -12.530465   -0.422228   -3.284479
     32          7           0       -7.532595   -1.340434   -0.091129
     33          6           0       -8.561856   -2.108814   -0.496960
     34          6           0       -8.139160   -3.541822   -0.591191
     35          6           0       -6.751872   -3.441756   -0.243497
     36          6           0       -6.391992   -2.074108    0.044601
     37          6           0       -8.897042   -4.748068   -0.929048
     38          6           0       -5.624543   -4.298471    0.012117
     39          8           0       -5.552780   -5.538724   -0.178067
     40          6           0       -4.464202   -3.357343    0.414825
     41          6           0       -3.914556   -3.770341    1.775823
     42          8           0       -4.022388   -3.283499    2.809413
     43          8           0       -2.959189   -4.787593    1.509174
     44          6           0       -2.405903   -5.505795    2.759708
     45          6           0        2.682713   -0.700254   -1.213781
     46          6           0        3.969777   -0.494152   -0.633344
     47          6           0        4.892433    0.379027   -1.099809
     48          6           0        4.819123    1.207678   -2.372676
     49          6           0        6.315200    0.440530   -0.380517
     50          6           0        7.494465   -0.253493   -1.121055
     51          6           0        8.808449    0.097786   -0.400039
     52          6           0       10.015246   -0.592396   -0.895947
     53          6           0        9.972374   -2.161600   -0.888133
     54          6           0       11.237416   -0.151007   -0.128097
     55          6           0       12.663043   -0.736970   -0.673027
     56          6           0       13.784979   -0.032952    0.086796
     57          6           0       15.218208   -0.269043   -0.351891
     58          6           0       15.579912   -1.777701   -0.339355
     59          6           0       16.244581    0.516511    0.372127
     60          6           0       17.714479    0.609701   -0.116306
     61          6           0       18.636826    1.397831    0.835554
     62          6           0       20.100686    1.509101    0.226361
     63          6           0       20.187347    2.116338   -1.201854
     64          6           0       21.013791    2.280866    1.232389
     65          1           0       -3.742765    3.336999    1.836625
     66          1           0      -10.061676    4.046029   -0.459619
     67          1           0      -10.706403   -2.490571   -0.892440
     68          1           0       -2.773790   -1.248362    2.069797
     69          1           0       -2.182357    1.517454    1.341090
     70          1           0       -1.937672    0.569625    3.740169
     71          1           0       -3.123425    1.804596    3.779856
     72          1           0       -3.830210    0.467539    3.715526
     73          1           0       -2.195310   -1.631277   -0.678921
     74          1           0       -2.210700    0.079885   -0.645659
     75          1           0       -0.103006    0.302160    1.004370
     76          1           0       -0.397590   -1.622340    1.168425
     77          1           0       -4.468431    6.166174    0.775313
     78          1           0       -6.252975    6.572522    1.514231
     79          1           0       -4.915333    5.431903    2.420380
     80          1           0       -8.194188    6.897389    1.257115
     81          1           0       -9.365019    5.790461   -1.422479
     82          1           0       -9.439068    7.596055   -0.736552
     83          1           0      -12.311897    3.336128   -0.167995
     84          1           0      -12.025964    3.767239   -1.696571
     85          1           0      -13.218121    2.538204   -1.587373
     86          1           0      -12.467598   -1.501748   -1.425783
     87          1           0      -13.443574    0.170402   -1.262605
     88          1           0      -12.610220    0.562601   -3.731247
     89          1           0      -11.590105   -1.031489   -3.817356
     90          1           0      -13.339844   -0.988926   -3.663699
     91          1           0       -9.666994   -5.016131   -0.271523
     92          1           0       -9.459700   -4.567512   -1.927424
     93          1           0       -8.138313   -5.356179   -1.088946
     94          1           0       -3.692870   -3.612300   -0.366244
     95          1           0       -1.852489   -6.268742    2.490539
     96          1           0       -2.050047   -4.672080    3.215961
     97          1           0       -3.328216   -5.886102    3.239179
     98          1           0        2.743361   -1.820191   -1.564196
     99          1           0        2.575238   -0.355012   -2.322824
    100          1           0        4.051974   -0.987484    0.204527
    101          1           0        5.105676    2.315509   -2.248319
    102          1           0        5.467027    0.953130   -3.411851
    103          1           0        3.670045    1.295807   -2.735944
    104          1           0        6.610928    1.521546   -0.231873
    105          1           0        6.154019    0.012486    0.636270
    106          1           0        7.214907   -1.333279   -1.176995
    107          1           0        7.822709    0.373190   -2.030411
    108          1           0        8.697303    1.098224   -0.460828
    109          1           0        8.514316   -0.127349    0.631742
    110          1           0       10.020985   -0.361536   -1.919433
    111          1           0        9.198317   -2.579069   -1.820743
    112          1           0       11.063792   -2.406225   -1.096517
    113          1           0        9.623906   -2.410852    0.264692
    114          1           0       11.170831    0.847765   -0.173449
    115          1           0       11.174089   -0.341137    1.053802
    116          1           0       12.644480   -1.806894   -0.769782
    117          1           0       12.677570   -0.427209   -1.632039
    118          1           0       13.469996    1.076187    0.360219
    119          1           0       13.638561   -0.189364    1.278223
    120          1           0       15.250875    0.025274   -1.444266
    121          1           0       15.036412   -2.475013   -1.081380
    122          1           0       16.626444   -2.013356   -0.630375
    123          1           0       15.670511   -2.005238    0.782842
    124          1           0       15.952027    1.547745    0.562756
    125          1           0       16.190139    0.135765    1.439366
    126          1           0       18.326245   -0.373302   -0.135321
    127          1           0       17.715323    0.933648   -1.169479
    128          1           0       18.109238    2.481926    1.001542
    129          1           0       18.543241    0.872291    1.823887
    130          1           0       20.433754    0.446639    0.112104
    131          1           0       19.324992    3.095030   -1.225493
    132          1           0       21.220022    2.259764   -1.591540
    133          1           0       19.648707    1.265670   -1.977071
    134          1           0       20.917203    1.596638    2.317270
    135          1           0       22.051876    2.093506    0.669825
    136          1           0       20.728234    3.316058    1.192386
    137          1           0       -7.376016    1.917524    0.551625
    138          1           0       -7.508158   -0.332477    0.075199
 ---------------------------------------------------------------------

 SCF Done:  E(RB3LYP) =  -2732.96204777     A.U. after   17 cycles

 Excitation energies and oscillator strengths:

 Excited State   1:      Singlet-A      2.0075 eV  617.59 nm  f=0.1255  <S**2>=0.000
     235 -> 237       -0.10990
     235 -> 238       -0.34107
     236 -> 237        0.60151
 This state for optimization and/or second-order correction.
 Total Energy, E(TD-HF/TD-KS) =  -2732.88827191
 Copying the excited state density for this state as the 1-particle RhoCI density.

 The electronic state is 1-A.
 Alpha  occ. eigenvalues --  -19.18968 -19.15037 -19.13736 -19.12979 -19.11674
 Alpha  occ. eigenvalues --  -14.37195 -14.36123 -14.32599 -14.29570 -10.32199
 Alpha  occ. eigenvalues --  -10.31362 -10.27375 -10.24918 -10.24752 -10.23982
 Alpha  occ. eigenvalues --  -10.23772 -10.23564 -10.23417 -10.23108 -10.22904
 Alpha  occ. eigenvalues --  -10.22673 -10.22404 -10.21717 -10.21689 -10.21610
 Alpha  occ. eigenvalues --  -10.21537 -10.21519 -10.21514 -10.21241 -10.21226
 Alpha  occ. eigenvalues --  -10.21044 -10.20930 -10.20923 -10.20780 -10.20551
 Alpha  occ. eigenvalues --  -10.20518 -10.20436 -10.20372 -10.20319 -10.20318
 Alpha  occ. eigenvalues --  -10.20282 -10.19997 -10.19953 -10.19705 -10.19694
 Alpha  occ. eigenvalues --  -10.19607 -10.19591 -10.19250 -10.19247 -10.18996
 Alpha  occ. eigenvalues --  -10.18977 -10.18902 -10.18759 -10.18678 -10.18673
 Alpha  occ. eigenvalues --  -10.18222 -10.18155 -10.18111 -10.18076 -10.17931
 Alpha  occ. eigenvalues --  -10.17813 -10.17693 -10.17305 -10.16691  -1.11005
 Alpha  occ. eigenvalues --   -1.09702  -1.00819  -1.00181  -0.98838  -0.98689
 Alpha  occ. eigenvalues --   -0.98587  -0.94155  -0.93516  -0.85654  -0.84837
 Alpha  occ. eigenvalues --   -0.82919  -0.81951  -0.81392  -0.81041  -0.80540
 Alpha  occ. eigenvalues --   -0.80182  -0.79975  -0.79295  -0.78869  -0.78180
 Alpha  occ. eigenvalues --   -0.77464  -0.76554  -0.75822  -0.74966  -0.74449
 Alpha  occ. eigenvalues --   -0.73394  -0.73194  -0.72514  -0.72232  -0.71630
 Alpha  occ. eigenvalues --   -0.70971  -0.69782  -0.69506  -0.68122  -0.66862
 Alpha  occ. eigenvalues --   -0.66598  -0.66338  -0.65950  -0.65566  -0.65462
 Alpha  occ. eigenvalues --   -0.64198  -0.63312  -0.62484  -0.61833  -0.61730
 Alpha  occ. eigenvalues --   -0.61111  -0.58542  -0.58403  -0.57899  -0.57409
 Alpha  occ. eigenvalues --   -0.57113  -0.57044  -0.56876  -0.55746  -0.55641
 Alpha  occ. eigenvalues --   -0.55180  -0.54245  -0.54171  -0.53789  -0.53758
 Alpha  occ. eigenvalues --   -0.52700  -0.52482  -0.51463  -0.51357  -0.50604
 Alpha  occ. eigenvalues --   -0.50202  -0.49570  -0.49454  -0.48813  -0.48464
 Alpha  occ. eigenvalues --   -0.48350  -0.47938  -0.47769  -0.47599  -0.47478
 Alpha  occ. eigenvalues --   -0.47009  -0.46695  -0.46528  -0.46413  -0.46224
 Alpha  occ. eigenvalues --   -0.45796  -0.45565  -0.45228  -0.44389  -0.44361
 Alpha  occ. eigenvalues --   -0.44214  -0.44105  -0.43845  -0.43816  -0.43577
 Alpha  occ. eigenvalues --   -0.43484  -0.43238  -0.42823  -0.42487  -0.42454
 Alpha  occ. eigenvalues --   -0.42317  -0.42166  -0.41911  -0.41720  -0.41465
 Alpha  occ. eigenvalues --   -0.41377  -0.40976  -0.40799  -0.40566  -0.40446
 Alpha  occ. eigenvalues --   -0.40213  -0.40046  -0.39612  -0.39559  -0.39296
 Alpha  occ. eigenvalues --   -0.39129  -0.38709  -0.38640  -0.38396  -0.38358
 Alpha  occ. eigenvalues --   -0.38217  -0.37966  -0.37810  -0.37448  -0.37336
 Alpha  occ. eigenvalues --   -0.37253  -0.37001  -0.36891  -0.36796  -0.36539
 Alpha  occ. eigenvalues --   -0.36275  -0.36148  -0.36043  -0.35737  -0.35551
 Alpha  occ. eigenvalues --   -0.35459  -0.35350  -0.35139  -0.34714  -0.34606
 Alpha  occ. eigenvalues --   -0.34425  -0.34289  -0.34226  -0.33523  -0.33416
 Alpha  occ. eigenvalues --   -0.33246  -0.32868  -0.32832  -0.32490  -0.32167
 Alpha  occ. eigenvalues --   -0.31976  -0.31837  -0.31762  -0.31281  -0.30876
 Alpha  occ. eigenvalues --   -0.30835  -0.30522  -0.30405  -0.30131  -0.29916
 Alpha  occ. eigenvalues --   -0.29342  -0.28765  -0.28726  -0.28539  -0.28424
 Alpha  occ. eigenvalues --   -0.27918  -0.27670  -0.26756  -0.26388  -0.25839
 Alpha  occ. eigenvalues --   -0.24729  -0.24706  -0.24665  -0.22989  -0.19822
 Alpha  occ. eigenvalues --   -0.18899
 Alpha virt. eigenvalues --   -0.10189  -0.08394  -0.04915  -0.02138  -0.01569
 Alpha virt. eigenvalues --   -0.00542  -0.00431   0.00345   0.01878   0.03049
 Alpha virt. eigenvalues --    0.03294   0.03562   0.03840   0.03954   0.04840

 Mulliken charges:
               1
     1  C   -0.046480
     2  C   -0.067711
     3  C   -0.023782
     4  C   -0.138163
     5  N   -0.203982
     6  C   -0.009496
     7  C   -0.008981
     8  C   -0.090971
     9  C   -0.093367
    10  C    0.190357
    11  C   -0.020782
    12  C   -0.011881
    13  C    0.184264
    14  O   -0.240783
    15  O   -0.267725
    16  N    0.074940
    17  C    0.161939
    18  C   -0.039212
    19  C    0.015669
    20  C   -0.010815
    21  C    0.004025
    22  C   -0.054903
    23  C   -0.052099
    24  N   -0.236043
    25  C    0.063985
    26  C   -0.092752
    27  C   -0.059299
    28  C    0.049841
    29  C    0.058789
    30  C    0.015592
    31  C    0.016318
    32  N    0.010351
    33  C    0.060569
    34  C   -0.148972
    35  C   -0.026229
    36  C    0.115878
    37  C    0.191443
    38  C    0.029203
    39  O   -0.213834
    40  C   -0.022793
    41  C    0.197184
    42  O   -0.143232
    43  O   -0.416476
    44  C    0.283768
    45  C    0.216521
    46  C   -0.010639
    47  C   -0.071075
    48  C   -0.054173
    49  C    0.013248
    50  C    0.000241
    51  C    0.062177
    52  C    0.022630
    53  C   -0.062758
    54  C    0.006962
    55  C    0.135581
    56  C   -0.052387
    57  C    0.021204
    58  C    0.001499
    59  C    0.029178
    60  C    0.007452
    61  C   -0.021504
    62  C   -0.105515
    63  C   -0.081908
    64  C    0.002665
    65  H    0.021831
    66  H   -0.054649
    67  H    0.034174
    68  H    0.016041
    69  H    0.016830
    70  H    0.025422
    71  H   -0.036823
    72  H    0.001826
    73  H    0.046045
    74  H    0.009343
    75  H    0.059943
    76  H    0.062089
    77  H    0.026433
    78  H    0.006451
    79  H    0.044045
    80  H    0.025746
    81  H    0.048283
    82  H    0.038084
    83  H    0.008911
    84  H    0.009887
    85  H    0.011648
    86  H    0.007861
    87  H    0.027698
    88  H    0.009703
    89  H    0.027589
    90  H   -0.000413
    91  H    0.022994
    92  H    0.023748
    93  H   -0.001284
    94  H    0.078185
    95  H    0.004275
    96  H    0.013417
    97  H    0.031176
    98  H    0.017443
    99  H    0.021166
   100  H   -0.073784
   101  H    0.026144
   102  H    0.057713
   103  H    0.029478
   104  H   -0.002495
   105  H    0.002044
   106  H    0.017997
   107  H    0.000486
   108  H   -0.053158
   109  H   -0.033031
   110  H   -0.040010
   111  H    0.039751
   112  H    0.019413
   113  H    0.032295
   114  H   -0.043341
   115  H    0.004816
   116  H    0.016695
   117  H   -0.043959
   118  H   -0.004588
   119  H   -0.020281
   120  H   -0.015177
   121  H    0.029342
   122  H   -0.002762
   123  H    0.005339
   124  H   -0.020623
   125  H   -0.020717
   126  H   -0.001239
   127  H    0.002771
   128  H    0.001536
   129  H    0.008822
   130  H    0.002711
   131  H    0.038572
   132  H    0.036280
   133  H    0.031945
   134  H    0.042559
   135  H    0.022777
   136  H    0.023307
   137  H   -0.018824
   138  H    0.153327
 Sum of Mulliken charges =   0.00000

 Dipole moment (field-independent basis, Debye):
    X=              1.9599    Y=              4.2419    Z=              1.2687  Tot=              4.8420
 Quadrupole moment (field-independent basis, Debye-Ang):
   XX=           -345.5286   YY=           -387.1742   ZZ=           -393.5450
   XY=            -20.9886   XZ=             -1.6321   YZ=             -5.5510

 Normal termination of Gaussian 09 at Fri Aug  2 05:59:35 2019.
