 Gaussian 09, Revision D.01,
 Gaussian 09:  ES64L-G09RevD.01 24-Apr-2013

 --------------------------
 # td=(NStates=1) B3LYP/SVP
 --------------------------

 --
 TD
 --
 Symbolic Z-matrix:
 Charge =  0 Multiplicity = 1

                         Standard orientation:
 ---------------------------------------------------------------------
 Center     Atomic      Atomic             Coordinates (Angstroms)
 Number     Number       Type             X           Y           Z
 ---------------------------------------------------------------------
      1          6           0       -5.214468   -2.027684    0.361218
      2          6           0       -4.555733    2.611682    1.688119
      3          6           0       -9.131053    3.581715   -0.106366
      4          6           0       -9.872800   -1.151231   -1.078735
      5          7           0       -5.136958    0.301231    0.861415
      6          6           0       -4.542854   -0.858017    0.706683
      7          6           0       -3.132906   -0.806269    1.311348
      8          6           0       -3.140918    0.555757    2.038399
      9          6           0       -4.321098    1.221583    1.480360
     10          6           0       -2.982875    0.483806    3.626452
     11          6           0       -1.988274   -1.015371    0.182145
     12          6           0       -0.635062   -1.335748    0.768424
     13          6           0        0.380456   -1.328211   -0.333480
     14          8           0        0.109433   -1.640848   -1.473247
     15          8           0        1.631833   -1.133010    0.032565
     16          7           0       -6.841297    2.849307    0.557333
     17          6           0       -5.687233    3.310541    1.091780
     18          6           0       -5.907522    4.694372    1.190176
     19          6           0       -7.253370    4.990340    0.784978
     20          6           0       -7.785975    3.705964    0.350264
     21          6           0       -4.914659    5.688406    1.704027
     22          6           0       -7.819709    6.355496    0.483041
     23          6           0       -8.557301    6.934468   -0.467551
     24          7           0       -9.158589    1.140495   -0.464834
     25          6           0       -9.673519    2.406282   -0.520616
     26          6           0      -11.021629    2.306120   -1.173204
     27          6           0      -11.284100    0.939505   -1.326744
     28          6           0      -10.124377    0.240894   -0.922578
     29          6           0      -11.940432    3.441727   -1.167356
     30          6           0      -12.575944    0.338004   -1.941470
     31          6           0      -12.503621    0.070268   -3.415449
     32          7           0       -7.477410   -1.120705   -0.463729
     33          6           0       -8.653433   -1.836610   -0.794481
     34          6           0       -8.329125   -3.263436   -0.820567
     35          6           0       -7.119142   -3.370053   -0.329658
     36          6           0       -6.522689   -2.011598   -0.090596
     37          6           0       -9.119018   -4.365645   -1.323503
     38          6           0       -6.032736   -4.346691   -0.169174
     39          8           0       -5.959755   -5.510852   -0.292181
     40          6           0       -4.735705   -3.356362    0.319250
     41          6           0       -4.120125   -4.009020    1.690962
     42          8           0       -4.539131   -3.658105    2.819621
     43          8           0       -3.396077   -5.052782    1.539557
     44          6           0       -3.144623   -5.897360    2.750972
     45          6           0        2.701571   -1.392304   -0.982191
     46          6           0        3.937451   -0.908846   -0.279897
     47          6           0        4.919782   -0.197163   -0.992519
     48          6           0        4.709604    0.392643   -2.333058
     49          6           0        6.228430    0.112534   -0.297987
     50          6           0        7.456301   -0.272742   -0.924040
     51          6           0        8.763391   -0.247848   -0.219198
     52          6           0       10.135038   -0.674743   -0.928594
     53          6           0        9.991027   -2.114556   -1.159878
     54          6           0       11.251987   -0.404497    0.006050
     55          6           0       12.639981   -0.614919   -0.599303
     56          6           0       13.763234    0.067052    0.117771
     57          6           0       15.149597    0.009609   -0.530719
     58          6           0       15.646393   -1.458404   -0.874480
     59          6           0       16.284318    0.577564    0.429544
     60          6           0       17.660468    0.825778   -0.296087
     61          6           0       18.593968    1.575141    0.591980
     62          6           0       20.034142    1.735678    0.081646
     63          6           0       20.182626    2.667592   -1.238085
     64          6           0       20.954236    2.256889    1.143116
     65          1           0       -3.974456    3.298719    2.278937
     66          1           0       -9.545459    4.587192   -0.041096
     67          1           0      -10.710892   -1.802168   -1.380377
     68          1           0       -3.069839   -1.596146    2.087743
     69          1           0       -2.244303    1.250007    1.755795
     70          1           0       -2.073876   -0.006904    4.249609
     71          1           0       -3.087898    1.488877    4.014634
     72          1           0       -3.805396   -0.015358    3.887240
     73          1           0       -2.237350   -1.810164   -0.526224
     74          1           0       -2.136039    0.034665   -0.321089
     75          1           0       -0.196388   -0.390602    1.452592
     76          1           0       -0.449082   -2.147145    1.447360
     77          1           0       -4.142753    5.705553    0.852660
     78          1           0       -5.266496    6.629185    2.030764
     79          1           0       -4.400766    5.475601    2.542647
     80          1           0       -7.419230    6.795309    1.399879
     81          1           0       -8.868896    6.313454   -1.586648
     82          1           0       -8.798599    7.996102   -0.339897
     83          1           0      -12.220120    3.743785   -0.061266
     84          1           0      -11.435423    4.211533   -1.575832
     85          1           0      -12.979365    3.103681   -1.953609
     86          1           0      -12.731146   -0.560910   -1.438804
     87          1           0      -13.387979    0.893867   -1.775688
     88          1           0      -12.703690    1.049281   -3.995843
     89          1           0      -11.546374   -0.583489   -3.638361
     90          1           0      -13.407255   -0.671714   -3.783307
     91          1           0       -9.819602   -4.705297   -0.447536
     92          1           0       -9.938290   -3.980548   -2.265706
     93          1           0       -8.648675   -5.311797   -1.622996
     94          1           0       -4.056919   -3.460281   -0.264866
     95          1           0       -2.210057   -6.449910    2.333542
     96          1           0       -2.875621   -5.262634    3.692841
     97          1           0       -4.138962   -6.442918    3.002959
     98          1           0        2.520862   -2.489465   -1.201789
     99          1           0        2.423403   -0.930042   -1.686914
    100          1           0        4.144165   -1.280938    0.768481
    101          1           0        5.426809    1.391577   -2.264786
    102          1           0        4.837265   -0.390732   -3.355859
    103          1           0        3.611721    0.589394   -2.596729
    104          1           0        6.302593    1.245855   -0.086837
    105          1           0        6.305926   -0.381146    0.604627
    106          1           0        7.226055   -1.343903   -1.268795
    107          1           0        7.517719    0.135323   -1.973845
    108          1           0        8.826017    0.794478    0.067531
    109          1           0        8.674642   -0.688791    0.568082
    110          1           0       10.233041   -0.024180   -1.829737
    111          1           0        9.256851   -2.223786   -1.866591
    112          1           0       10.852912   -2.573441   -1.496292
    113          1           0        9.744136   -2.838048   -0.374015
    114          1           0       11.206411    0.733583    0.313861
    115          1           0       11.353146   -1.018530    1.022799
    116          1           0       12.855645   -1.603769   -0.237917
    117          1           0       12.546447   -0.338768   -1.732128
    118          1           0       13.355918    1.139618    0.323467
    119          1           0       13.821214   -0.214047    1.242592
    120          1           0       14.928219    0.447719   -1.537525
    121          1           0       14.947855   -2.102980   -1.478620
    122          1           0       16.668971   -1.562829   -1.176619
    123          1           0       15.587389   -1.965577    0.180219
    124          1           0       15.786893    1.555854    0.859014
    125          1           0       16.206676    0.114051    1.426240
    126          1           0       18.085874   -0.216607   -0.606836
    127          1           0       17.414052    1.496645   -1.346404
    128          1           0       18.410146    2.679942    0.980296
    129          1           0       18.703227    1.109848    1.723854
    130          1           0       20.178770    0.550887   -0.258295
    131          1           0       19.763458    3.555801   -1.142536
    132          1           0       21.368990    2.643407   -1.301714
    133          1           0       19.803492    2.037297   -2.076781
    134          1           0       20.742941    1.932540    2.361878
    135          1           0       21.993087    2.277168    0.894329
    136          1           0       20.559876    3.358470    1.230328
    137          1           0       -6.896321    1.904820    0.583660
    138          1           0       -7.479768   -0.105541   -0.272405
 ---------------------------------------------------------------------

 SCF Done:  E(RB3LYP) =  -2732.89299108     A.U. after   17 cycles

 Excitation energies and oscillator strengths:

 Excited State   1:      Singlet-A      2.0147 eV  615.41 nm  f=0.1550  <S**2>=0.000
     235 -> 238       -0.30325
     236 -> 237        0.62996
 This state for optimization and/or second-order correction.
 Total Energy, E(TD-HF/TD-KS) =  -2732.81895350
 Copying the excited state density for this state as the 1-particle RhoCI density.

 The electronic state is 1-A.
 Alpha  occ. eigenvalues --  -19.18767 -19.16521 -19.13914 -19.10785 -19.10504
 Alpha  occ. eigenvalues --  -14.37298 -14.36642 -14.32125 -14.29399 -10.30997
 Alpha  occ. eigenvalues --  -10.30199 -10.28854 -10.27244 -10.24449 -10.23750
 Alpha  occ. eigenvalues --  -10.23741 -10.23109 -10.23040 -10.22716 -10.22678
 Alpha  occ. eigenvalues --  -10.22653 -10.22118 -10.21715 -10.21476 -10.21434
 Alpha  occ. eigenvalues --  -10.21433 -10.21341 -10.21122 -10.20790 -10.20777
 Alpha  occ. eigenvalues --  -10.20703 -10.20554 -10.20407 -10.20305 -10.20293
 Alpha  occ. eigenvalues --  -10.20254 -10.20010 -10.19996 -10.19941 -10.19937
 Alpha  occ. eigenvalues --  -10.19817 -10.19761 -10.19754 -10.19752 -10.19697
 Alpha  occ. eigenvalues --  -10.19566 -10.19482 -10.19394 -10.19335 -10.19181
 Alpha  occ. eigenvalues --  -10.19125 -10.18911 -10.18752 -10.18707 -10.18619
 Alpha  occ. eigenvalues --  -10.18520 -10.18282 -10.18280 -10.18152 -10.17960
 Alpha  occ. eigenvalues --  -10.17863 -10.17347 -10.16235 -10.16041  -1.10321
 Alpha  occ. eigenvalues --   -1.09042  -1.06042  -1.00839  -0.99061  -0.97879
 Alpha  occ. eigenvalues --   -0.97289  -0.95021  -0.91972  -0.85068  -0.84003
 Alpha  occ. eigenvalues --   -0.82426  -0.82394  -0.81342  -0.80934  -0.80907
 Alpha  occ. eigenvalues --   -0.80187  -0.79666  -0.78963  -0.78518  -0.78357
 Alpha  occ. eigenvalues --   -0.77119  -0.75912  -0.75492  -0.75125  -0.74659
 Alpha  occ. eigenvalues --   -0.73698  -0.73273  -0.72716  -0.72243  -0.71385
 Alpha  occ. eigenvalues --   -0.70261  -0.69441  -0.69120  -0.68826  -0.67233
 Alpha  occ. eigenvalues --   -0.67068  -0.67026  -0.66542  -0.65956  -0.65625
 Alpha  occ. eigenvalues --   -0.64291  -0.63513  -0.62501  -0.62114  -0.61620
 Alpha  occ. eigenvalues --   -0.60212  -0.58911  -0.58814  -0.58711  -0.57841
 Alpha  occ. eigenvalues --   -0.57151  -0.56532  -0.56236  -0.55512  -0.55408
 Alpha  occ. eigenvalues --   -0.55164  -0.54747  -0.54035  -0.53416  -0.52986
 Alpha  occ. eigenvalues --   -0.52447  -0.51939  -0.50975  -0.50654  -0.50457
 Alpha  occ. eigenvalues --   -0.49978  -0.49220  -0.49160  -0.48862  -0.48718
 Alpha  occ. eigenvalues --   -0.47928  -0.47342  -0.47240  -0.47017  -0.46961
 Alpha  occ. eigenvalues --   -0.46575  -0.46297  -0.46115  -0.46072  -0.45580
 Alpha  occ. eigenvalues --   -0.45415  -0.45333  -0.45183  -0.45056  -0.44906
 Alpha  occ. eigenvalues --   -0.44667  -0.44353  -0.44260  -0.44034  -0.43677
 Alpha  occ. eigenvalues --   -0.43505  -0.43367  -0.43232  -0.43025  -0.42897
 Alpha  occ. eigenvalues --   -0.42732  -0.42420  -0.42212  -0.42019  -0.41803
 Alpha  occ. eigenvalues --   -0.41504  -0.41152  -0.40907  -0.40667  -0.40443
 Alpha  occ. eigenvalues --   -0.40321  -0.40083  -0.39943  -0.39861  -0.39732
 Alpha  occ. eigenvalues --   -0.39318  -0.39290  -0.39104  -0.38958  -0.38542
 Alpha  occ. eigenvalues --   -0.38480  -0.38309  -0.38273  -0.38167  -0.37773
 Alpha  occ. eigenvalues --   -0.37519  -0.37120  -0.37085  -0.36804  -0.36677
 Alpha  occ. eigenvalues --   -0.36564  -0.36240  -0.36032  -0.35914  -0.35609
 Alpha  occ. eigenvalues --   -0.35444  -0.35280  -0.35107  -0.35090  -0.34761
 Alpha  occ. eigenvalues --   -0.34467  -0.34447  -0.33961  -0.33550  -0.33431
 Alpha  occ. eigenvalues --   -0.33377  -0.33169  -0.32948  -0.32354  -0.32017
 Alpha  occ. eigenvalues --   -0.31713  -0.31600  -0.31460  -0.30938  -0.30367
 Alpha  occ. eigenvalues --   -0.30145  -0.30083  -0.30035  -0.29859  -0.29724
 Alpha  occ. eigenvalues --   -0.29430  -0.28880  -0.28036  -0.27901  -0.27512
 Alpha  occ. eigenvalues --   -0.27302  -0.26848  -0.26425  -0.25688  -0.25153
 Alpha  occ. eigenvalues --   -0.25093  -0.24408  -0.23634  -0.21720  -0.19585
 Alpha  occ. eigenvalues --   -0.18813
 Alpha virt. eigenvalues --   -0.10242  -0.07718  -0.04280  -0.02587  -0.01567
 Alpha virt. eigenvalues --   -0.00040   0.00970   0.01221   0.01994   0.03149
 Alpha virt. eigenvalues --    0.03300   0.03965   0.04071   0.04395   0.04552

 Mulliken charges:
               1
     1  C    0.104341
     2  C   -0.045552
     3  C   -0.073702
     4  C   -0.077097
     5  N   -0.161386
     6  C   -0.078359
     7  C   -0.048627
     8  C   -0.057982
     9  C    0.031010
    10  C    0.075798
    11  C    0.037448
    12  C    0.014279
    13  C    0.152556
    14  O   -0.267147
    15  O   -0.330041
    16  N    0.118632
    17  C    0.000224
    18  C   -0.137372
    19  C   -0.087944
    20  C   -0.042682
    21  C    0.141312
    22  C    0.012322
    23  C   -0.076846
    24  N   -0.270475
    25  C    0.147348
    26  C   -0.167604
    27  C   -0.108684
    28  C    0.084322
    29  C    0.078680
    30  C    0.206010
    31  C   -0.071778
    32  N   -0.049848
    33  C    0.069652
    34  C   -0.090881
    35  C    0.004916
    36  C    0.034513
    37  C   -0.010088
    38  C    0.081901
    39  O   -0.110673
    40  C    0.067374
    41  C    0.154742
    42  O   -0.301357
    43  O   -0.252892
    44  C    0.110474
    45  C    0.457307
    46  C   -0.097786
    47  C   -0.118171
    48  C   -0.045756
    49  C    0.126791
    50  C   -0.020128
    51  C    0.176246
    52  C   -0.027876
    53  C    0.133439
    54  C   -0.061471
    55  C    0.074248
    56  C   -0.049828
    57  C   -0.029366
    58  C   -0.008306
    59  C    0.000431
    60  C    0.041476
    61  C   -0.044364
    62  C   -0.145662
    63  C    0.049067
    64  C   -0.006530
    65  H   -0.021874
    66  H   -0.015394
    67  H   -0.019625
    68  H    0.018865
    69  H    0.008331
    70  H    0.038841
    71  H   -0.003513
    72  H   -0.005602
    73  H    0.034405
    74  H    0.033356
    75  H    0.035214
    76  H    0.036267
    77  H    0.037577
    78  H   -0.007362
    79  H   -0.016964
    80  H    0.012312
    81  H    0.071469
    82  H    0.033772
    83  H    0.050310
    84  H   -0.007876
    85  H    0.031467
    86  H   -0.032333
    87  H   -0.045460
    88  H    0.032355
    89  H    0.032056
    90  H    0.012827
    91  H    0.051522
    92  H    0.047373
    93  H    0.048954
    94  H   -0.091944
    95  H    0.066580
    96  H    0.068686
    97  H    0.076025
    98  H    0.033655
    99  H   -0.133034
   100  H    0.014139
   101  H    0.059132
   102  H    0.053420
   103  H    0.043164
   104  H    0.007100
   105  H   -0.042479
   106  H   -0.021464
   107  H   -0.022745
   108  H   -0.035086
   109  H   -0.112077
   110  H   -0.002158
   111  H   -0.024417
   112  H   -0.030551
   113  H   -0.006919
   114  H   -0.008797
   115  H    0.006276
   116  H   -0.001243
   117  H    0.015105
   118  H   -0.013283
   119  H   -0.015584
   120  H   -0.001127
   121  H    0.020427
   122  H    0.009445
   123  H   -0.005008
   124  H   -0.008325
   125  H   -0.003153
   126  H    0.033037
   127  H    0.035349
   128  H   -0.004794
   129  H    0.007489
   130  H   -0.000755
   131  H   -0.008189
   132  H    0.026109
   133  H    0.021468
   134  H    0.025968
   135  H    0.018307
   136  H    0.009153
   137  H    0.087928
   138  H    0.151305
 Sum of Mulliken charges =   0.00000

 Dipole moment (field-independent basis, Debye):
    X=              3.5556    Y=              1.6355    Z=              1.4222  Tot=              4.1641
 Quadrupole moment (field-independent basis, Debye-Ang):
   XX=           -373.8288   YY=           -374.6319   ZZ=           -394.2548
   XY=             -9.2102   XZ=              3.7272   YZ=             -1.0842

 Normal termination of Gaussian 09 at Fri Aug  2 06:57:40 2019.
