 Gaussian 09, Revision D.01,
 Gaussian 09:  ES64L-G09RevD.01 24-Apr-2013

 --------------------------
 # td=(NStates=1) B3LYP/SVP
 --------------------------

 --
 TD
 --
 Symbolic Z-matrix:
 Charge =  0 Multiplicity = 1

                         Standard orientation:
 ---------------------------------------------------------------------
 Center     Atomic      Atomic             Coordinates (Angstroms)
 Number     Number       Type             X           Y           Z
 ---------------------------------------------------------------------
      1          6           0       -5.188856   -1.865047    0.564716
      2          6           0       -4.914969    2.787013    1.409648
      3          6           0       -9.513024    3.157540   -0.318411
      4          6           0       -9.859187   -1.603476   -1.027762
      5          7           0       -5.288304    0.440647    0.902508
      6          6           0       -4.572461   -0.675825    0.993262
      7          6           0       -3.085900   -0.530483    1.352317
      8          6           0       -3.131875    0.962556    1.814842
      9          6           0       -4.534536    1.452595    1.317192
     10          6           0       -3.090842    1.078554    3.489502
     11          6           0       -2.007045   -0.722700    0.174012
     12          6           0       -0.530165   -0.487526    0.605847
     13          6           0        0.428762   -0.806216   -0.473914
     14          8           0        0.072487   -1.114276   -1.575734
     15          8           0        1.623923   -0.595121   -0.016310
     16          7           0       -7.173839    2.685036    0.522823
     17          6           0       -6.071582    3.346075    1.041413
     18          6           0       -6.463822    4.790239    1.138523
     19          6           0       -7.607058    4.935462    0.469224
     20          6           0       -8.267795    3.532442    0.169474
     21          6           0       -5.607276    5.861588    1.610359
     22          6           0       -8.329663    6.157595    0.232257
     23          6           0       -9.343475    6.487371   -0.642371
     24          7           0       -9.295390    0.678757   -0.530024
     25          6           0       -9.975332    1.954508   -0.626365
     26          6           0      -11.247522    1.648268   -1.138871
     27          6           0      -11.454378    0.351834   -1.407133
     28          6           0      -10.205777   -0.236401   -0.924285
     29          6           0      -12.326344    2.764216   -1.270137
     30          6           0      -12.666862   -0.384856   -1.833684
     31          6           0      -12.482006   -0.625345   -3.426336
     32          7           0       -7.560182   -1.242417   -0.204513
     33          6           0       -8.504474   -2.100233   -0.725985
     34          6           0       -8.101377   -3.457661   -0.697722
     35          6           0       -6.832376   -3.370370   -0.249190
     36          6           0       -6.525358   -2.048363   -0.063350
     37          6           0       -8.951164   -4.713636   -1.065093
     38          6           0       -5.758452   -4.260756    0.069123
     39          8           0       -5.513643   -5.434670   -0.048588
     40          6           0       -4.454333   -3.325269    0.530806
     41          6           0       -3.977625   -3.746470    1.870045
     42          8           0       -4.055720   -3.208528    2.966167
     43          8           0       -3.041148   -4.786518    1.559753
     44          6           0       -2.516450   -5.468111    2.651300
     45          6           0        2.720272   -0.717827   -1.040093
     46          6           0        3.958688   -0.530412   -0.412301
     47          6           0        5.022490    0.183537   -0.957886
     48          6           0        4.982648    0.902402   -2.145657
     49          6           0        6.372504    0.244134   -0.220474
     50          6           0        7.525117   -0.380571   -0.879904
     51          6           0        8.762297   -0.284644    0.003800
     52          6           0       10.076480   -0.710380   -0.700226
     53          6           0       10.175525   -2.249414   -1.054837
     54          6           0       11.383198   -0.315770    0.093437
     55          6           0       12.708164   -0.542790   -0.616735
     56          6           0       13.858583   -0.077441    0.153278
     57          6           0       15.326909   -0.242882   -0.415298
     58          6           0       15.787264   -1.750542   -0.469750
     59          6           0       16.493365    0.559149    0.330554
     60          6           0       17.854019    0.563424   -0.364349
     61          6           0       18.730212    1.623255    0.529282
     62          6           0       20.210038    1.600571   -0.041057
     63          6           0       20.428731    2.038057   -1.474205
     64          6           0       21.078162    2.463428    0.990425
     65          1           0       -4.279742    3.485558    2.051883
     66          1           0      -10.081808    4.115642   -0.524552
     67          1           0      -10.425700   -2.257945   -1.371473
     68          1           0       -2.980170   -1.267920    2.147563
     69          1           0       -2.179546    1.583705    1.592519
     70          1           0       -2.122765    0.573471    3.795327
     71          1           0       -3.240369    2.164738    3.624635
     72          1           0       -3.892577    0.792463    3.938809
     73          1           0       -2.131369   -1.795800   -0.299617
     74          1           0       -2.345435   -0.034272   -0.445610
     75          1           0       -0.597013    0.549354    0.720282
     76          1           0       -0.544391   -0.964078    1.716514
     77          1           0       -4.602673    6.158965    1.078256
     78          1           0       -6.107729    6.861749    1.722320
     79          1           0       -5.443674    5.764793    2.748390
     80          1           0       -7.980328    7.047084    0.841196
     81          1           0       -9.861837    5.882554   -1.311314
     82          1           0       -9.639769    7.662800   -0.493087
     83          1           0      -12.282621    3.286446   -0.328466
     84          1           0      -11.947359    3.379498   -2.069279
     85          1           0      -13.544668    2.471297   -1.408121
     86          1           0      -12.714560   -1.343319   -1.265420
     87          1           0      -13.541587    0.269496   -1.715601
     88          1           0      -12.464785    0.181455   -3.876174
     89          1           0      -11.737870   -1.320948   -3.852060
     90          1           0      -13.519232   -1.129586   -3.733814
     91          1           0       -9.891404   -4.758009   -0.418418
     92          1           0       -9.401388   -4.668285   -2.053213
     93          1           0       -8.206118   -5.628275   -1.017152
     94          1           0       -3.616564   -3.294297   -0.351783
     95          1           0       -1.933032   -6.226891    2.099773
     96          1           0       -1.845317   -4.917563    3.266679
     97          1           0       -3.227368   -5.964972    3.381533
     98          1           0        2.569133   -1.718695   -1.451822
     99          1           0        2.527557    0.051163   -1.772796
    100          1           0        3.765464   -1.322804    0.448655
    101          1           0        5.194915    2.009106   -2.337263
    102          1           0        5.646185    0.210058   -2.707088
    103          1           0        4.020242    0.812312   -2.564028
    104          1           0        6.694520    1.317559   -0.175870
    105          1           0        6.359213   -0.045717    0.958301
    106          1           0        7.052484   -1.487591   -1.032288
    107          1           0        7.844748    0.181982   -1.689976
    108          1           0        8.881837    0.664766    0.248332
    109          1           0        8.683240   -1.049959    0.883866
    110          1           0        9.942870   -0.125279   -1.625091
    111          1           0        9.457838   -2.714207   -1.506629
    112          1           0       10.959751   -2.448917   -1.813946
    113          1           0       10.263858   -2.835902   -0.108150
    114          1           0       11.204743    0.867111    0.381149
    115          1           0       11.261770   -0.918649    1.093573
    116          1           0       13.011517   -1.727487   -1.011712
    117          1           0       12.583877    0.143763   -1.573524
    118          1           0       13.637751    0.915244    0.225621
    119          1           0       14.038082   -0.557195    1.123382
    120          1           0       15.328377    0.001499   -1.532648
    121          1           0       14.823709   -2.294178   -0.753711
    122          1           0       16.823736   -1.909835   -1.047185
    123          1           0       16.316415   -1.938776    0.628241
    124          1           0       16.052004    1.622249    0.377238
    125          1           0       16.715495    0.293790    1.315489
    126          1           0       18.232798   -0.376140   -0.249667
    127          1           0       17.840928    0.930848   -1.378520
    128          1           0       18.417804    2.740221    0.577092
    129          1           0       18.793343    1.188616    1.668381
    130          1           0       20.754874    0.589411    0.067402
    131          1           0       20.469206    3.396611   -1.583190
    132          1           0       21.541055    1.939305   -1.654441
    133          1           0       19.636105    1.515635   -2.234222
    134          1           0       21.085802    1.850033    1.735232
    135          1           0       22.237310    2.630294    0.976024
    136          1           0       20.449231    3.375573    1.068386
    137          1           0       -7.105857    1.674934    0.504068
    138          1           0       -7.850740   -0.217272   -0.112570
 ---------------------------------------------------------------------

 SCF Done:  E(RB3LYP) =  -2732.91976008     A.U. after   18 cycles

 Excitation energies and oscillator strengths:

 Excited State   1:      Singlet-A      2.0573 eV  602.67 nm  f=0.1629  <S**2>=0.000
     235 -> 238       -0.30784
     236 -> 237        0.62180
 This state for optimization and/or second-order correction.
 Total Energy, E(TD-HF/TD-KS) =  -2732.84415715
 Copying the excited state density for this state as the 1-particle RhoCI density.

 The electronic state is 1-A.
 Alpha  occ. eigenvalues --  -19.17840 -19.16091 -19.13405 -19.12550 -19.11738
 Alpha  occ. eigenvalues --  -14.37161 -14.36529 -14.32380 -14.30016 -10.31596
 Alpha  occ. eigenvalues --  -10.30780 -10.28052 -10.25117 -10.24174 -10.23960
 Alpha  occ. eigenvalues --  -10.23345 -10.23117 -10.22719 -10.22695 -10.22264
 Alpha  occ. eigenvalues --  -10.21728 -10.21698 -10.21312 -10.21285 -10.21247
 Alpha  occ. eigenvalues --  -10.21197 -10.21042 -10.21029 -10.21004 -10.20973
 Alpha  occ. eigenvalues --  -10.20898 -10.20894 -10.20874 -10.20868 -10.20855
 Alpha  occ. eigenvalues --  -10.20832 -10.20439 -10.20187 -10.20083 -10.19954
 Alpha  occ. eigenvalues --  -10.19951 -10.19858 -10.19715 -10.19700 -10.19698
 Alpha  occ. eigenvalues --  -10.19678 -10.19652 -10.19634 -10.19565 -10.19344
 Alpha  occ. eigenvalues --  -10.19184 -10.19030 -10.18573 -10.18469 -10.18406
 Alpha  occ. eigenvalues --  -10.18324 -10.18264 -10.18200 -10.17958 -10.17951
 Alpha  occ. eigenvalues --  -10.17701 -10.17425 -10.17140 -10.16929  -1.10270
 Alpha  occ. eigenvalues --   -1.07017  -1.03294  -1.01163  -1.00129  -0.99902
 Alpha  occ. eigenvalues --   -0.96747  -0.95249  -0.92887  -0.84873  -0.83466
 Alpha  occ. eigenvalues --   -0.82597  -0.82118  -0.81658  -0.81001  -0.80183
 Alpha  occ. eigenvalues --   -0.79987  -0.79572  -0.79324  -0.79084  -0.78158
 Alpha  occ. eigenvalues --   -0.76933  -0.76308  -0.75610  -0.75251  -0.74610
 Alpha  occ. eigenvalues --   -0.74123  -0.72780  -0.72317  -0.71794  -0.70450
 Alpha  occ. eigenvalues --   -0.69784  -0.68903  -0.68847  -0.68265  -0.67111
 Alpha  occ. eigenvalues --   -0.66857  -0.66591  -0.65903  -0.65379  -0.64910
 Alpha  occ. eigenvalues --   -0.64684  -0.63215  -0.62828  -0.62646  -0.61480
 Alpha  occ. eigenvalues --   -0.60637  -0.59097  -0.58505  -0.57817  -0.57536
 Alpha  occ. eigenvalues --   -0.56936  -0.56216  -0.55783  -0.55441  -0.55304
 Alpha  occ. eigenvalues --   -0.54726  -0.54213  -0.54075  -0.53913  -0.53073
 Alpha  occ. eigenvalues --   -0.52789  -0.51679  -0.51512  -0.50962  -0.50931
 Alpha  occ. eigenvalues --   -0.50234  -0.50118  -0.49261  -0.49124  -0.48669
 Alpha  occ. eigenvalues --   -0.48525  -0.48323  -0.47425  -0.47163  -0.47094
 Alpha  occ. eigenvalues --   -0.46906  -0.46341  -0.46110  -0.45691  -0.45554
 Alpha  occ. eigenvalues --   -0.45471  -0.45289  -0.45114  -0.44768  -0.44699
 Alpha  occ. eigenvalues --   -0.44596  -0.44417  -0.44182  -0.44011  -0.43529
 Alpha  occ. eigenvalues --   -0.43485  -0.43317  -0.43145  -0.42899  -0.42552
 Alpha  occ. eigenvalues --   -0.42432  -0.42219  -0.41930  -0.41738  -0.41430
 Alpha  occ. eigenvalues --   -0.41368  -0.41111  -0.40892  -0.40548  -0.40415
 Alpha  occ. eigenvalues --   -0.40155  -0.40053  -0.39969  -0.39648  -0.39365
 Alpha  occ. eigenvalues --   -0.39123  -0.39004  -0.38620  -0.38477  -0.37916
 Alpha  occ. eigenvalues --   -0.37831  -0.37768  -0.37670  -0.37651  -0.37452
 Alpha  occ. eigenvalues --   -0.37405  -0.37226  -0.37126  -0.37046  -0.36495
 Alpha  occ. eigenvalues --   -0.36369  -0.36249  -0.35851  -0.35766  -0.35501
 Alpha  occ. eigenvalues --   -0.35439  -0.35192  -0.35046  -0.34891  -0.34585
 Alpha  occ. eigenvalues --   -0.34308  -0.34048  -0.33873  -0.33796  -0.33595
 Alpha  occ. eigenvalues --   -0.33456  -0.33402  -0.32904  -0.32866  -0.32294
 Alpha  occ. eigenvalues --   -0.32214  -0.32080  -0.31741  -0.31488  -0.31266
 Alpha  occ. eigenvalues --   -0.31208  -0.30805  -0.30627  -0.30378  -0.29473
 Alpha  occ. eigenvalues --   -0.29131  -0.29069  -0.28099  -0.28036  -0.27968
 Alpha  occ. eigenvalues --   -0.27838  -0.27698  -0.27274  -0.26884  -0.26304
 Alpha  occ. eigenvalues --   -0.24445  -0.24297  -0.24256  -0.22590  -0.19666
 Alpha  occ. eigenvalues --   -0.18720
 Alpha virt. eigenvalues --   -0.10050  -0.07701  -0.04422  -0.02639  -0.01762
 Alpha virt. eigenvalues --   -0.01614   0.00522   0.01150   0.02249   0.03471
 Alpha virt. eigenvalues --    0.03667   0.04095   0.04148   0.04208   0.04583

 Mulliken charges:
               1
     1  C   -0.038598
     2  C   -0.091205
     3  C   -0.135059
     4  C    0.046869
     5  N   -0.135551
     6  C   -0.107864
     7  C    0.046703
     8  C   -0.166323
     9  C    0.043173
    10  C    0.110170
    11  C    0.073243
    12  C    0.020573
    13  C    0.181065
    14  O   -0.229586
    15  O   -0.308831
    16  N   -0.112012
    17  C    0.095068
    18  C   -0.091491
    19  C    0.088911
    20  C    0.066137
    21  C    0.027399
    22  C   -0.092647
    23  C   -0.047726
    24  N   -0.315786
    25  C    0.217620
    26  C   -0.153366
    27  C   -0.097106
    28  C    0.092106
    29  C    0.074426
    30  C    0.097500
    31  C    0.054403
    32  N   -0.006124
    33  C    0.009315
    34  C   -0.149032
    35  C    0.006007
    36  C    0.101107
    37  C    0.072590
    38  C    0.058825
    39  O   -0.145778
    40  C   -0.156457
    41  C    0.283609
    42  O   -0.221032
    43  O   -0.336367
    44  C    0.190498
    45  C    0.274343
    46  C   -0.116243
    47  C   -0.114604
    48  C    0.116623
    49  C    0.030992
    50  C    0.020232
    51  C    0.080918
    52  C   -0.090589
    53  C    0.096733
    54  C   -0.029262
    55  C   -0.023998
    56  C    0.114528
    57  C   -0.078091
    58  C   -0.069131
    59  C    0.027983
    60  C    0.093828
    61  C   -0.078800
    62  C   -0.125615
    63  C   -0.040573
    64  C    0.060936
    65  H    0.004486
    66  H   -0.018147
    67  H   -0.159894
    68  H    0.009090
    69  H    0.024288
    70  H    0.042484
    71  H   -0.008740
    72  H   -0.032856
    73  H    0.030165
    74  H   -0.033863
    75  H    0.002790
    76  H    0.057452
    77  H    0.060565
    78  H    0.003852
    79  H    0.025054
    80  H    0.008664
    81  H    0.012457
    82  H    0.047686
    83  H    0.021712
    84  H    0.017687
    85  H    0.039951
    86  H    0.019962
    87  H   -0.001606
    88  H   -0.051327
    89  H    0.027708
    90  H    0.001712
    91  H    0.036140
    92  H    0.020290
    93  H    0.067848
    94  H    0.119637
    95  H    0.023801
    96  H    0.000847
    97  H    0.024176
    98  H    0.033144
    99  H    0.006879
   100  H    0.019453
   101  H    0.048999
   102  H    0.034407
   103  H   -0.029976
   104  H   -0.018082
   105  H    0.022534
   106  H    0.025788
   107  H   -0.021700
   108  H   -0.052582
   109  H    0.003920
   110  H   -0.025299
   111  H   -0.057223
   112  H    0.009645
   113  H    0.002694
   114  H    0.015707
   115  H    0.012510
   116  H    0.032673
   117  H    0.008583
   118  H   -0.037682
   119  H   -0.002508
   120  H   -0.010710
   121  H    0.033074
   122  H    0.036146
   123  H    0.009310
   124  H   -0.006199
   125  H   -0.021556
   126  H   -0.021466
   127  H    0.008358
   128  H    0.031277
   129  H    0.020134
   130  H    0.006315
   131  H    0.002069
   132  H    0.025779
   133  H    0.049613
   134  H   -0.043902
   135  H    0.012736
   136  H    0.016441
   137  H    0.133461
   138  H    0.173582
 Sum of Mulliken charges =   0.00000

 Dipole moment (field-independent basis, Debye):
    X=              2.3168    Y=              4.9645    Z=             -0.1788  Tot=              5.4814
 Quadrupole moment (field-independent basis, Debye-Ang):
   XX=           -348.9239   YY=           -384.8883   ZZ=           -397.6763
   XY=            -24.7322   XZ=              9.1637   YZ=              3.3988

 Normal termination of Gaussian 09 at Fri Aug  2 20:26:33 2019.
