 Gaussian 09, Revision D.01,
 Gaussian 09:  ES64L-G09RevD.01 24-Apr-2013

 --------------------------
 # td=(NStates=1) B3LYP/SVP
 --------------------------

 --
 TD
 --
 Symbolic Z-matrix:
 Charge =  0 Multiplicity = 1

                         Standard orientation:
 ---------------------------------------------------------------------
 Center     Atomic      Atomic             Coordinates (Angstroms)
 Number     Number       Type             X           Y           Z
 ---------------------------------------------------------------------
      1          6           0       -5.036220   -1.971022    0.430090
      2          6           0       -4.733333    2.759233    1.399536
      3          6           0       -9.380448    3.358491   -0.183276
      4          6           0       -9.823694   -1.508360   -0.870621
      5          7           0       -5.094584    0.431180    0.830279
      6          6           0       -4.465413   -0.841244    0.846561
      7          6           0       -3.024601   -0.559957    1.219832
      8          6           0       -3.042575    0.961703    1.826604
      9          6           0       -4.455216    1.320121    1.285964
     10          6           0       -2.976202    0.822330    3.379608
     11          6           0       -2.020911   -0.661996   -0.116785
     12          6           0       -0.630416   -0.759233    0.370757
     13          6           0        0.322770   -0.957680   -0.701471
     14          8           0        0.042609   -1.340859   -1.797845
     15          8           0        1.660246   -0.767109   -0.386059
     16          7           0       -7.141479    2.733035    0.371200
     17          6           0       -5.972902    3.289024    1.007119
     18          6           0       -6.248577    4.747306    1.054507
     19          6           0       -7.569657    4.956099    0.466820
     20          6           0       -8.090327    3.617031    0.122356
     21          6           0       -5.402330    5.781202    1.713526
     22          6           0       -8.204146    6.270847    0.442909
     23          6           0       -9.301369    6.512286   -0.429576
     24          7           0       -9.184864    0.866854   -0.583996
     25          6           0       -9.802625    2.013144   -0.594979
     26          6           0      -11.300738    1.807162   -1.010913
     27          6           0      -11.462835    0.540724   -1.246789
     28          6           0      -10.120818   -0.129346   -0.866381
     29          6           0      -12.191863    2.908142   -1.197206
     30          6           0      -12.672450   -0.170589   -1.633531
     31          6           0      -12.620788   -0.505995   -3.103597
     32          7           0       -7.568759   -1.180638   -0.041041
     33          6           0       -8.672201   -1.967358   -0.550471
     34          6           0       -8.250610   -3.377739   -0.443998
     35          6           0       -6.923403   -3.342417   -0.133654
     36          6           0       -6.475208   -2.057309    0.058227
     37          6           0       -9.062017   -4.557730   -0.891214
     38          6           0       -5.732876   -4.200513    0.067005
     39          8           0       -5.689444   -5.400232   -0.066559
     40          6           0       -4.534899   -3.418132    0.470232
     41          6           0       -3.936940   -3.794115    1.718939
     42          8           0       -4.171699   -3.259343    2.749612
     43          8           0       -3.117779   -4.873364    1.566507
     44          6           0       -2.468044   -5.459964    2.754683
     45          6           0        2.709485   -1.058375   -1.281271
     46          6           0        4.083395   -0.604599   -0.618437
     47          6           0        5.044582    0.111359   -1.286932
     48          6           0        5.081239    0.590238   -2.704092
     49          6           0        6.351861    0.371365   -0.525486
     50          6           0        7.613838   -0.505089   -1.014954
     51          6           0        8.749391   -0.137957   -0.180773
     52          6           0       10.127899   -0.955691   -0.702252
     53          6           0       10.025374   -2.403957   -0.806981
     54          6           0       11.285896   -0.469581    0.099017
     55          6           0       12.688383   -0.581845   -0.557528
     56          6           0       13.831692    0.007719    0.320578
     57          6           0       15.269719   -0.160327   -0.228530
     58          6           0       15.671144   -1.624948   -0.262713
     59          6           0       16.334546    0.762124    0.546454
     60          6           0       17.773245    0.652774   -0.057521
     61          6           0       18.565300    1.698244    0.553498
     62          6           0       20.103057    1.725777    0.118035
     63          6           0       20.214130    2.115740   -1.328819
     64          6           0       20.887698    2.557851    1.023301
     65          1           0       -3.953839    3.309590    2.055390
     66          1           0       -9.961540    4.180978   -0.279549
     67          1           0      -10.621254   -2.344306   -1.021836
     68          1           0       -2.603783   -1.252769    1.969604
     69          1           0       -2.310529    1.516431    1.416992
     70          1           0       -2.007526    0.553678    3.856404
     71          1           0       -2.943302    1.785606    3.810848
     72          1           0       -3.773366    0.331806    3.882096
     73          1           0       -2.412054   -1.651865   -0.543932
     74          1           0       -2.082274    0.251822   -0.621676
     75          1           0       -0.254554    0.248256    0.781497
     76          1           0       -0.420425   -1.446826    1.177437
     77          1           0       -4.422304    5.944883    1.036621
     78          1           0       -5.975825    6.724967    1.955849
     79          1           0       -5.210454    5.590944    2.768914
     80          1           0       -7.781746    7.189401    1.058542
     81          1           0       -9.729129    5.789110   -1.240574
     82          1           0       -9.627255    7.470257   -0.286521
     83          1           0      -12.248876    3.620153   -0.361668
     84          1           0      -11.980037    3.538529   -2.143438
     85          1           0      -13.170847    2.635043   -1.298807
     86          1           0      -12.856123   -1.077896   -0.939002
     87          1           0      -13.531052    0.630235   -1.456090
     88          1           0      -12.482698    0.451968   -3.759590
     89          1           0      -11.768598   -0.929348   -3.188294
     90          1           0      -13.661622   -1.185755   -3.528919
     91          1           0      -10.112861   -4.337648   -0.414456
     92          1           0       -9.027829   -4.955840   -2.076619
     93          1           0       -8.416699   -5.552452   -0.347720
     94          1           0       -3.849393   -3.660277   -0.379712
     95          1           0       -1.815008   -6.018637    2.413132
     96          1           0       -1.820657   -4.649820    3.058001
     97          1           0       -3.239407   -5.775700    3.624755
     98          1           0        2.582664   -2.052314   -1.346203
     99          1           0        2.680387   -0.295963   -2.229049
    100          1           0        4.346274   -0.973658    0.210553
    101          1           0        5.055137    1.666517   -2.818936
    102          1           0        5.989229    0.123661   -3.292130
    103          1           0        4.106540    0.263177   -3.290735
    104          1           0        6.563676    1.418663   -0.595436
    105          1           0        6.229196    0.204113    0.652951
    106          1           0        7.254858   -1.499810   -0.932313
    107          1           0        7.715115   -0.170032   -2.035282
    108          1           0        8.862600    0.998039   -0.137955
    109          1           0        8.392825   -0.614570    0.948440
    110          1           0       10.406741   -0.740632   -1.756344
    111          1           0        9.094395   -2.688597   -1.378147
    112          1           0       10.992038   -2.821557   -1.286129
    113          1           0        9.967855   -3.129441    0.086993
    114          1           0       11.292374    0.738582    0.320521
    115          1           0       11.302125   -0.866772    1.202992
    116          1           0       12.664200   -1.659125   -0.959419
    117          1           0       12.734727   -0.036582   -1.737903
    118          1           0       13.445255    1.043315    0.533164
    119          1           0       13.732610   -0.478201    1.307165
    120          1           0       15.332459    0.201269   -1.324623
    121          1           0       15.017003   -2.253873   -1.038073
    122          1           0       16.709379   -1.558005   -0.623829
    123          1           0       15.591035   -1.946297    0.761959
    124          1           0       16.048336    1.792373    0.739160
    125          1           0       16.572082    0.160866    1.394634
    126          1           0       18.407063   -0.244063   -0.062125
    127          1           0       17.580163    0.986035   -1.221824
    128          1           0       18.190748    2.719145    0.422312
    129          1           0       18.504290    1.587963    1.691651
    130          1           0       20.342520    0.515306    0.492593
    131          1           0       19.787435    3.207610   -1.536393
    132          1           0       21.136171    2.145262   -1.617966
    133          1           0       19.576821    1.390115   -2.050685
    134          1           0       20.792355    2.361940    2.240204
    135          1           0       21.992332    2.531229    0.819689
    136          1           0       20.647149    3.592389    1.062048
    137          1           0       -7.418852    1.732449    0.130789
    138          1           0       -7.778083   -0.190613    0.123221
 ---------------------------------------------------------------------

 SCF Done:  E(RB3LYP) =  -2732.94095209     A.U. after   16 cycles

 Excitation energies and oscillator strengths:

 Excited State   1:      Singlet-A      2.0618 eV  601.34 nm  f=0.2100  <S**2>=0.000
     235 -> 237       -0.13540
     235 -> 238       -0.19326
     236 -> 237        0.64284
     236 -> 238       -0.16894
 This state for optimization and/or second-order correction.
 Total Energy, E(TD-HF/TD-KS) =  -2732.86518213
 Copying the excited state density for this state as the 1-particle RhoCI density.

 The electronic state is 1-A.
 Alpha  occ. eigenvalues --  -19.17207 -19.15404 -19.12429 -19.11448 -19.11368
 Alpha  occ. eigenvalues --  -14.37089 -14.36473 -14.31591 -14.30950 -10.31244
 Alpha  occ. eigenvalues --  -10.30473 -10.27279 -10.25275 -10.24577 -10.24258
 Alpha  occ. eigenvalues --  -10.23765 -10.23406 -10.22562 -10.22446 -10.22434
 Alpha  occ. eigenvalues --  -10.22303 -10.22258 -10.22038 -10.21894 -10.21376
 Alpha  occ. eigenvalues --  -10.21241 -10.21127 -10.21033 -10.20858 -10.20813
 Alpha  occ. eigenvalues --  -10.20593 -10.20576 -10.20459 -10.20456 -10.20372
 Alpha  occ. eigenvalues --  -10.20286 -10.20284 -10.20210 -10.20005 -10.19962
 Alpha  occ. eigenvalues --  -10.19929 -10.19922 -10.19601 -10.19470 -10.19416
 Alpha  occ. eigenvalues --  -10.19399 -10.19373 -10.19019 -10.18995 -10.18825
 Alpha  occ. eigenvalues --  -10.18762 -10.18571 -10.18484 -10.18421 -10.18373
 Alpha  occ. eigenvalues --  -10.18241 -10.18218 -10.18186 -10.18125 -10.17961
 Alpha  occ. eigenvalues --  -10.17891 -10.17825 -10.17683 -10.17630  -1.09103
 Alpha  occ. eigenvalues --   -1.08202  -1.02889  -1.01057  -0.99897  -0.97730
 Alpha  occ. eigenvalues --   -0.96679  -0.96022  -0.93873  -0.85632  -0.82234
 Alpha  occ. eigenvalues --   -0.81910  -0.81641  -0.81420  -0.80974  -0.80744
 Alpha  occ. eigenvalues --   -0.80617  -0.79862  -0.79729  -0.79502  -0.77418
 Alpha  occ. eigenvalues --   -0.77176  -0.76610  -0.76053  -0.75428  -0.74661
 Alpha  occ. eigenvalues --   -0.74403  -0.73058  -0.72710  -0.72096  -0.70938
 Alpha  occ. eigenvalues --   -0.70151  -0.69354  -0.69142  -0.67938  -0.67638
 Alpha  occ. eigenvalues --   -0.66932  -0.66508  -0.66264  -0.65447  -0.64950
 Alpha  occ. eigenvalues --   -0.64236  -0.62599  -0.62244  -0.61398  -0.60982
 Alpha  occ. eigenvalues --   -0.60497  -0.58802  -0.58227  -0.58058  -0.57487
 Alpha  occ. eigenvalues --   -0.56427  -0.56256  -0.55536  -0.55129  -0.54824
 Alpha  occ. eigenvalues --   -0.54092  -0.53927  -0.53587  -0.53278  -0.52896
 Alpha  occ. eigenvalues --   -0.52751  -0.52104  -0.51537  -0.51048  -0.50923
 Alpha  occ. eigenvalues --   -0.50430  -0.49720  -0.49484  -0.48540  -0.48360
 Alpha  occ. eigenvalues --   -0.48042  -0.47917  -0.47702  -0.47140  -0.46848
 Alpha  occ. eigenvalues --   -0.46680  -0.46569  -0.46189  -0.46110  -0.45634
 Alpha  occ. eigenvalues --   -0.45364  -0.45222  -0.44941  -0.44748  -0.44595
 Alpha  occ. eigenvalues --   -0.44385  -0.44225  -0.44151  -0.43878  -0.43747
 Alpha  occ. eigenvalues --   -0.43624  -0.43235  -0.42952  -0.42714  -0.42562
 Alpha  occ. eigenvalues --   -0.42366  -0.42232  -0.42137  -0.41906  -0.41620
 Alpha  occ. eigenvalues --   -0.41115  -0.41001  -0.40935  -0.40677  -0.40556
 Alpha  occ. eigenvalues --   -0.40242  -0.39880  -0.39800  -0.39606  -0.39403
 Alpha  occ. eigenvalues --   -0.39229  -0.38982  -0.38663  -0.38644  -0.38371
 Alpha  occ. eigenvalues --   -0.38269  -0.38177  -0.38056  -0.37864  -0.37765
 Alpha  occ. eigenvalues --   -0.37468  -0.37366  -0.37244  -0.36852  -0.36782
 Alpha  occ. eigenvalues --   -0.36641  -0.36510  -0.36448  -0.36103  -0.35788
 Alpha  occ. eigenvalues --   -0.35737  -0.35378  -0.35224  -0.35182  -0.34842
 Alpha  occ. eigenvalues --   -0.34529  -0.34034  -0.34024  -0.33700  -0.33677
 Alpha  occ. eigenvalues --   -0.33219  -0.33103  -0.32677  -0.32475  -0.32411
 Alpha  occ. eigenvalues --   -0.32168  -0.32138  -0.31255  -0.30944  -0.30867
 Alpha  occ. eigenvalues --   -0.30630  -0.30460  -0.30176  -0.29875  -0.29028
 Alpha  occ. eigenvalues --   -0.28945  -0.28740  -0.28258  -0.28212  -0.27539
 Alpha  occ. eigenvalues --   -0.27297  -0.26738  -0.26345  -0.25784  -0.24881
 Alpha  occ. eigenvalues --   -0.24698  -0.24461  -0.24166  -0.23096  -0.20604
 Alpha  occ. eigenvalues --   -0.18175
 Alpha virt. eigenvalues --   -0.09789  -0.07733  -0.04090  -0.02235  -0.00478
 Alpha virt. eigenvalues --    0.00140   0.00777   0.01174   0.02317   0.03366
 Alpha virt. eigenvalues --    0.03693   0.03820   0.03899   0.04345   0.04548

 Mulliken charges:
               1
     1  C    0.006177
     2  C   -0.118052
     3  C   -0.032609
     4  C   -0.137400
     5  N   -0.038458
     6  C   -0.051332
     7  C   -0.102377
     8  C   -0.016885
     9  C   -0.103750
    10  C    0.099710
    11  C    0.110754
    12  C    0.036758
    13  C    0.147088
    14  O   -0.217899
    15  O   -0.361561
    16  N   -0.103694
    17  C    0.209975
    18  C   -0.155623
    19  C    0.031601
    20  C    0.084791
    21  C    0.060938
    22  C   -0.113997
    23  C   -0.022658
    24  N   -0.243872
    25  C    0.054022
    26  C   -0.140378
    27  C   -0.082465
    28  C    0.050548
    29  C    0.132114
    30  C    0.023747
    31  C    0.048369
    32  N   -0.119684
    33  C    0.123873
    34  C   -0.143941
    35  C    0.056036
    36  C    0.121932
    37  C   -0.080153
    38  C   -0.010684
    39  O   -0.163916
    40  C    0.089426
    41  C    0.189675
    42  O   -0.191927
    43  O   -0.347317
    44  C    0.293130
    45  C    0.324390
    46  C    0.007025
    47  C   -0.127539
    48  C    0.017689
    49  C   -0.010494
    50  C    0.063639
    51  C   -0.016372
    52  C   -0.002095
    53  C   -0.029015
    54  C   -0.024579
    55  C   -0.081394
    56  C    0.081879
    57  C   -0.083595
    58  C    0.016409
    59  C    0.078214
    60  C   -0.019737
    61  C   -0.017964
    62  C   -0.114922
    63  C    0.073996
    64  C    0.015709
    65  H    0.028717
    66  H   -0.092916
    67  H    0.012783
    68  H    0.006102
    69  H   -0.048587
    70  H    0.004642
    71  H   -0.033527
    72  H    0.024743
    73  H    0.037423
    74  H   -0.002616
    75  H    0.029607
    76  H    0.025581
    77  H    0.062699
    78  H    0.008326
    79  H    0.024241
    80  H    0.041174
    81  H    0.073392
    82  H   -0.002368
    83  H    0.016175
    84  H    0.027285
    85  H   -0.041873
    86  H    0.025985
    87  H    0.010663
    88  H    0.016538
    89  H   -0.042591
    90  H    0.036103
    91  H    0.051552
    92  H    0.078468
    93  H    0.070673
    94  H    0.061212
    95  H   -0.051705
    96  H   -0.000929
    97  H    0.077634
    98  H   -0.023832
    99  H    0.041138
   100  H   -0.098164
   101  H    0.026137
   102  H    0.052102
   103  H    0.019796
   104  H   -0.009725
   105  H    0.005540
   106  H    0.004616
   107  H   -0.008916
   108  H    0.020480
   109  H    0.017072
   110  H   -0.006268
   111  H    0.018291
   112  H    0.018647
   113  H    0.005464
   114  H   -0.003630
   115  H    0.009639
   116  H   -0.000116
   117  H    0.000668
   118  H   -0.004928
   119  H   -0.011582
   120  H   -0.007057
   121  H    0.038643
   122  H    0.012983
   123  H    0.005664
   124  H    0.011335
   125  H   -0.018195
   126  H    0.016588
   127  H    0.002748
   128  H   -0.019439
   129  H   -0.013417
   130  H    0.009170
   131  H    0.017228
   132  H   -0.035118
   133  H    0.032010
   134  H    0.010511
   135  H    0.011075
   136  H   -0.012640
   137  H    0.169580
   138  H    0.140023
 Sum of Mulliken charges =   0.00000

 Dipole moment (field-independent basis, Debye):
    X=              2.8479    Y=              4.6517    Z=              1.9479  Tot=              5.7916
 Quadrupole moment (field-independent basis, Debye-Ang):
   XX=           -361.5522   YY=           -379.2833   ZZ=           -394.2290
   XY=            -23.6588   XZ=             -0.9024   YZ=             -2.1079

 Normal termination of Gaussian 09 at Tue Jul 30 12:13:25 2019.
