 Gaussian 09, Revision D.01,
 Gaussian 09:  ES64L-G09RevD.01 24-Apr-2013

 --------------------------
 # td=(NStates=1) B3LYP/SVP
 --------------------------

 --
 TD
 --
 Symbolic Z-matrix:
 Charge =  0 Multiplicity = 1

                         Standard orientation:
 ---------------------------------------------------------------------
 Center     Atomic      Atomic             Coordinates (Angstroms)
 Number     Number       Type             X           Y           Z
 ---------------------------------------------------------------------
      1          6           0       -5.147207   -1.908850    0.422725
      2          6           0       -4.641566    2.760925    1.452265
      3          6           0       -9.077103    3.409801   -0.288251
      4          6           0       -9.847473   -1.267073   -0.913238
      5          7           0       -5.098297    0.428648    0.893861
      6          6           0       -4.505588   -0.748176    0.722047
      7          6           0       -3.006664   -0.619981    1.235216
      8          6           0       -2.940406    0.810942    1.676471
      9          6           0       -4.270480    1.430115    1.268129
     10          6           0       -2.767010    0.932258    3.230284
     11          6           0       -2.033174   -0.894147    0.057061
     12          6           0       -0.628415   -0.887007    0.541925
     13          6           0        0.371022   -1.444152   -0.505989
     14          8           0        0.069628   -2.058440   -1.490709
     15          8           0        1.686317   -1.094190   -0.214585
     16          7           0       -6.905773    2.801616    0.503624
     17          6           0       -5.813993    3.390759    1.029635
     18          6           0       -6.120136    4.840494    1.102566
     19          6           0       -7.371332    5.015060    0.552854
     20          6           0       -7.861059    3.653088    0.170451
     21          6           0       -5.231116    5.922150    1.562158
     22          6           0       -8.038161    6.181661    0.465591
     23          6           0       -8.910783    6.609245   -0.462528
     24          7           0       -9.176211    1.010093   -0.526410
     25          6           0       -9.799863    2.122262   -0.684699
     26          6           0      -11.214539    2.036788   -1.006186
     27          6           0      -11.433716    0.756364   -1.164816
     28          6           0      -10.106502    0.067085   -0.917701
     29          6           0      -12.106783    3.169185   -1.031511
     30          6           0      -12.585793    0.080120   -1.774776
     31          6           0      -12.542169   -0.208727   -3.259874
     32          7           0       -7.514883   -1.224798   -0.202320
     33          6           0       -8.637564   -1.937368   -0.563339
     34          6           0       -8.286841   -3.351166   -0.604595
     35          6           0       -6.976535   -3.365148   -0.153271
     36          6           0       -6.422748   -2.038724    0.016811
     37          6           0       -9.234231   -4.441651   -0.795312
     38          6           0       -5.818666   -4.252107    0.166648
     39          8           0       -5.782819   -5.423140    0.096721
     40          6           0       -4.645718   -3.414513    0.428264
     41          6           0       -4.048051   -3.811516    1.778016
     42          8           0       -4.190412   -3.250087    2.833092
     43          8           0       -3.243025   -4.896105    1.620609
     44          6           0       -2.743310   -5.670304    2.645993
     45          6           0        2.770118   -1.327036   -1.202123
     46          6           0        4.005317   -0.897348   -0.498549
     47          6           0        4.955185   -0.138463   -0.995050
     48          6           0        4.878096    0.546436   -2.278201
     49          6           0        6.232813    0.123043   -0.202112
     50          6           0        7.361898   -0.437223   -0.963699
     51          6           0        8.786684   -0.362835   -0.291061
     52          6           0       10.032278   -0.835185   -1.062356
     53          6           0        9.953560   -2.397422   -1.405090
     54          6           0       11.341909   -0.574615   -0.306933
     55          6           0       12.744201   -0.489810   -1.040771
     56          6           0       13.768641    0.026636    0.085262
     57          6           0       15.294155   -0.152313   -0.462546
     58          6           0       15.688316   -1.705885   -0.291689
     59          6           0       16.226151    0.675590    0.417806
     60          6           0       17.594817    0.858731   -0.040910
     61          6           0       18.487108    1.686816    0.749916
     62          6           0       19.966768    1.910291    0.258486
     63          6           0       19.957818    2.666508   -1.112097
     64          6           0       20.887177    2.519241    1.349172
     65          1           0       -3.969060    3.301809    1.973797
     66          1           0       -9.633579    4.371256   -0.609113
     67          1           0      -10.817627   -1.845400   -1.118276
     68          1           0       -2.875811   -1.223254    2.101247
     69          1           0       -2.217508    1.400386    1.227660
     70          1           0       -1.857694    0.526135    3.568093
     71          1           0       -2.654363    1.874880    3.504186
     72          1           0       -3.667596    0.540254    3.765589
     73          1           0       -2.331724   -1.918468   -0.349063
     74          1           0       -2.404724   -0.251816   -0.633182
     75          1           0       -0.393580    0.213277    0.859055
     76          1           0       -0.496318   -1.504623    1.523275
     77          1           0       -4.325846    5.724317    0.740634
     78          1           0       -5.701899    6.790126    1.522054
     79          1           0       -4.847072    5.626139    2.501431
     80          1           0       -7.962754    6.930383    1.337440
     81          1           0       -9.019489    6.022650   -1.458338
     82          1           0       -9.408129    7.824726   -0.466434
     83          1           0      -12.338641    3.889265   -0.170922
     84          1           0      -12.032950    3.912598   -1.758799
     85          1           0      -13.059152    2.720993   -1.385484
     86          1           0      -12.708795   -0.911131   -1.173604
     87          1           0      -13.398857    0.653269   -1.572431
     88          1           0      -12.399349    0.751140   -4.110489
     89          1           0      -11.822632   -1.002380   -3.671745
     90          1           0      -13.566460   -0.604447   -3.655710
     91          1           0      -10.000059   -4.778791    0.065512
     92          1           0       -9.687274   -4.428371   -1.807618
     93          1           0       -8.612575   -5.578998   -0.812567
     94          1           0       -3.956962   -3.663781   -0.329261
     95          1           0       -2.394362   -6.709105    2.231691
     96          1           0       -2.151769   -5.009877    3.364986
     97          1           0       -3.599338   -5.912224    3.322637
     98          1           0        2.707700   -2.432186   -1.387426
     99          1           0        2.337056   -0.735934   -1.999525
    100          1           0        4.131072   -1.457301    0.482850
    101          1           0        5.322057    1.614467   -1.985968
    102          1           0        5.433105    0.080411   -3.131664
    103          1           0        3.704255    0.383992   -2.821005
    104          1           0        6.534969    1.263174   -0.260736
    105          1           0        6.180438   -0.229020    0.876744
    106          1           0        7.209856   -1.348896   -1.202622
    107          1           0        7.598165    0.153234   -1.918478
    108          1           0        8.881474    0.670316   -0.002079
    109          1           0        8.742228   -0.835729    0.717881
    110          1           0        9.832078   -0.232534   -2.021042
    111          1           0        9.110439   -2.638989   -1.961388
    112          1           0       10.916142   -2.779331   -1.871300
    113          1           0        9.934586   -2.974911   -0.408255
    114          1           0       11.249252    0.589591    0.120190
    115          1           0       11.576209   -0.926734    0.597159
    116          1           0       12.972680   -1.547244   -1.225346
    117          1           0       12.790776    0.133666   -1.919124
    118          1           0       13.705891    1.169124    0.157155
    119          1           0       13.487644   -0.478768    1.149376
    120          1           0       15.234259    0.066370   -1.588713
    121          1           0       15.064975   -2.501552   -0.723273
    122          1           0       16.605593   -1.937459   -0.881317
    123          1           0       15.837631   -2.016814    0.753620
    124          1           0       15.876784    1.740028    0.413057
    125          1           0       16.144438    0.346426    1.423830
    126          1           0       18.054400   -0.157529   -0.235507
    127          1           0       17.670977    1.073640   -1.200161
    128          1           0       17.996171    2.775478    0.979381
    129          1           0       18.663195    1.233731    1.736636
    130          1           0       20.107289    0.893842    0.011336
    131          1           0       19.383901    3.609169   -1.158118
    132          1           0       20.936897    3.014914   -1.453981
    133          1           0       19.362358    2.133955   -1.947364
    134          1           0       20.810276    1.781327    2.292902
    135          1           0       21.854023    2.703680    1.000900
    136          1           0       20.365364    3.455583    1.790874
    137          1           0       -6.901198    1.804021    0.317002
    138          1           0       -7.498855   -0.260439   -0.123911
 ---------------------------------------------------------------------

 SCF Done:  E(RB3LYP) =  -2733.09050252     A.U. after   16 cycles

 Excitation energies and oscillator strengths:

 Excited State   1:      Singlet-A      2.1682 eV  571.84 nm  f=0.2166  <S**2>=0.000
     235 -> 237       -0.12935
     235 -> 238       -0.26867
     236 -> 237        0.62958
     236 -> 238       -0.11417
 This state for optimization and/or second-order correction.
 Total Energy, E(TD-HF/TD-KS) =  -2733.01082352
 Copying the excited state density for this state as the 1-particle RhoCI density.

 The electronic state is 1-A.
 Alpha  occ. eigenvalues --  -19.16824 -19.15493 -19.12633 -19.12360 -19.11017
 Alpha  occ. eigenvalues --  -14.37146 -14.36226 -14.31402 -14.29769 -10.31875
 Alpha  occ. eigenvalues --  -10.31188 -10.26301 -10.25108 -10.24663 -10.24480
 Alpha  occ. eigenvalues --  -10.23209 -10.23108 -10.22636 -10.22243 -10.22100
 Alpha  occ. eigenvalues --  -10.21931 -10.21563 -10.21496 -10.21378 -10.21069
 Alpha  occ. eigenvalues --  -10.20984 -10.20780 -10.20757 -10.20725 -10.20574
 Alpha  occ. eigenvalues --  -10.20568 -10.20516 -10.20379 -10.20301 -10.20213
 Alpha  occ. eigenvalues --  -10.20179 -10.20162 -10.19904 -10.19841 -10.19551
 Alpha  occ. eigenvalues --  -10.19479 -10.19367 -10.19336 -10.19047 -10.18884
 Alpha  occ. eigenvalues --  -10.18805 -10.18708 -10.18614 -10.18589 -10.18544
 Alpha  occ. eigenvalues --  -10.18541 -10.18537 -10.18402 -10.18376 -10.18265
 Alpha  occ. eigenvalues --  -10.18144 -10.18070 -10.17979 -10.17967 -10.17960
 Alpha  occ. eigenvalues --  -10.17916 -10.17783 -10.17615 -10.17336  -1.09443
 Alpha  occ. eigenvalues --   -1.07145  -1.04356  -1.01163  -1.00054  -0.99417
 Alpha  occ. eigenvalues --   -0.97713  -0.95146  -0.94245  -0.85237  -0.83900
 Alpha  occ. eigenvalues --   -0.83695  -0.81972  -0.81681  -0.81295  -0.81083
 Alpha  occ. eigenvalues --   -0.80432  -0.79892  -0.78868  -0.78823  -0.77888
 Alpha  occ. eigenvalues --   -0.77264  -0.76212  -0.75912  -0.75231  -0.74782
 Alpha  occ. eigenvalues --   -0.73946  -0.73064  -0.72290  -0.71548  -0.71483
 Alpha  occ. eigenvalues --   -0.70007  -0.69589  -0.69101  -0.67941  -0.67322
 Alpha  occ. eigenvalues --   -0.67241  -0.66942  -0.66120  -0.65776  -0.65291
 Alpha  occ. eigenvalues --   -0.64422  -0.63459  -0.62348  -0.62008  -0.61651
 Alpha  occ. eigenvalues --   -0.61193  -0.59201  -0.58860  -0.58337  -0.57506
 Alpha  occ. eigenvalues --   -0.57300  -0.56300  -0.56264  -0.56004  -0.55728
 Alpha  occ. eigenvalues --   -0.55122  -0.54557  -0.54445  -0.53701  -0.53354
 Alpha  occ. eigenvalues --   -0.53034  -0.52332  -0.51895  -0.51290  -0.50775
 Alpha  occ. eigenvalues --   -0.50009  -0.49334  -0.49179  -0.48901  -0.48483
 Alpha  occ. eigenvalues --   -0.48045  -0.47630  -0.47625  -0.47033  -0.46654
 Alpha  occ. eigenvalues --   -0.46544  -0.46367  -0.46100  -0.45966  -0.45848
 Alpha  occ. eigenvalues --   -0.45581  -0.45397  -0.45290  -0.45070  -0.44769
 Alpha  occ. eigenvalues --   -0.44446  -0.44372  -0.44062  -0.43919  -0.43866
 Alpha  occ. eigenvalues --   -0.43647  -0.43475  -0.43134  -0.42923  -0.42625
 Alpha  occ. eigenvalues --   -0.42485  -0.42200  -0.41912  -0.41635  -0.41526
 Alpha  occ. eigenvalues --   -0.41184  -0.40778  -0.40539  -0.40500  -0.40419
 Alpha  occ. eigenvalues --   -0.40229  -0.40022  -0.39882  -0.39806  -0.39519
 Alpha  occ. eigenvalues --   -0.39190  -0.38997  -0.38890  -0.38545  -0.38373
 Alpha  occ. eigenvalues --   -0.38326  -0.38241  -0.38013  -0.37871  -0.37711
 Alpha  occ. eigenvalues --   -0.37323  -0.37246  -0.37071  -0.37062  -0.36643
 Alpha  occ. eigenvalues --   -0.36354  -0.36208  -0.36185  -0.36101  -0.35651
 Alpha  occ. eigenvalues --   -0.35533  -0.35369  -0.35193  -0.34633  -0.34550
 Alpha  occ. eigenvalues --   -0.34209  -0.33929  -0.33866  -0.33586  -0.33449
 Alpha  occ. eigenvalues --   -0.33366  -0.32734  -0.32632  -0.32575  -0.32432
 Alpha  occ. eigenvalues --   -0.32285  -0.32210  -0.32167  -0.31911  -0.31365
 Alpha  occ. eigenvalues --   -0.31079  -0.30929  -0.29982  -0.29335  -0.29270
 Alpha  occ. eigenvalues --   -0.29240  -0.28979  -0.28382  -0.28129  -0.27891
 Alpha  occ. eigenvalues --   -0.27833  -0.27123  -0.26567  -0.25682  -0.25621
 Alpha  occ. eigenvalues --   -0.25111  -0.24229  -0.23991  -0.23853  -0.20380
 Alpha  occ. eigenvalues --   -0.18157
 Alpha virt. eigenvalues --   -0.09261  -0.07623  -0.03867  -0.01610  -0.00081
 Alpha virt. eigenvalues --    0.00180   0.00529   0.01405   0.02367   0.03275
 Alpha virt. eigenvalues --    0.03623   0.04457   0.04528   0.04732   0.04876

 Mulliken charges:
               1
     1  C    0.099884
     2  C   -0.031554
     3  C   -0.125126
     4  C   -0.078223
     5  N   -0.172429
     6  C   -0.176753
     7  C   -0.016823
     8  C   -0.011672
     9  C   -0.031062
    10  C    0.132306
    11  C    0.102229
    12  C    0.009205
    13  C    0.197742
    14  O   -0.216799
    15  O   -0.385533
    16  N    0.027306
    17  C    0.102039
    18  C   -0.187509
    19  C    0.139531
    20  C    0.108997
    21  C    0.181723
    22  C   -0.148917
    23  C   -0.132761
    24  N   -0.172306
    25  C   -0.013767
    26  C   -0.075694
    27  C   -0.088690
    28  C    0.019467
    29  C    0.109980
    30  C    0.134044
    31  C   -0.077282
    32  N   -0.008076
    33  C    0.069599
    34  C   -0.098740
    35  C    0.000527
    36  C    0.060629
    37  C   -0.045518
    38  C    0.010317
    39  O   -0.128012
    40  C    0.043472
    41  C    0.189566
    42  O   -0.206291
    43  O   -0.292380
    44  C    0.156095
    45  C    0.284753
    46  C   -0.096586
    47  C   -0.090877
    48  C   -0.011700
    49  C    0.065665
    50  C    0.044883
    51  C    0.017311
    52  C    0.000346
    53  C    0.024361
    54  C    0.010263
    55  C    0.071328
    56  C   -0.072870
    57  C   -0.088758
    58  C    0.005727
    59  C    0.103224
    60  C    0.019090
    61  C   -0.002318
    62  C   -0.058207
    63  C    0.000240
    64  C    0.037511
    65  H   -0.087107
    66  H   -0.009719
    67  H   -0.003172
    68  H   -0.001979
    69  H   -0.037550
    70  H   -0.008019
    71  H   -0.046153
    72  H    0.035194
    73  H    0.018669
    74  H   -0.029902
    75  H    0.041400
    76  H    0.049960
    77  H    0.053204
    78  H   -0.019713
    79  H    0.019685
    80  H    0.030109
    81  H    0.053907
    82  H    0.059710
    83  H    0.030444
    84  H   -0.016246
    85  H   -0.017050
    86  H    0.014833
    87  H   -0.030999
    88  H    0.026744
    89  H    0.030278
    90  H    0.020814
    91  H    0.064730
    92  H    0.034221
    93  H    0.046801
    94  H    0.044812
    95  H    0.065675
    96  H    0.028262
    97  H    0.010521
    98  H    0.033827
    99  H    0.016354
   100  H    0.003724
   101  H    0.044454
   102  H    0.046457
   103  H    0.029376
   104  H    0.009425
   105  H    0.014664
   106  H   -0.058829
   107  H    0.003874
   108  H   -0.026688
   109  H   -0.023769
   110  H   -0.002974
   111  H    0.002346
   112  H    0.017023
   113  H    0.005883
   114  H   -0.019020
   115  H   -0.052409
   116  H   -0.000884
   117  H    0.004391
   118  H    0.013310
   119  H    0.026829
   120  H    0.010577
   121  H   -0.000767
   122  H    0.005233
   123  H    0.008347
   124  H   -0.012483
   125  H   -0.016684
   126  H   -0.028060
   127  H   -0.015536
   128  H   -0.001168
   129  H   -0.015411
   130  H   -0.017674
   131  H   -0.010042
   132  H    0.002882
   133  H    0.013707
   134  H    0.019664
   135  H    0.013895
   136  H    0.020260
   137  H    0.136356
   138  H    0.091050
 Sum of Mulliken charges =   0.00000

 Dipole moment (field-independent basis, Debye):
    X=              2.5063    Y=              4.7297    Z=              0.2177  Tot=              5.3571
 Quadrupole moment (field-independent basis, Debye-Ang):
   XX=           -350.2950   YY=           -380.4626   ZZ=           -392.0918
   XY=            -32.4441   XZ=              8.8907   YZ=             -1.6124

 Normal termination of Gaussian 09 at Mon Jul 29 08:50:39 2019.
