 Gaussian 09, Revision D.01,
 Gaussian 09:  ES64L-G09RevD.01 24-Apr-2013

 --------------------------
 # td=(NStates=1) B3LYP/SVP
 --------------------------

 --
 TD
 --
 Symbolic Z-matrix:
 Charge =  0 Multiplicity = 1

                         Standard orientation:
 ---------------------------------------------------------------------
 Center     Atomic      Atomic             Coordinates (Angstroms)
 Number     Number       Type             X           Y           Z
 ---------------------------------------------------------------------
      1          6           0       -5.136142   -1.953197    0.641545
      2          6           0       -4.800312    2.728650    1.468979
      3          6           0       -9.377150    3.253620   -0.240599
      4          6           0       -9.866709   -1.546217   -0.761319
      5          7           0       -5.197751    0.421687    0.848245
      6          6           0       -4.503843   -0.753155    0.846889
      7          6           0       -3.072521   -0.451693    1.234138
      8          6           0       -3.072455    0.900522    1.748007
      9          6           0       -4.369283    1.352844    1.275266
     10          6           0       -2.954643    0.941841    3.280941
     11          6           0       -2.033698   -0.646466    0.075521
     12          6           0       -0.609218   -0.682914    0.478526
     13          6           0        0.349616   -0.956220   -0.679472
     14          8           0       -0.001609   -1.384758   -1.701260
     15          8           0        1.675488   -0.632975   -0.371628
     16          7           0       -7.028004    2.654869    0.346906
     17          6           0       -5.913382    3.327014    0.896110
     18          6           0       -6.205131    4.799650    0.906788
     19          6           0       -7.519895    4.977482    0.489469
     20          6           0       -8.060162    3.588944    0.185776
     21          6           0       -5.260048    5.905060    1.509350
     22          6           0       -8.210865    6.136775    0.340035
     23          6           0       -9.020428    6.651573   -0.699799
     24          7           0       -9.211318    0.797441   -0.503263
     25          6           0       -9.940425    1.937461   -0.583276
     26          6           0      -11.224756    1.773967   -0.973541
     27          6           0      -11.462526    0.449058   -1.100005
     28          6           0      -10.182074   -0.158700   -0.785275
     29          6           0      -12.308505    2.876380   -1.122799
     30          6           0      -12.723068   -0.341825   -1.456465
     31          6           0      -12.768593   -0.670043   -2.955457
     32          7           0       -7.562251   -1.280704    0.030198
     33          6           0       -8.655896   -2.104387   -0.405265
     34          6           0       -8.167058   -3.476462   -0.496913
     35          6           0       -6.826768   -3.406185   -0.030579
     36          6           0       -6.481494   -2.044991    0.120928
     37          6           0       -8.969543   -4.641604   -0.995460
     38          6           0       -5.781184   -4.260256    0.134797
     39          8           0       -5.625815   -5.442346   -0.089403
     40          6           0       -4.516232   -3.315924    0.490736
     41          6           0       -3.856782   -3.741752    1.782307
     42          8           0       -4.055374   -3.168784    2.905755
     43          8           0       -2.896952   -4.710156    1.603363
     44          6           0       -2.167601   -5.079403    2.661443
     45          6           0        2.745151   -1.063625   -1.385877
     46          6           0        4.059865   -0.779605   -0.901141
     47          6           0        4.942998    0.209888   -1.420574
     48          6           0        4.775057    0.930090   -2.791167
     49          6           0        6.221817    0.291975   -0.603209
     50          6           0        7.497801   -0.492839   -1.078923
     51          6           0        8.731264   -0.165741   -0.209250
     52          6           0       10.035199   -0.792334   -0.855383
     53          6           0        9.987094   -2.321684   -0.903883
     54          6           0       11.229508   -0.226635   -0.108405
     55          6           0       12.733227   -0.468309   -0.665983
     56          6           0       13.853074    0.013170    0.116042
     57          6           0       15.233763   -0.240043   -0.396927
     58          6           0       15.598196   -1.685104   -0.439808
     59          6           0       16.284776    0.546110    0.521079
     60          6           0       17.721685    0.628075    0.036300
     61          6           0       18.645580    1.488040    0.902860
     62          6           0       20.013401    1.641704    0.329304
     63          6           0       20.199235    2.079341   -1.105583
     64          6           0       20.969132    2.506463    1.236193
     65          1           0       -4.045821    3.461414    1.940576
     66          1           0       -9.987819    4.213068   -0.305485
     67          1           0      -10.719877   -2.191369   -1.077827
     68          1           0       -2.720226   -1.222251    1.836077
     69          1           0       -2.401829    1.623572    1.285312
     70          1           0       -2.238124    0.606199    3.738662
     71          1           0       -3.284099    2.019150    3.546644
     72          1           0       -3.805928    0.473928    3.879174
     73          1           0       -2.493487   -1.604678   -0.559318
     74          1           0       -2.287769    0.160981   -0.690615
     75          1           0       -0.400125    0.292591    0.891862
     76          1           0       -0.438899   -1.363379    1.116347
     77          1           0       -4.100992    5.867035    1.242293
     78          1           0       -5.583788    7.006914    1.145767
     79          1           0       -5.400455    5.904706    2.675032
     80          1           0       -8.016830    6.810561    1.010042
     81          1           0       -9.338357    6.094652   -1.480127
     82          1           0       -9.186265    7.913443   -0.490753
     83          1           0      -12.312560    3.526908   -0.074295
     84          1           0      -12.043658    3.537978   -1.839960
     85          1           0      -13.312716    2.647697   -1.224068
     86          1           0      -12.694410   -1.424521   -0.805813
     87          1           0      -13.633507    0.106255   -0.992950
     88          1           0      -12.945282    0.155363   -3.650280
     89          1           0      -11.696170   -1.041128   -3.289455
     90          1           0      -13.668173   -1.500296   -3.154897
     91          1           0       -9.979081   -4.995803   -0.499577
     92          1           0       -9.188728   -4.481321   -2.128531
     93          1           0       -8.468710   -5.634793   -0.891866
     94          1           0       -3.841480   -3.437571   -0.403789
     95          1           0       -1.844255   -5.970014    2.341630
     96          1           0       -1.338054   -4.302291    3.039469
     97          1           0       -2.848832   -5.371860    3.626908
     98          1           0        2.509372   -2.014939   -1.628263
     99          1           0        2.373034   -0.608153   -2.277393
    100          1           0        4.043620   -1.223563    0.117662
    101          1           0        4.904560    1.980038   -2.932722
    102          1           0        5.474856    0.454428   -3.465831
    103          1           0        3.964162    0.847912   -3.463617
    104          1           0        6.587371    1.147033   -0.485738
    105          1           0        6.079638   -0.228141    0.393022
    106          1           0        7.167521   -1.575680   -0.889082
    107          1           0        7.714294   -0.204857   -2.105846
    108          1           0        8.729434    0.875497   -0.116121
    109          1           0        8.662414   -0.512348    0.704246
    110          1           0       10.226921   -0.513305   -1.817227
    111          1           0        9.276405   -2.629402   -1.627882
    112          1           0       11.025454   -2.624318   -1.221970
    113          1           0        9.685179   -2.648792    0.197980
    114          1           0       11.116891    0.876950    0.163271
    115          1           0       11.467637   -0.714127    0.997024
    116          1           0       12.693432   -1.576712   -0.876778
    117          1           0       12.765859   -0.035732   -1.780856
    118          1           0       13.714112    1.090943   -0.025516
    119          1           0       13.658075   -0.401101    1.123688
    120          1           0       15.153236    0.098989   -1.342885
    121          1           0       14.818270   -2.405772   -0.975331
    122          1           0       16.504824   -2.027169   -0.996366
    123          1           0       15.938993   -2.200495    0.652373
    124          1           0       16.039770    1.524732    0.604951
    125          1           0       16.408559    0.150696    1.483658
    126          1           0       18.350043   -0.448108   -0.000795
    127          1           0       17.568986    1.166835   -0.964609
    128          1           0       18.224170    2.514816    0.975843
    129          1           0       18.836074    1.093540    1.928440
    130          1           0       20.502296    0.635352    0.463068
    131          1           0       19.849464    3.043926   -1.373784
    132          1           0       21.376329    2.052461   -1.300521
    133          1           0       19.672637    1.438946   -2.057523
    134          1           0       20.985559    2.033260    2.382976
    135          1           0       21.947817    2.602155    0.732280
    136          1           0       20.499038    3.437831    1.384274
    137          1           0       -7.236836    1.574102    0.463007
    138          1           0       -7.638083   -0.180069    0.031534
 ---------------------------------------------------------------------

 SCF Done:  E(RB3LYP) =  -2732.98641490     A.U. after   17 cycles

 Excitation energies and oscillator strengths:

 Excited State   1:      Singlet-A      2.0906 eV  593.04 nm  f=0.1229  <S**2>=0.000
     235 -> 237       -0.18982
     235 -> 238       -0.29185
     236 -> 237        0.58018
     236 -> 238       -0.18784
 This state for optimization and/or second-order correction.
 Total Energy, E(TD-HF/TD-KS) =  -2732.90958534
 Copying the excited state density for this state as the 1-particle RhoCI density.

 The electronic state is 1-A.
 Alpha  occ. eigenvalues --  -19.18139 -19.15594 -19.12423 -19.12211 -19.11318
 Alpha  occ. eigenvalues --  -14.37417 -14.37402 -14.32172 -14.30039 -10.31940
 Alpha  occ. eigenvalues --  -10.30701 -10.26547 -10.24926 -10.24435 -10.24181
 Alpha  occ. eigenvalues --  -10.23622 -10.23405 -10.23329 -10.23077 -10.23026
 Alpha  occ. eigenvalues --  -10.22631 -10.22398 -10.22314 -10.22241 -10.21952
 Alpha  occ. eigenvalues --  -10.21328 -10.21227 -10.21078 -10.21047 -10.20953
 Alpha  occ. eigenvalues --  -10.20880 -10.20733 -10.20479 -10.20473 -10.20330
 Alpha  occ. eigenvalues --  -10.19920 -10.19867 -10.19826 -10.19744 -10.19649
 Alpha  occ. eigenvalues --  -10.19619 -10.19590 -10.19462 -10.19439 -10.19408
 Alpha  occ. eigenvalues --  -10.19096 -10.18973 -10.18906 -10.18849 -10.18802
 Alpha  occ. eigenvalues --  -10.18781 -10.18707 -10.18652 -10.18645 -10.18510
 Alpha  occ. eigenvalues --  -10.18375 -10.18233 -10.18174 -10.18064 -10.18019
 Alpha  occ. eigenvalues --  -10.17838 -10.17668 -10.17261 -10.16992  -1.09774
 Alpha  occ. eigenvalues --   -1.08310  -1.02086  -0.99335  -0.98432  -0.97837
 Alpha  occ. eigenvalues --   -0.96533  -0.95676  -0.94015  -0.84970  -0.82917
 Alpha  occ. eigenvalues --   -0.82796  -0.82479  -0.82253  -0.81054  -0.80631
 Alpha  occ. eigenvalues --   -0.80419  -0.79375  -0.79059  -0.78984  -0.78166
 Alpha  occ. eigenvalues --   -0.77003  -0.76033  -0.75632  -0.75489  -0.74054
 Alpha  occ. eigenvalues --   -0.73736  -0.73403  -0.72434  -0.72239  -0.70966
 Alpha  occ. eigenvalues --   -0.69559  -0.69491  -0.68921  -0.68476  -0.67762
 Alpha  occ. eigenvalues --   -0.67245  -0.66783  -0.66285  -0.66043  -0.65162
 Alpha  occ. eigenvalues --   -0.64723  -0.63984  -0.62742  -0.61755  -0.61379
 Alpha  occ. eigenvalues --   -0.60834  -0.58995  -0.58667  -0.57893  -0.57294
 Alpha  occ. eigenvalues --   -0.56745  -0.56052  -0.55727  -0.55581  -0.55292
 Alpha  occ. eigenvalues --   -0.55048  -0.54762  -0.54685  -0.54269  -0.54251
 Alpha  occ. eigenvalues --   -0.53038  -0.52024  -0.51583  -0.51235  -0.50347
 Alpha  occ. eigenvalues --   -0.50065  -0.49632  -0.49231  -0.49171  -0.48857
 Alpha  occ. eigenvalues --   -0.48429  -0.48080  -0.47841  -0.47603  -0.47413
 Alpha  occ. eigenvalues --   -0.47269  -0.46621  -0.46165  -0.46010  -0.45791
 Alpha  occ. eigenvalues --   -0.45418  -0.45344  -0.45123  -0.44788  -0.44445
 Alpha  occ. eigenvalues --   -0.44248  -0.44171  -0.43968  -0.43739  -0.43569
 Alpha  occ. eigenvalues --   -0.43251  -0.43015  -0.42853  -0.42770  -0.42539
 Alpha  occ. eigenvalues --   -0.42369  -0.42154  -0.42098  -0.41680  -0.41362
 Alpha  occ. eigenvalues --   -0.41190  -0.41086  -0.40966  -0.40870  -0.40282
 Alpha  occ. eigenvalues --   -0.39993  -0.39801  -0.39772  -0.39426  -0.39060
 Alpha  occ. eigenvalues --   -0.39056  -0.38673  -0.38536  -0.38336  -0.38267
 Alpha  occ. eigenvalues --   -0.38172  -0.38049  -0.37954  -0.37736  -0.37583
 Alpha  occ. eigenvalues --   -0.37481  -0.37345  -0.37253  -0.36948  -0.36595
 Alpha  occ. eigenvalues --   -0.36533  -0.36255  -0.36093  -0.35857  -0.35621
 Alpha  occ. eigenvalues --   -0.35465  -0.34957  -0.34876  -0.34819  -0.34788
 Alpha  occ. eigenvalues --   -0.34617  -0.34330  -0.34291  -0.33849  -0.33819
 Alpha  occ. eigenvalues --   -0.33735  -0.33275  -0.32660  -0.32590  -0.32438
 Alpha  occ. eigenvalues --   -0.32181  -0.32164  -0.31755  -0.31711  -0.31467
 Alpha  occ. eigenvalues --   -0.30908  -0.30611  -0.30592  -0.29850  -0.29512
 Alpha  occ. eigenvalues --   -0.29476  -0.29402  -0.29133  -0.28511  -0.28048
 Alpha  occ. eigenvalues --   -0.27915  -0.27518  -0.27342  -0.26248  -0.25860
 Alpha  occ. eigenvalues --   -0.24350  -0.24246  -0.24083  -0.23046  -0.19857
 Alpha  occ. eigenvalues --   -0.18951
 Alpha virt. eigenvalues --   -0.10011  -0.08335  -0.04883  -0.02994  -0.02845
 Alpha virt. eigenvalues --   -0.01745   0.00206   0.01648   0.02319   0.03230
 Alpha virt. eigenvalues --    0.03500   0.03740   0.04147   0.04390   0.04790

 Mulliken charges:
               1
     1  C   -0.009932
     2  C   -0.101482
     3  C   -0.108389
     4  C   -0.081873
     5  N   -0.161674
     6  C   -0.019407
     7  C    0.049556
     8  C    0.065147
     9  C   -0.067406
    10  C    0.161669
    11  C   -0.090289
    12  C    0.235616
    13  C    0.141391
    14  O   -0.178972
    15  O   -0.400188
    16  N   -0.148293
    17  C    0.128440
    18  C   -0.092055
    19  C    0.142455
    20  C    0.045785
    21  C   -0.033010
    22  C   -0.099524
    23  C   -0.016692
    24  N   -0.269588
    25  C    0.113772
    26  C   -0.145823
    27  C   -0.071816
    28  C    0.027826
    29  C    0.152263
    30  C    0.007346
    31  C   -0.032243
    32  N   -0.088045
    33  C    0.112531
    34  C   -0.070319
    35  C    0.029003
    36  C    0.075432
    37  C    0.009347
    38  C    0.006793
    39  O   -0.171682
    40  C   -0.089648
    41  C    0.254294
    42  O   -0.280797
    43  O   -0.257487
    44  C    0.149606
    45  C    0.340886
    46  C   -0.098207
    47  C   -0.048651
    48  C    0.079627
    49  C    0.152194
    50  C   -0.018469
    51  C    0.119111
    52  C   -0.004161
    53  C    0.024026
    54  C   -0.053630
    55  C   -0.054626
    56  C    0.097037
    57  C    0.058937
    58  C   -0.063381
    59  C    0.138532
    60  C   -0.045316
    61  C    0.043550
    62  C   -0.091065
    63  C   -0.036244
    64  C    0.012533
    65  H    0.002050
    66  H   -0.012960
    67  H   -0.008355
    68  H   -0.038374
    69  H   -0.007493
    70  H   -0.059754
    71  H   -0.003007
    72  H    0.016988
    73  H    0.031456
    74  H   -0.001220
    75  H    0.013010
    76  H   -0.045845
    77  H    0.056576
    78  H    0.043839
    79  H    0.059040
    80  H   -0.052916
    81  H   -0.001337
    82  H    0.062036
    83  H    0.022554
    84  H   -0.012556
    85  H   -0.009754
    86  H    0.021789
    87  H    0.016837
    88  H    0.019574
    89  H    0.033012
    90  H    0.032961
    91  H    0.044224
    92  H    0.047784
    93  H    0.037005
    94  H    0.075300
    95  H    0.000424
    96  H    0.037346
    97  H    0.031579
    98  H   -0.025767
    99  H   -0.021011
   100  H    0.012971
   101  H    0.012906
   102  H    0.012475
   103  H   -0.009050
   104  H   -0.084440
   105  H    0.004372
   106  H    0.012117
   107  H   -0.001612
   108  H   -0.028105
   109  H   -0.053397
   110  H   -0.040432
   111  H    0.010562
   112  H    0.018865
   113  H    0.022982
   114  H   -0.000862
   115  H   -0.006950
   116  H   -0.004191
   117  H   -0.016612
   118  H   -0.010014
   119  H   -0.006654
   120  H   -0.057733
   121  H    0.019709
   122  H    0.010993
   123  H    0.013715
   124  H   -0.050532
   125  H   -0.028515
   126  H    0.017023
   127  H    0.003690
   128  H   -0.018223
   129  H   -0.003574
   130  H   -0.004815
   131  H   -0.000707
   132  H    0.020997
   133  H    0.028013
   134  H    0.018843
   135  H    0.020185
   136  H   -0.008610
   137  H    0.201490
   138  H    0.193766
 Sum of Mulliken charges =   0.00000

 Dipole moment (field-independent basis, Debye):
    X=              2.4608    Y=              5.9039    Z=             -0.4770  Tot=              6.4139
 Quadrupole moment (field-independent basis, Debye-Ang):
   XX=           -352.9904   YY=           -382.5178   ZZ=           -393.8697
   XY=            -19.6038   XZ=              4.0327   YZ=              1.2501

 Normal termination of Gaussian 09 at Fri Jul 26 11:57:40 2019.
