 Gaussian 09, Revision D.01,
 Gaussian 09:  ES64L-G09RevD.01 24-Apr-2013

 --------------------------
 # td=(NStates=1) B3LYP/SVP
 --------------------------

 --
 TD
 --
 Symbolic Z-matrix:
 Charge =  0 Multiplicity = 1

                         Standard orientation:
 ---------------------------------------------------------------------
 Center     Atomic      Atomic             Coordinates (Angstroms)
 Number     Number       Type             X           Y           Z
 ---------------------------------------------------------------------
      1          6           0       -5.104694   -1.957052    0.562238
      2          6           0       -4.724079    2.801881    1.209666
      3          6           0       -9.328154    3.348891   -0.182841
      4          6           0       -9.755692   -1.415778   -0.911818
      5          7           0       -5.187328    0.489117    0.827868
      6          6           0       -4.469784   -0.737355    0.860711
      7          6           0       -2.985152   -0.536701    1.229530
      8          6           0       -3.019244    1.013571    1.723742
      9          6           0       -4.421697    1.406592    1.385456
     10          6           0       -2.842884    1.183065    3.192044
     11          6           0       -2.073525   -0.854393    0.107326
     12          6           0       -0.620195   -0.693901    0.363955
     13          6           0        0.332656   -1.137306   -0.620022
     14          8           0        0.106526   -1.667503   -1.632713
     15          8           0        1.643050   -0.976915   -0.222603
     16          7           0       -7.043829    2.712759    0.416899
     17          6           0       -6.000669    3.413480    0.859236
     18          6           0       -6.260540    4.789350    0.932126
     19          6           0       -7.639274    4.973904    0.529684
     20          6           0       -8.169423    3.621994    0.137136
     21          6           0       -5.289938    5.833826    1.345577
     22          6           0       -8.320479    6.251110    0.458391
     23          6           0       -9.235808    6.573173   -0.494402
     24          7           0       -9.176238    0.831015   -0.436258
     25          6           0       -9.902296    2.034995   -0.484157
     26          6           0      -11.298265    1.832006   -0.922007
     27          6           0      -11.417307    0.531363   -1.184530
     28          6           0      -10.060491   -0.088175   -0.951792
     29          6           0      -12.420317    2.807034   -1.036451
     30          6           0      -12.624127   -0.221154   -1.796255
     31          6           0      -12.450173   -0.405125   -3.210848
     32          7           0       -7.527436   -1.283236   -0.148529
     33          6           0       -8.607550   -2.101267   -0.519110
     34          6           0       -8.141149   -3.368365   -0.595483
     35          6           0       -6.776178   -3.391076   -0.205778
     36          6           0       -6.441552   -2.050400    0.015266
     37          6           0       -8.998431   -4.584765   -0.814231
     38          6           0       -5.603990   -4.229662    0.153848
     39          8           0       -5.646754   -5.514008    0.050900
     40          6           0       -4.435446   -3.265985    0.524816
     41          6           0       -3.910071   -3.723291    1.806322
     42          8           0       -4.250357   -3.304269    2.884458
     43          8           0       -2.879445   -4.686883    1.755332
     44          6           0       -2.423139   -5.369934    2.924944
     45          6           0        2.707143   -1.244763   -1.177521
     46          6           0        4.025350   -0.817796   -0.592768
     47          6           0        4.952666   -0.158489   -1.246859
     48          6           0        4.921563    0.546807   -2.583539
     49          6           0        6.285527    0.083902   -0.501248
     50          6           0        7.600090   -0.416694   -1.130865
     51          6           0        8.816021   -0.269625   -0.202183
     52          6           0       10.050128   -0.832104   -0.753578
     53          6           0       10.040597   -2.347951   -1.074404
     54          6           0       11.391312   -0.358385    0.015154
     55          6           0       12.725987   -0.555547   -0.843094
     56          6           0       13.874332   -0.188374    0.157372
     57          6           0       15.248974   -0.255083   -0.387076
     58          6           0       15.695326   -1.692675   -0.653742
     59          6           0       16.185561    0.603582    0.462808
     60          6           0       17.604433    0.818978   -0.123541
     61          6           0       18.440287    1.693837    0.810499
     62          6           0       19.966677    1.861543    0.312643
     63          6           0       19.979695    2.560333   -1.110218
     64          6           0       20.807851    2.608254    1.319533
     65          1           0       -3.915889    3.379161    1.520121
     66          1           0      -10.200723    4.167016   -0.207575
     67          1           0      -10.459062   -2.176068   -1.009116
     68          1           0       -2.777742   -1.214817    1.934115
     69          1           0       -2.226856    1.623931    0.945933
     70          1           0       -1.933702    0.796484    3.553785
     71          1           0       -2.832665    2.459937    3.418075
     72          1           0       -3.533005    0.688106    3.782050
     73          1           0       -2.279416   -1.865276   -0.350236
     74          1           0       -2.142342   -0.069145   -0.912829
     75          1           0       -0.330766    0.249797    0.789792
     76          1           0       -0.375027   -1.383717    1.218316
     77          1           0       -4.575883    6.355408    0.352491
     78          1           0       -5.846533    6.818978    1.953958
     79          1           0       -4.542290    5.583589    2.344716
     80          1           0       -7.851118    7.212528    0.954552
     81          1           0       -9.495807    5.782809   -1.092573
     82          1           0       -9.607578    7.740778   -0.514639
     83          1           0      -12.541636    3.309120   -0.133029
     84          1           0      -12.321569    3.787416   -1.731309
     85          1           0      -13.505004    2.121493   -1.048158
     86          1           0      -12.720543   -1.211171   -1.402521
     87          1           0      -13.605334    0.469932   -1.450232
     88          1           0      -12.294447    0.596077   -3.790971
     89          1           0      -11.539411   -0.924706   -3.547040
     90          1           0      -13.478357   -0.857672   -3.725153
     91          1           0       -9.754924   -4.457259   -0.243393
     92          1           0       -9.199131   -4.913916   -2.010030
     93          1           0       -8.567417   -5.494620   -0.665224
     94          1           0       -3.625351   -3.330242    0.006598
     95          1           0       -1.805658   -6.154795    2.622540
     96          1           0       -2.171331   -4.557958    3.882853
     97          1           0       -3.381025   -5.626296    3.314180
     98          1           0        2.650227   -2.314082   -1.322981
     99          1           0        2.496835   -0.711500   -2.123635
    100          1           0        4.150237   -1.196567    0.423240
    101          1           0        5.273789    1.561346   -2.284927
    102          1           0        5.772613    0.139193   -3.139271
    103          1           0        3.894515    0.273810   -2.843348
    104          1           0        6.413126    1.210526   -0.391956
    105          1           0        5.984086   -0.324649    0.495163
    106          1           0        7.283575   -1.487489   -1.278678
    107          1           0        7.793315   -0.164713   -2.147040
    108          1           0        9.073140    0.900395   -0.324150
    109          1           0        8.559639   -0.673746    0.814525
    110          1           0       10.208530   -0.430923   -1.752730
    111          1           0        9.561644   -2.828569   -1.897026
    112          1           0       11.247903   -2.501637   -1.177428
    113          1           0        9.585406   -2.675373   -0.152920
    114          1           0       11.297986    0.728515    0.250319
    115          1           0       11.438651   -0.927290    0.975659
    116          1           0       12.911767   -1.546516   -1.323768
    117          1           0       12.558148    0.194843   -1.734503
    118          1           0       13.617816    0.922072    0.559574
    119          1           0       13.654755   -0.909060    1.077182
    120          1           0       15.037922    0.436660   -1.342048
    121          1           0       15.090624   -2.235092   -1.415689
    122          1           0       16.777385   -1.803720   -1.089878
    123          1           0       15.942182   -2.197971    0.316815
    124          1           0       15.574046    1.517588    0.436344
    125          1           0       16.293234    0.471344    1.614966
    126          1           0       18.042824   -0.189950   -0.398379
    127          1           0       17.496738    1.406315   -1.083474
    128          1           0       17.948998    2.547507    1.001583
    129          1           0       18.644867    1.479030    1.740200
    130          1           0       20.237226    0.749111    0.055169
    131          1           0       19.619778    3.446201   -0.867826
    132          1           0       20.992140    2.562066   -1.620431
    133          1           0       19.325162    1.998179   -1.839153
    134          1           0       20.649124    2.320004    2.346998
    135          1           0       21.966765    2.623215    1.146662
    136          1           0       20.556397    3.740995    1.329185
    137          1           0       -7.034171    1.619372    0.289576
    138          1           0       -7.674522   -0.231113    0.077207
 ---------------------------------------------------------------------

 SCF Done:  E(RB3LYP) =  -2732.93557067     A.U. after   18 cycles

 Excitation energies and oscillator strengths:

 Excited State   1:      Singlet-A      2.1359 eV  580.47 nm  f=0.1262  <S**2>=0.000
     235 -> 237       -0.36758
     235 -> 238        0.26024
     236 -> 237        0.48423
     236 -> 238        0.24179
 This state for optimization and/or second-order correction.
 Total Energy, E(TD-HF/TD-KS) =  -2732.85707677
 Copying the excited state density for this state as the 1-particle RhoCI density.

 The electronic state is 1-A.
 Alpha  occ. eigenvalues --  -19.16536 -19.15524 -19.12628 -19.11977 -19.11830
 Alpha  occ. eigenvalues --  -14.37312 -14.36400 -14.32677 -14.31660 -10.31807
 Alpha  occ. eigenvalues --  -10.30600 -10.28631 -10.24895 -10.24785 -10.24659
 Alpha  occ. eigenvalues --  -10.24190 -10.23958 -10.23495 -10.23175 -10.23115
 Alpha  occ. eigenvalues --  -10.22994 -10.22561 -10.22464 -10.22270 -10.21882
 Alpha  occ. eigenvalues --  -10.21802 -10.21616 -10.21479 -10.21286 -10.21245
 Alpha  occ. eigenvalues --  -10.21003 -10.20786 -10.20752 -10.20461 -10.20441
 Alpha  occ. eigenvalues --  -10.20387 -10.20153 -10.20089 -10.20003 -10.19748
 Alpha  occ. eigenvalues --  -10.19734 -10.19708 -10.19694 -10.19607 -10.19412
 Alpha  occ. eigenvalues --  -10.19366 -10.19345 -10.19319 -10.19242 -10.19212
 Alpha  occ. eigenvalues --  -10.19153 -10.18951 -10.18949 -10.18910 -10.18711
 Alpha  occ. eigenvalues --  -10.18675 -10.18570 -10.18422 -10.18362 -10.18184
 Alpha  occ. eigenvalues --  -10.18096 -10.17839 -10.16868 -10.15995  -1.09391
 Alpha  occ. eigenvalues --   -1.08079  -1.00358  -0.99965  -0.98938  -0.97892
 Alpha  occ. eigenvalues --   -0.97184  -0.94179  -0.93185  -0.86246  -0.83099
 Alpha  occ. eigenvalues --   -0.82891  -0.82570  -0.81982  -0.81445  -0.80879
 Alpha  occ. eigenvalues --   -0.80730  -0.80543  -0.79613  -0.79413  -0.78783
 Alpha  occ. eigenvalues --   -0.77304  -0.76702  -0.76151  -0.75952  -0.74638
 Alpha  occ. eigenvalues --   -0.74273  -0.73281  -0.72554  -0.71682  -0.71164
 Alpha  occ. eigenvalues --   -0.69978  -0.69463  -0.68472  -0.68206  -0.67921
 Alpha  occ. eigenvalues --   -0.67669  -0.67316  -0.66228  -0.65828  -0.65392
 Alpha  occ. eigenvalues --   -0.65055  -0.63323  -0.62484  -0.61922  -0.61137
 Alpha  occ. eigenvalues --   -0.60467  -0.59163  -0.58494  -0.58046  -0.57471
 Alpha  occ. eigenvalues --   -0.56882  -0.55570  -0.55364  -0.55142  -0.55126
 Alpha  occ. eigenvalues --   -0.54866  -0.54656  -0.54127  -0.53472  -0.53408
 Alpha  occ. eigenvalues --   -0.53367  -0.52337  -0.52238  -0.51366  -0.50988
 Alpha  occ. eigenvalues --   -0.50232  -0.50031  -0.49520  -0.48843  -0.48388
 Alpha  occ. eigenvalues --   -0.48117  -0.47863  -0.47435  -0.47318  -0.47215
 Alpha  occ. eigenvalues --   -0.46802  -0.46381  -0.46183  -0.46068  -0.45959
 Alpha  occ. eigenvalues --   -0.45768  -0.45440  -0.44883  -0.44779  -0.44658
 Alpha  occ. eigenvalues --   -0.44457  -0.44404  -0.44289  -0.43992  -0.43821
 Alpha  occ. eigenvalues --   -0.43597  -0.43251  -0.43201  -0.43100  -0.42868
 Alpha  occ. eigenvalues --   -0.42667  -0.42585  -0.42437  -0.42388  -0.42010
 Alpha  occ. eigenvalues --   -0.41427  -0.41245  -0.40977  -0.40868  -0.40291
 Alpha  occ. eigenvalues --   -0.40203  -0.39970  -0.39936  -0.39784  -0.39321
 Alpha  occ. eigenvalues --   -0.39236  -0.39120  -0.38985  -0.38679  -0.38619
 Alpha  occ. eigenvalues --   -0.38542  -0.38383  -0.38155  -0.37941  -0.37819
 Alpha  occ. eigenvalues --   -0.37604  -0.37548  -0.37433  -0.37128  -0.37002
 Alpha  occ. eigenvalues --   -0.36572  -0.36342  -0.36187  -0.35921  -0.35503
 Alpha  occ. eigenvalues --   -0.35282  -0.34908  -0.34825  -0.34815  -0.34619
 Alpha  occ. eigenvalues --   -0.34586  -0.34247  -0.34041  -0.33779  -0.33426
 Alpha  occ. eigenvalues --   -0.33157  -0.32849  -0.32583  -0.32042  -0.31900
 Alpha  occ. eigenvalues --   -0.31787  -0.31656  -0.31650  -0.31381  -0.31228
 Alpha  occ. eigenvalues --   -0.30724  -0.30329  -0.30080  -0.29923  -0.29563
 Alpha  occ. eigenvalues --   -0.29196  -0.28616  -0.28562  -0.28480  -0.28370
 Alpha  occ. eigenvalues --   -0.27962  -0.27769  -0.27619  -0.26295  -0.25617
 Alpha  occ. eigenvalues --   -0.25234  -0.24726  -0.24155  -0.23981  -0.20269
 Alpha  occ. eigenvalues --   -0.19489
 Alpha virt. eigenvalues --   -0.10617  -0.08387  -0.05078  -0.02789  -0.00510
 Alpha virt. eigenvalues --    0.00060   0.00764   0.01239   0.01577   0.02048
 Alpha virt. eigenvalues --    0.02272   0.03106   0.03573   0.04299   0.04445

 Mulliken charges:
               1
     1  C   -0.018635
     2  C   -0.041091
     3  C   -0.191297
     4  C   -0.007427
     5  N   -0.199716
     6  C   -0.077010
     7  C    0.139468
     8  C   -0.124158
     9  C    0.017277
    10  C    0.098383
    11  C   -0.044103
    12  C    0.078630
    13  C    0.141110
    14  O   -0.182848
    15  O   -0.374264
    16  N   -0.144555
    17  C    0.121489
    18  C   -0.044322
    19  C    0.037454
    20  C    0.269323
    21  C   -0.125364
    22  C   -0.086807
    23  C   -0.031787
    24  N   -0.286467
    25  C    0.023813
    26  C   -0.100782
    27  C   -0.103406
    28  C    0.114537
    29  C    0.044646
    30  C    0.106008
    31  C   -0.041080
    32  N   -0.087542
    33  C   -0.000924
    34  C   -0.139860
    35  C    0.022792
    36  C    0.081254
    37  C    0.166796
    38  C    0.086589
    39  O   -0.244012
    40  C    0.166082
    41  C    0.145206
    42  O   -0.212266
    43  O   -0.358539
    44  C    0.192626
    45  C    0.290244
    46  C   -0.094626
    47  C   -0.187034
    48  C    0.156596
    49  C    0.045810
    50  C    0.003090
    51  C    0.054385
    52  C   -0.070203
    53  C    0.011675
    54  C    0.009617
    55  C   -0.027502
    56  C   -0.062243
    57  C   -0.018365
    58  C    0.026540
    59  C   -0.017916
    60  C    0.044696
    61  C    0.132809
    62  C   -0.133946
    63  C    0.048175
    64  C    0.017620
    65  H   -0.056439
    66  H    0.027278
    67  H   -0.051305
    68  H   -0.052925
    69  H    0.052270
    70  H   -0.003181
    71  H    0.029741
    72  H    0.012299
    73  H    0.034201
    74  H    0.022844
    75  H    0.016010
    76  H    0.021786
    77  H    0.073917
    78  H    0.047862
    79  H    0.060487
    80  H    0.025601
    81  H    0.005482
    82  H    0.064129
    83  H   -0.001677
    84  H    0.041526
    85  H    0.037829
    86  H   -0.004339
    87  H    0.020845
    88  H    0.010253
    89  H    0.023821
    90  H    0.028779
    91  H   -0.013794
    92  H    0.029369
    93  H   -0.014314
    94  H   -0.035515
    95  H    0.041216
    96  H    0.039745
    97  H    0.015743
    98  H    0.012405
    99  H    0.011866
   100  H   -0.008868
   101  H    0.022553
   102  H    0.018927
   103  H    0.013642
   104  H   -0.002687
   105  H   -0.006103
   106  H   -0.009543
   107  H   -0.013437
   108  H    0.009082
   109  H    0.009155
   110  H   -0.032784
   111  H    0.017346
   112  H    0.015119
   113  H   -0.006586
   114  H    0.002956
   115  H    0.000806
   116  H    0.023432
   117  H    0.010779
   118  H    0.011027
   119  H    0.008058
   120  H   -0.000928
   121  H    0.025547
   122  H    0.006293
   123  H    0.015160
   124  H   -0.018255
   125  H    0.003035
   126  H    0.006817
   127  H    0.004257
   128  H   -0.056571
   129  H   -0.070433
   130  H    0.005281
   131  H   -0.026400
   132  H    0.013076
   133  H    0.013160
   134  H    0.004281
   135  H    0.022947
   136  H    0.008145
   137  H    0.192917
   138  H    0.180341
 Sum of Mulliken charges =   0.00000

 Dipole moment (field-independent basis, Debye):
    X=              1.2642    Y=              5.8727    Z=              0.9512  Tot=              6.0821
 Quadrupole moment (field-independent basis, Debye-Ang):
   XX=           -350.1209   YY=           -385.7234   ZZ=           -397.3927
   XY=            -32.2609   XZ=              5.3182   YZ=             -0.2243

 Normal termination of Gaussian 09 at Mon Jul 29 05:28:16 2019.
