 Gaussian 09, Revision D.01,
 Gaussian 09:  ES64L-G09RevD.01 24-Apr-2013

 --------------------------
 # td=(NStates=1) B3LYP/SVP
 --------------------------

 --
 TD
 --
 Symbolic Z-matrix:
 Charge =  0 Multiplicity = 1

                         Standard orientation:
 ---------------------------------------------------------------------
 Center     Atomic      Atomic             Coordinates (Angstroms)
 Number     Number       Type             X           Y           Z
 ---------------------------------------------------------------------
      1          6           0       -5.172789   -1.915491    0.513401
      2          6           0       -4.623661    2.784056    1.188347
      3          6           0       -9.307756    3.298584   -0.183928
      4          6           0       -9.800644   -1.398461   -0.866868
      5          7           0       -5.127938    0.453344    0.852527
      6          6           0       -4.551644   -0.740422    0.787777
      7          6           0       -3.017858   -0.604554    1.211660
      8          6           0       -2.971501    0.908660    1.759369
      9          6           0       -4.391311    1.438796    1.261787
     10          6           0       -2.840299    1.005450    3.261948
     11          6           0       -2.090061   -0.861455    0.042044
     12          6           0       -0.618131   -0.826975    0.558747
     13          6           0        0.334263   -1.126462   -0.604505
     14          8           0        0.092607   -1.548648   -1.777595
     15          8           0        1.662960   -0.867163   -0.248091
     16          7           0       -7.030692    2.737395    0.373030
     17          6           0       -5.896923    3.434616    0.894566
     18          6           0       -6.187119    4.764815    0.999964
     19          6           0       -7.527803    4.980403    0.630143
     20          6           0       -8.051526    3.615314    0.187875
     21          6           0       -5.256796    5.859005    1.505350
     22          6           0       -8.233001    6.232224    0.496675
     23          6           0       -9.041174    6.614492   -0.531195
     24          7           0       -9.087508    0.912221   -0.520257
     25          6           0       -9.862924    1.987810   -0.557116
     26          6           0      -11.183520    1.937682   -0.894144
     27          6           0      -11.317420    0.565515   -1.103257
     28          6           0      -10.078006   -0.045371   -0.816406
     29          6           0      -12.153952    2.990321   -1.123572
     30          6           0      -12.555220   -0.159756   -1.577651
     31          6           0      -12.631312   -0.536824   -3.128615
     32          7           0       -7.512682   -1.255729   -0.097410
     33          6           0       -8.671529   -2.005239   -0.484840
     34          6           0       -8.141287   -3.361549   -0.518980
     35          6           0       -6.899809   -3.384802   -0.035781
     36          6           0       -6.504121   -2.065319    0.184473
     37          6           0       -9.034729   -4.538842   -0.956571
     38          6           0       -5.737686   -4.288204    0.185643
     39          8           0       -5.605935   -5.441387    0.196597
     40          6           0       -4.582264   -3.392806    0.514228
     41          6           0       -3.853222   -3.779094    1.792773
     42          8           0       -4.113624   -3.213300    2.869737
     43          8           0       -3.105714   -4.878129    1.592139
     44          6           0       -2.457453   -5.358321    2.680287
     45          6           0        2.596884   -1.032506   -1.293592
     46          6           0        3.922917   -0.813109   -0.772600
     47          6           0        4.897225   -0.058945   -1.330986
     48          6           0        4.872144    0.498892   -2.748940
     49          6           0        6.269895    0.198543   -0.703373
     50          6           0        7.509400   -0.450468   -1.249799
     51          6           0        8.788520   -0.273633   -0.351270
     52          6           0       10.144768   -0.816170   -0.970168
     53          6           0       10.074667   -2.343320   -1.275141
     54          6           0       11.258850   -0.471081   -0.003409
     55          6           0       12.630705   -0.736718   -0.544257
     56          6           0       13.773781   -0.057523    0.307713
     57          6           0       15.288074   -0.306661   -0.327807
     58          6           0       15.622767   -1.720746   -0.088663
     59          6           0       16.228282    0.534915    0.546387
     60          6           0       17.672165    0.571269   -0.050979
     61          6           0       18.430669    1.796602    0.633419
     62          6           0       19.966875    1.924092    0.184093
     63          6           0       20.132997    2.395772   -1.152711
     64          6           0       20.673854    2.806115    1.365950
     65          1           0       -3.835259    3.587954    1.418986
     66          1           0      -10.024885    4.158657   -0.326143
     67          1           0      -10.688073   -2.071519   -1.110624
     68          1           0       -2.922968   -1.170420    1.886872
     69          1           0       -2.229083    1.365673    1.247493
     70          1           0       -2.004584    0.611253    3.585717
     71          1           0       -3.022548    2.104281    3.633272
     72          1           0       -3.805017    0.444860    3.816886
     73          1           0       -2.214234   -1.897288   -0.393026
     74          1           0       -2.262221    0.133967   -0.669294
     75          1           0       -0.415940    0.139872    1.066671
     76          1           0       -0.388294   -1.486591    1.437545
     77          1           0       -4.737618    5.977464    0.481499
     78          1           0       -5.942023    6.708174    1.814737
     79          1           0       -4.875939    5.334333    2.303943
     80          1           0       -8.025508    7.054331    1.217652
     81          1           0       -9.391273    5.802583   -1.411170
     82          1           0       -9.104860    7.784937   -0.333372
     83          1           0      -12.161587    3.676757   -0.276776
     84          1           0      -11.712981    3.691272   -1.995711
     85          1           0      -13.270356    2.896172   -1.589001
     86          1           0      -12.619015   -1.047925   -0.900778
     87          1           0      -13.484802    0.478346   -1.291951
     88          1           0      -13.066139    0.410122   -3.738337
     89          1           0      -11.684282   -0.966601   -3.400674
     90          1           0      -13.552671   -1.091301   -3.309406
     91          1           0      -10.124031   -4.655110   -0.453925
     92          1           0       -9.072922   -4.493455   -2.080310
     93          1           0       -8.429049   -5.419713   -0.596975
     94          1           0       -3.694816   -3.576416   -0.164591
     95          1           0       -1.670477   -6.163091    2.242144
     96          1           0       -1.977610   -4.666030    3.130412
     97          1           0       -3.044759   -5.673641    3.646319
     98          1           0        2.285885   -2.009968   -1.894164
     99          1           0        2.522744   -0.298735   -2.207136
    100          1           0        4.149688   -1.312023    0.143938
    101          1           0        5.262133    1.583558   -2.620507
    102          1           0        5.474626   -0.099748   -3.498739
    103          1           0        3.867830    0.510928   -3.229737
    104          1           0        6.418419    1.207916   -0.538482
    105          1           0        6.206896   -0.300774    0.463211
    106          1           0        7.476749   -1.667878   -1.429203
    107          1           0        7.739243    0.088462   -2.230563
    108          1           0        9.096923    0.850704   -0.235829
    109          1           0        8.858754   -0.635407    0.717427
    110          1           0       10.425017   -0.371342   -1.944959
    111          1           0        9.209429   -2.436777   -2.076710
    112          1           0       11.003750   -2.767275   -1.841214
    113          1           0       10.042485   -2.883928   -0.386962
    114          1           0       11.163224    0.584765    0.131312
    115          1           0       11.058696   -0.688725    0.990909
    116          1           0       12.638287   -1.790359   -0.807926
    117          1           0       12.678107   -0.336550   -1.600323
    118          1           0       13.758254    1.221661    0.225742
    119          1           0       14.017516   -0.199548    1.423040
    120          1           0       15.339257   -0.076781   -1.372115
    121          1           0       14.889293   -2.354646   -0.384985
    122          1           0       16.736421   -2.022453   -0.520692
    123          1           0       15.549451   -1.935032    0.874166
    124          1           0       15.805078    1.523961    0.818663
    125          1           0       16.077027    0.194441    1.600433
    126          1           0       18.301885   -0.198906    0.344601
    127          1           0       17.585375    0.698218   -1.078214
    128          1           0       17.806922    2.788725    0.467713
    129          1           0       18.290650    1.791576    1.917538
    130          1           0       20.387785    0.871369    0.568679
    131          1           0       19.693035    3.358700   -1.248729
    132          1           0       21.180761    2.447357   -1.358203
    133          1           0       19.530556    1.703412   -1.941375
    134          1           0       20.572159    2.338851    2.258802
    135          1           0       21.754871    2.893718    1.041339
    136          1           0       20.257351    3.851737    1.220066
    137          1           0       -7.051945    1.765453    0.356923
    138          1           0       -7.806877   -0.250837   -0.008315
 ---------------------------------------------------------------------

 SCF Done:  E(RB3LYP) =  -2732.98164832     A.U. after   16 cycles

 Excitation energies and oscillator strengths:

 Excited State   1:      Singlet-A      2.1661 eV  572.39 nm  f=0.0817  <S**2>=0.000
     235 -> 237        0.26166
     235 -> 238       -0.33205
     236 -> 237        0.52011
     236 -> 238        0.21609
 This state for optimization and/or second-order correction.
 Total Energy, E(TD-HF/TD-KS) =  -2732.90204589
 Copying the excited state density for this state as the 1-particle RhoCI density.

 The electronic state is 1-A.
 Alpha  occ. eigenvalues --  -19.19833 -19.17796 -19.13319 -19.13209 -19.12645
 Alpha  occ. eigenvalues --  -14.36207 -14.35899 -14.31177 -14.29846 -10.32738
 Alpha  occ. eigenvalues --  -10.32553 -10.27928 -10.24668 -10.24488 -10.23964
 Alpha  occ. eigenvalues --  -10.23402 -10.23058 -10.22585 -10.22501 -10.22316
 Alpha  occ. eigenvalues --  -10.22068 -10.21918 -10.21442 -10.21376 -10.21240
 Alpha  occ. eigenvalues --  -10.21126 -10.21103 -10.20931 -10.20839 -10.20759
 Alpha  occ. eigenvalues --  -10.20751 -10.20750 -10.20611 -10.20399 -10.20259
 Alpha  occ. eigenvalues --  -10.20210 -10.20162 -10.20098 -10.20030 -10.19967
 Alpha  occ. eigenvalues --  -10.19879 -10.19810 -10.19802 -10.19787 -10.19692
 Alpha  occ. eigenvalues --  -10.19547 -10.19484 -10.19290 -10.19205 -10.18934
 Alpha  occ. eigenvalues --  -10.18874 -10.18491 -10.18382 -10.18244 -10.18087
 Alpha  occ. eigenvalues --  -10.18043 -10.18039 -10.17859 -10.17844 -10.17777
 Alpha  occ. eigenvalues --  -10.17659 -10.17629 -10.16373 -10.15834  -1.11941
 Alpha  occ. eigenvalues --   -1.07953  -1.06449  -1.00945  -0.98576  -0.98409
 Alpha  occ. eigenvalues --   -0.97348  -0.94922  -0.94542  -0.85256  -0.82633
 Alpha  occ. eigenvalues --   -0.82201  -0.81664  -0.81317  -0.80942  -0.80645
 Alpha  occ. eigenvalues --   -0.80304  -0.79850  -0.79329  -0.79296  -0.77847
 Alpha  occ. eigenvalues --   -0.77266  -0.76636  -0.75973  -0.74700  -0.74503
 Alpha  occ. eigenvalues --   -0.74080  -0.72999  -0.72335  -0.71434  -0.71182
 Alpha  occ. eigenvalues --   -0.70185  -0.69954  -0.69031  -0.68042  -0.67708
 Alpha  occ. eigenvalues --   -0.67208  -0.66717  -0.65814  -0.65629  -0.64949
 Alpha  occ. eigenvalues --   -0.64396  -0.63145  -0.62324  -0.61906  -0.61534
 Alpha  occ. eigenvalues --   -0.60666  -0.59715  -0.59186  -0.58404  -0.58257
 Alpha  occ. eigenvalues --   -0.57455  -0.57237  -0.56726  -0.55832  -0.55164
 Alpha  occ. eigenvalues --   -0.54746  -0.54374  -0.53687  -0.53418  -0.53256
 Alpha  occ. eigenvalues --   -0.52974  -0.52083  -0.51364  -0.50835  -0.50744
 Alpha  occ. eigenvalues --   -0.50239  -0.49491  -0.49107  -0.48767  -0.48544
 Alpha  occ. eigenvalues --   -0.47877  -0.47608  -0.47310  -0.47188  -0.46967
 Alpha  occ. eigenvalues --   -0.46621  -0.46531  -0.46191  -0.46054  -0.45957
 Alpha  occ. eigenvalues --   -0.45514  -0.45344  -0.45147  -0.45087  -0.44764
 Alpha  occ. eigenvalues --   -0.44588  -0.44386  -0.43985  -0.43858  -0.43638
 Alpha  occ. eigenvalues --   -0.43441  -0.43264  -0.43049  -0.42696  -0.42665
 Alpha  occ. eigenvalues --   -0.42352  -0.42214  -0.41750  -0.41697  -0.41610
 Alpha  occ. eigenvalues --   -0.41408  -0.40901  -0.40832  -0.40676  -0.40379
 Alpha  occ. eigenvalues --   -0.40227  -0.40125  -0.39909  -0.39510  -0.39311
 Alpha  occ. eigenvalues --   -0.39219  -0.38980  -0.38498  -0.38405  -0.38202
 Alpha  occ. eigenvalues --   -0.38127  -0.38045  -0.37878  -0.37692  -0.37479
 Alpha  occ. eigenvalues --   -0.37284  -0.37226  -0.37067  -0.37037  -0.36907
 Alpha  occ. eigenvalues --   -0.36674  -0.36451  -0.36418  -0.36097  -0.35793
 Alpha  occ. eigenvalues --   -0.35667  -0.35572  -0.35465  -0.35139  -0.34942
 Alpha  occ. eigenvalues --   -0.34485  -0.34400  -0.33874  -0.33605  -0.33464
 Alpha  occ. eigenvalues --   -0.33435  -0.32925  -0.32455  -0.32388  -0.31932
 Alpha  occ. eigenvalues --   -0.31767  -0.31401  -0.31307  -0.31051  -0.30814
 Alpha  occ. eigenvalues --   -0.30742  -0.30722  -0.30312  -0.30007  -0.29497
 Alpha  occ. eigenvalues --   -0.29335  -0.28829  -0.28790  -0.28634  -0.28592
 Alpha  occ. eigenvalues --   -0.28043  -0.27168  -0.27066  -0.26785  -0.25654
 Alpha  occ. eigenvalues --   -0.24964  -0.24259  -0.23910  -0.22393  -0.19980
 Alpha  occ. eigenvalues --   -0.19245
 Alpha virt. eigenvalues --   -0.09769  -0.08450  -0.03627  -0.02214  -0.01832
 Alpha virt. eigenvalues --   -0.01189  -0.00224   0.00767   0.02875   0.03083
 Alpha virt. eigenvalues --    0.03881   0.04019   0.04077   0.04326   0.04633

 Mulliken charges:
               1
     1  C    0.075165
     2  C   -0.074602
     3  C   -0.132706
     4  C   -0.102522
     5  N   -0.095467
     6  C   -0.165069
     7  C    0.148066
     8  C   -0.029667
     9  C   -0.005761
    10  C    0.079508
    11  C    0.019792
    12  C    0.003635
    13  C    0.244567
    14  O   -0.276177
    15  O   -0.319880
    16  N   -0.043015
    17  C    0.052495
    18  C   -0.185642
    19  C    0.066739
    20  C    0.108602
    21  C    0.134244
    22  C   -0.111552
    23  C   -0.085973
    24  N   -0.253026
    25  C    0.079718
    26  C   -0.110258
    27  C   -0.099255
    28  C    0.079862
    29  C    0.032883
    30  C    0.006578
    31  C    0.019271
    32  N   -0.062045
    33  C    0.061825
    34  C   -0.168388
    35  C   -0.017909
    36  C    0.104082
    37  C    0.026873
    38  C    0.099113
    39  O   -0.095643
    40  C   -0.039354
    41  C    0.178847
    42  O   -0.252252
    43  O   -0.239033
    44  C    0.216902
    45  C    0.211589
    46  C   -0.040227
    47  C   -0.109989
    48  C    0.021593
    49  C    0.048011
    50  C    0.009767
    51  C   -0.017320
    52  C   -0.109604
    53  C   -0.001038
    54  C    0.090149
    55  C    0.096476
    56  C   -0.073687
    57  C   -0.089120
    58  C    0.159557
    59  C    0.002097
    60  C    0.165839
    61  C   -0.144770
    62  C   -0.144355
    63  C    0.104485
    64  C    0.039295
    65  H    0.001457
    66  H   -0.030441
    67  H   -0.002441
    68  H   -0.164441
    69  H   -0.047109
    70  H   -0.019263
    71  H    0.020261
    72  H    0.038231
    73  H    0.039043
    74  H    0.045246
    75  H    0.030047
    76  H    0.038419
    77  H    0.068399
    78  H    0.026220
    79  H    0.024668
    80  H    0.014784
    81  H    0.084161
    82  H    0.054000
    83  H    0.027052
    84  H    0.024489
    85  H    0.047202
    86  H    0.008934
    87  H    0.004425
    88  H    0.016621
    89  H    0.032806
    90  H    0.009517
    91  H    0.056707
    92  H    0.043652
    93  H    0.042634
    94  H    0.054239
    95  H    0.052398
    96  H   -0.049544
    97  H    0.030569
    98  H    0.046970
    99  H    0.010046
   100  H   -0.028909
   101  H    0.026172
   102  H    0.049681
   103  H    0.010515
   104  H   -0.007684
   105  H    0.001525
   106  H    0.038946
   107  H    0.008025
   108  H    0.000773
   109  H    0.006607
   110  H   -0.014793
   111  H    0.030727
   112  H    0.017055
   113  H   -0.002726
   114  H   -0.045222
   115  H   -0.041768
   116  H   -0.009889
   117  H   -0.010895
   118  H    0.019200
   119  H    0.015746
   120  H   -0.016166
   121  H   -0.046857
   122  H    0.022809
   123  H   -0.062233
   124  H   -0.027662
   125  H   -0.025937
   126  H    0.004609
   127  H   -0.008518
   128  H   -0.000151
   129  H    0.006243
   130  H    0.007635
   131  H   -0.002607
   132  H    0.007247
   133  H    0.025411
   134  H    0.000845
   135  H    0.002605
   136  H    0.010691
   137  H    0.105522
   138  H    0.161157
 Sum of Mulliken charges =   0.00000

 Dipole moment (field-independent basis, Debye):
    X=              0.9659    Y=              4.2606    Z=              0.3988  Tot=              4.3869
 Quadrupole moment (field-independent basis, Debye-Ang):
   XX=           -354.1551   YY=           -381.6431   ZZ=           -395.0175
   XY=            -24.1121   XZ=              5.0975   YZ=             -1.7924

 Normal termination of Gaussian 09 at Wed Jul 24 16:06:01 2019.
