 Gaussian 09, Revision D.01,
 Gaussian 09:  ES64L-G09RevD.01 24-Apr-2013

 --------------------------
 # td=(NStates=1) B3LYP/SVP
 --------------------------

 --
 TD
 --
 Symbolic Z-matrix:
 Charge =  0 Multiplicity = 1

                         Standard orientation:
 ---------------------------------------------------------------------
 Center     Atomic      Atomic             Coordinates (Angstroms)
 Number     Number       Type             X           Y           Z
 ---------------------------------------------------------------------
      1          6           0       -5.110613   -1.920565    0.385456
      2          6           0       -4.730255    2.762165    1.369119
      3          6           0       -9.295879    3.438467   -0.146890
      4          6           0       -9.801347   -1.456998   -0.881546
      5          7           0       -5.187038    0.427354    0.931900
      6          6           0       -4.562159   -0.709917    0.841312
      7          6           0       -3.128107   -0.642957    1.282529
      8          6           0       -3.107586    0.797607    1.893840
      9          6           0       -4.386004    1.362603    1.281777
     10          6           0       -3.086112    0.799356    3.434886
     11          6           0       -2.088722   -0.744897    0.090915
     12          6           0       -0.609771   -0.926000    0.526186
     13          6           0        0.363708   -1.060687   -0.545470
     14          8           0        0.131533   -1.363803   -1.702646
     15          8           0        1.647485   -0.778540   -0.087003
     16          7           0       -7.028239    2.741946    0.482644
     17          6           0       -5.974350    3.273372    0.986062
     18          6           0       -6.168178    4.783834    1.050526
     19          6           0       -7.470855    4.987619    0.534315
     20          6           0       -8.017225    3.715256    0.198820
     21          6           0       -5.131897    5.826045    1.612115
     22          6           0       -8.161383    6.233740    0.415945
     23          6           0       -8.931037    6.669200   -0.702355
     24          7           0       -9.266469    0.923001   -0.515397
     25          6           0       -9.846257    2.059154   -0.577695
     26          6           0      -11.210304    1.884048   -0.965483
     27          6           0      -11.386973    0.570236   -1.145366
     28          6           0      -10.129511   -0.080650   -0.861548
     29          6           0      -12.211998    3.044906   -1.239719
     30          6           0      -12.678050   -0.225583   -1.552667
     31          6           0      -12.707576   -0.600760   -3.033947
     32          7           0       -7.553195   -1.253338   -0.096600
     33          6           0       -8.611117   -2.015676   -0.588079
     34          6           0       -8.231594   -3.421167   -0.715649
     35          6           0       -6.902197   -3.381292   -0.319358
     36          6           0       -6.505229   -2.005746    0.013750
     37          6           0       -9.118205   -4.595527   -1.043451
     38          6           0       -5.811288   -4.256802   -0.075097
     39          8           0       -5.637892   -5.510103   -0.063586
     40          6           0       -4.580770   -3.345597    0.416116
     41          6           0       -4.019460   -3.827620    1.687156
     42          8           0       -4.258818   -3.455106    2.755985
     43          8           0       -2.983474   -4.825034    1.496217
     44          6           0       -2.465716   -5.460948    2.618564
     45          6           0        2.645740   -1.096341   -1.083276
     46          6           0        4.050995   -0.620628   -0.533452
     47          6           0        4.984734    0.040228   -1.192315
     48          6           0        4.937779    0.570628   -2.586171
     49          6           0        6.230853    0.369891   -0.408901
     50          6           0        7.402373   -0.408820   -0.990061
     51          6           0        8.760621   -0.124923   -0.201429
     52          6           0        9.998886   -0.663979   -0.755073
     53          6           0        9.998088   -2.154019   -0.995827
     54          6           0       11.306728   -0.130047    0.006844
     55          6           0       12.649002   -0.410582   -0.532229
     56          6           0       13.753436    0.103502    0.229913
     57          6           0       15.245947   -0.216553   -0.312761
     58          6           0       15.604872   -1.706434   -0.465365
     59          6           0       16.211406    0.630934    0.521909
     60          6           0       17.658913    0.662330   -0.106382
     61          6           0       18.709847    1.535758    0.676837
     62          6           0       20.178002    1.510621    0.063632
     63          6           0       20.249746    2.184771   -1.287709
     64          6           0       21.002507    2.255306    1.075359
     65          1           0       -4.032609    3.321684    1.874830
     66          1           0       -9.787751    4.237271   -0.416497
     67          1           0      -10.637352   -2.167552   -1.498403
     68          1           0       -2.908502   -1.305214    2.019190
     69          1           0       -2.180219    1.330543    1.630851
     70          1           0       -2.006209    0.363228    3.818336
     71          1           0       -3.258031    1.767820    3.966136
     72          1           0       -3.875791    0.150436    3.961942
     73          1           0       -2.426097   -1.642397   -0.565126
     74          1           0       -2.118015    0.149874   -0.618771
     75          1           0       -0.048280   -0.077633    1.105314
     76          1           0       -0.431659   -1.731460    1.217173
     77          1           0       -4.020003    5.979452    0.988365
     78          1           0       -5.720671    6.928646    1.564482
     79          1           0       -5.167259    5.781786    2.669392
     80          1           0       -8.132684    7.030984    1.147361
     81          1           0       -9.035421    6.286973   -1.709620
     82          1           0       -9.531521    7.596835   -0.636478
     83          1           0      -12.510892    3.610609   -0.459370
     84          1           0      -11.781875    3.863360   -2.050496
     85          1           0      -13.149523    2.477411   -1.415475
     86          1           0      -12.697236   -1.023413   -0.892572
     87          1           0      -13.512061    0.328283   -1.087104
     88          1           0      -12.648898    0.370015   -3.549254
     89          1           0      -11.747791   -1.016499   -3.547461
     90          1           0      -13.627537   -1.035650   -3.159416
     91          1           0      -10.198065   -4.289177   -0.472399
     92          1           0       -9.229936   -4.785459   -2.268123
     93          1           0       -8.440037   -5.472540   -0.683086
     94          1           0       -3.741252   -3.442092   -0.168333
     95          1           0       -1.480351   -6.010909    2.394666
     96          1           0       -2.174564   -4.722118    3.290706
     97          1           0       -3.393082   -5.908159    3.283597
     98          1           0        2.767143   -2.251250   -1.274367
     99          1           0        2.348821   -0.613354   -1.925926
    100          1           0        4.311507   -0.981405    0.570191
    101          1           0        4.988972    1.659686   -2.838838
    102          1           0        5.787424   -0.071467   -2.964519
    103          1           0        3.942723    0.335296   -3.047830
    104          1           0        6.626656    1.423600   -0.512314
    105          1           0        6.316088    0.172336    0.879597
    106          1           0        7.241887   -1.456467   -0.940750
    107          1           0        7.508905    0.138123   -1.994214
    108          1           0        8.766220    1.061505    0.015962
    109          1           0        8.628771   -0.556235    0.738528
    110          1           0        9.931508   -0.184752   -1.756055
    111          1           0        9.130039   -2.501919   -1.624398
    112          1           0       10.895394   -2.431236   -1.626059
    113          1           0       10.006053   -2.645044   -0.177376
    114          1           0       11.357220    0.928105    0.168609
    115          1           0       11.153653   -0.537447    0.991172
    116          1           0       12.812427   -1.588093   -0.685781
    117          1           0       12.870474   -0.126291   -1.625880
    118          1           0       13.741315    1.240694    0.442401
    119          1           0       13.712082   -0.425074    1.099311
    120          1           0       15.100901    0.102824   -1.395308
    121          1           0       14.989119   -2.274081   -1.144907
    122          1           0       16.809827   -2.064273   -0.819488
    123          1           0       15.702446   -2.324042    0.574130
    124          1           0       15.874520    1.692612    0.468794
    125          1           0       16.190120    0.361920    1.518392
    126          1           0       18.137380   -0.329653   -0.197164
    127          1           0       17.798751    0.925430   -1.127637
    128          1           0       18.337906    2.749363    0.820720
    129          1           0       18.682652    1.165912    1.712999
    130          1           0       20.510480    0.541689    0.054978
    131          1           0       19.983258    3.256661   -1.332581
    132          1           0       21.309158    2.388363   -1.517023
    133          1           0       19.819702    1.725328   -2.074984
    134          1           0       21.159126    1.625921    2.069253
    135          1           0       22.060330    2.438965    0.575921
    136          1           0       20.652660    3.341690    1.183792
    137          1           0       -7.182101    1.799042    0.106774
    138          1           0       -7.675191   -0.229156   -0.143720
 ---------------------------------------------------------------------

 SCF Done:  E(RB3LYP) =  -2733.04282654     A.U. after   17 cycles

 Excitation energies and oscillator strengths:

 Excited State   1:      Singlet-A      2.1634 eV  573.09 nm  f=0.1306  <S**2>=0.000
     235 -> 238        0.34185
     236 -> 237        0.61100
 This state for optimization and/or second-order correction.
 Total Energy, E(TD-HF/TD-KS) =  -2732.96332128
 Copying the excited state density for this state as the 1-particle RhoCI density.

 The electronic state is 1-A.
 Alpha  occ. eigenvalues --  -19.17346 -19.15069 -19.13160 -19.12509 -19.11782
 Alpha  occ. eigenvalues --  -14.38132 -14.37937 -14.31792 -14.29928 -10.31310
 Alpha  occ. eigenvalues --  -10.31078 -10.27949 -10.25058 -10.24582 -10.24547
 Alpha  occ. eigenvalues --  -10.23889 -10.23646 -10.23563 -10.23415 -10.23259
 Alpha  occ. eigenvalues --  -10.23199 -10.23048 -10.22519 -10.22388 -10.22154
 Alpha  occ. eigenvalues --  -10.21909 -10.21570 -10.21520 -10.21435 -10.21374
 Alpha  occ. eigenvalues --  -10.20979 -10.20943 -10.20662 -10.20557 -10.20496
 Alpha  occ. eigenvalues --  -10.20394 -10.20328 -10.20299 -10.19991 -10.19802
 Alpha  occ. eigenvalues --  -10.19797 -10.19783 -10.19589 -10.19518 -10.19226
 Alpha  occ. eigenvalues --  -10.19216 -10.19160 -10.19114 -10.18815 -10.18744
 Alpha  occ. eigenvalues --  -10.18731 -10.18556 -10.18483 -10.18415 -10.18352
 Alpha  occ. eigenvalues --  -10.18266 -10.18129 -10.17864 -10.17627 -10.17603
 Alpha  occ. eigenvalues --  -10.17484 -10.17443 -10.17011 -10.16851  -1.09250
 Alpha  occ. eigenvalues --   -1.08307  -1.00723  -1.00591  -1.00176  -0.99984
 Alpha  occ. eigenvalues --   -0.99416  -0.97889  -0.95579  -0.84883  -0.83046
 Alpha  occ. eigenvalues --   -0.82979  -0.82059  -0.81752  -0.81225  -0.80665
 Alpha  occ. eigenvalues --   -0.80359  -0.79924  -0.79420  -0.78898  -0.78071
 Alpha  occ. eigenvalues --   -0.76982  -0.76739  -0.75357  -0.74719  -0.74511
 Alpha  occ. eigenvalues --   -0.73356  -0.73132  -0.72212  -0.71735  -0.70546
 Alpha  occ. eigenvalues --   -0.69929  -0.69302  -0.68307  -0.68128  -0.67748
 Alpha  occ. eigenvalues --   -0.67305  -0.67072  -0.66146  -0.66098  -0.65569
 Alpha  occ. eigenvalues --   -0.64543  -0.63987  -0.63078  -0.62642  -0.62519
 Alpha  occ. eigenvalues --   -0.60087  -0.59755  -0.58947  -0.58447  -0.58252
 Alpha  occ. eigenvalues --   -0.57066  -0.56569  -0.55959  -0.55873  -0.55681
 Alpha  occ. eigenvalues --   -0.55450  -0.55183  -0.54904  -0.54381  -0.53401
 Alpha  occ. eigenvalues --   -0.52631  -0.52378  -0.51780  -0.51293  -0.50972
 Alpha  occ. eigenvalues --   -0.50307  -0.49355  -0.49293  -0.48932  -0.48603
 Alpha  occ. eigenvalues --   -0.48011  -0.47522  -0.47277  -0.47067  -0.46771
 Alpha  occ. eigenvalues --   -0.46687  -0.46508  -0.46303  -0.46092  -0.45730
 Alpha  occ. eigenvalues --   -0.45688  -0.45621  -0.45254  -0.44911  -0.44795
 Alpha  occ. eigenvalues --   -0.44231  -0.44154  -0.44121  -0.43665  -0.43514
 Alpha  occ. eigenvalues --   -0.43247  -0.43047  -0.42790  -0.42715  -0.42670
 Alpha  occ. eigenvalues --   -0.42165  -0.41997  -0.41825  -0.41743  -0.41722
 Alpha  occ. eigenvalues --   -0.41343  -0.41185  -0.40928  -0.40647  -0.40516
 Alpha  occ. eigenvalues --   -0.40339  -0.40008  -0.39870  -0.39723  -0.39553
 Alpha  occ. eigenvalues --   -0.39411  -0.39192  -0.39117  -0.39034  -0.38809
 Alpha  occ. eigenvalues --   -0.38453  -0.38203  -0.38015  -0.37847  -0.37602
 Alpha  occ. eigenvalues --   -0.37325  -0.37117  -0.36960  -0.36823  -0.36544
 Alpha  occ. eigenvalues --   -0.36462  -0.36408  -0.36247  -0.36164  -0.36063
 Alpha  occ. eigenvalues --   -0.35915  -0.35503  -0.35372  -0.35269  -0.34674
 Alpha  occ. eigenvalues --   -0.34611  -0.34387  -0.34246  -0.34196  -0.33872
 Alpha  occ. eigenvalues --   -0.33549  -0.33075  -0.33037  -0.32692  -0.32349
 Alpha  occ. eigenvalues --   -0.32220  -0.32003  -0.31909  -0.31371  -0.31064
 Alpha  occ. eigenvalues --   -0.30792  -0.30734  -0.30503  -0.30151  -0.29918
 Alpha  occ. eigenvalues --   -0.29115  -0.28778  -0.28229  -0.27893  -0.27605
 Alpha  occ. eigenvalues --   -0.27503  -0.27269  -0.27003  -0.26308  -0.26060
 Alpha  occ. eigenvalues --   -0.24738  -0.24726  -0.24694  -0.23224  -0.20408
 Alpha  occ. eigenvalues --   -0.19389
 Alpha virt. eigenvalues --   -0.10079  -0.08612  -0.05323  -0.03383  -0.00285
 Alpha virt. eigenvalues --   -0.00111   0.00180   0.01078   0.02498   0.03324
 Alpha virt. eigenvalues --    0.03705   0.03864   0.04208   0.04395   0.04509

 Mulliken charges:
               1
     1  C   -0.018188
     2  C   -0.067045
     3  C    0.055125
     4  C   -0.132358
     5  N   -0.063310
     6  C   -0.078488
     7  C    0.028080
     8  C   -0.028549
     9  C   -0.043584
    10  C   -0.015269
    11  C    0.029751
    12  C    0.033786
    13  C    0.170619
    14  O   -0.237919
    15  O   -0.350096
    16  N   -0.002461
    17  C    0.126479
    18  C   -0.159422
    19  C    0.127073
    20  C    0.064844
    21  C    0.025056
    22  C   -0.097065
    23  C   -0.061679
    24  N   -0.190169
    25  C   -0.032369
    26  C   -0.158955
    27  C   -0.125189
    28  C   -0.001641
    29  C    0.123276
    30  C    0.103077
    31  C    0.061730
    32  N    0.031125
    33  C    0.061344
    34  C   -0.090585
    35  C    0.005087
    36  C    0.035037
    37  C   -0.031378
    38  C    0.067720
    39  O   -0.220146
    40  C    0.086763
    41  C    0.149221
    42  O   -0.150856
    43  O   -0.361411
    44  C    0.186824
    45  C    0.294928
    46  C   -0.136160
    47  C   -0.092296
    48  C    0.058283
    49  C   -0.010969
    50  C   -0.014786
    51  C    0.000386
    52  C   -0.016975
    53  C    0.088945
    54  C    0.085571
    55  C    0.006999
    56  C    0.045149
    57  C   -0.075498
    58  C   -0.069134
    59  C    0.123547
    60  C    0.066110
    61  C   -0.055829
    62  C   -0.026192
    63  C    0.087345
    64  C   -0.028352
    65  H   -0.057161
    66  H   -0.107345
    67  H    0.049134
    68  H   -0.028701
    69  H   -0.006673
    70  H    0.031504
    71  H    0.018995
    72  H    0.034264
    73  H    0.041186
    74  H    0.023647
    75  H    0.043567
    76  H    0.028946
    77  H    0.086143
    78  H    0.022541
    79  H    0.029498
    80  H    0.017356
    81  H    0.033515
    82  H    0.029960
    83  H   -0.020488
    84  H    0.040056
    85  H   -0.000214
    86  H   -0.032371
    87  H   -0.009812
    88  H    0.002137
    89  H    0.031834
    90  H    0.004297
    91  H    0.075804
    92  H    0.070289
    93  H    0.076020
    94  H   -0.000716
    95  H    0.046762
    96  H   -0.021947
    97  H    0.029403
    98  H    0.040745
    99  H   -0.014391
   100  H    0.020388
   101  H    0.039861
   102  H    0.042336
   103  H    0.007521
   104  H    0.000529
   105  H    0.018650
   106  H    0.002928
   107  H    0.018306
   108  H    0.000189
   109  H   -0.041393
   110  H   -0.028348
   111  H    0.012197
   112  H    0.015544
   113  H   -0.047667
   114  H   -0.023894
   115  H   -0.021284
   116  H   -0.006295
   117  H   -0.016096
   118  H    0.006037
   119  H   -0.039349
   120  H   -0.004467
   121  H    0.023896
   122  H    0.022038
   123  H    0.013244
   124  H   -0.002235
   125  H   -0.021726
   126  H   -0.023123
   127  H   -0.033660
   128  H   -0.000577
   129  H   -0.010613
   130  H   -0.027592
   131  H   -0.008730
   132  H   -0.015432
   133  H   -0.009522
   134  H    0.032699
   135  H    0.000624
   136  H    0.016806
   137  H    0.152747
   138  H    0.142726
 Sum of Mulliken charges =   0.00000

 Dipole moment (field-independent basis, Debye):
    X=              0.4974    Y=              5.9549    Z=              0.1152  Tot=              5.9768
 Quadrupole moment (field-independent basis, Debye-Ang):
   XX=           -352.9715   YY=           -389.7462   ZZ=           -393.9936
   XY=            -38.0824   XZ=              5.8432   YZ=              1.7904

 Normal termination of Gaussian 09 at Fri Aug  2 23:40:12 2019.
