 Gaussian 09, Revision D.01,
 Gaussian 09:  ES64L-G09RevD.01 24-Apr-2013

 --------------------------
 # td=(NStates=1) B3LYP/SVP
 --------------------------

 --
 TD
 --
 Symbolic Z-matrix:
 Charge =  0 Multiplicity = 1

                         Standard orientation:
 ---------------------------------------------------------------------
 Center     Atomic      Atomic             Coordinates (Angstroms)
 Number     Number       Type             X           Y           Z
 ---------------------------------------------------------------------
      1          6           0       -5.112867   -1.941590    0.515146
      2          6           0       -4.839247    2.801024    1.599680
      3          6           0       -9.358876    3.232172   -0.312955
      4          6           0       -9.874074   -1.552248   -0.682262
      5          7           0       -5.237629    0.401773    0.932815
      6          6           0       -4.531708   -0.753912    0.772823
      7          6           0       -3.016269   -0.464453    1.110072
      8          6           0       -3.018653    1.004893    1.687400
      9          6           0       -4.481650    1.472015    1.337943
     10          6           0       -2.755615    1.105767    3.257081
     11          6           0       -2.131257   -0.680511    0.023409
     12          6           0       -0.663132   -0.618198    0.324208
     13          6           0        0.314633   -0.811993   -0.783686
     14          8           0        0.060291   -1.091562   -1.901070
     15          8           0        1.542186   -0.567340   -0.258354
     16          7           0       -7.178538    2.728930    0.596209
     17          6           0       -6.135816    3.368606    1.131400
     18          6           0       -6.420839    4.873413    1.022615
     19          6           0       -7.644904    4.935646    0.469327
     20          6           0       -8.135368    3.650382    0.158718
     21          6           0       -5.500322    5.901506    1.455380
     22          6           0       -8.360666    6.116370    0.201008
     23          6           0       -9.091076    6.556024   -0.919926
     24          7           0       -9.355648    0.704039   -0.397922
     25          6           0       -9.910360    1.963274   -0.456122
     26          6           0      -11.353455    1.693088   -0.794788
     27          6           0      -11.513153    0.370181   -0.963637
     28          6           0      -10.152242   -0.192339   -0.737129
     29          6           0      -12.317478    2.861042   -1.087467
     30          6           0      -12.735237   -0.349177   -1.420218
     31          6           0      -12.753953   -0.797162   -2.927626
     32          7           0       -7.527836   -1.309757   -0.109529
     33          6           0       -8.643089   -2.147773   -0.383027
     34          6           0       -8.264672   -3.467945   -0.503444
     35          6           0       -6.886113   -3.476629   -0.204427
     36          6           0       -6.538557   -2.088645    0.142065
     37          6           0       -8.951041   -4.715581   -0.944687
     38          6           0       -5.654228   -4.345956   -0.000563
     39          8           0       -5.601304   -5.566593   -0.120753
     40          6           0       -4.542218   -3.343307    0.335434
     41          6           0       -3.752337   -3.856446    1.688732
     42          8           0       -3.899402   -3.451609    2.754729
     43          8           0       -2.857765   -4.785372    1.293737
     44          6           0       -2.057156   -5.403147    2.339584
     45          6           0        2.612397   -0.709624   -1.303422
     46          6           0        3.985220   -0.577510   -0.668779
     47          6           0        5.057292    0.145623   -1.165530
     48          6           0        5.009669    1.004318   -2.425110
     49          6           0        6.244904    0.216386   -0.317723
     50          6           0        7.642283   -0.329933   -0.912855
     51          6           0        8.769354   -0.009727   -0.006293
     52          6           0       10.022123   -0.578506   -0.657557
     53          6           0        9.949922   -2.070855   -1.051112
     54          6           0       11.357375   -0.218673    0.109115
     55          6           0       12.732981   -0.694485   -0.440003
     56          6           0       13.868245    0.038319    0.209042
     57          6           0       15.330331   -0.280104   -0.263648
     58          6           0       15.757181   -1.781898   -0.094479
     59          6           0       16.286266    0.682860    0.434443
     60          6           0       17.667809    0.729931   -0.199226
     61          6           0       18.610778    1.583809    0.619560
     62          6           0       19.999493    1.521897    0.133347
     63          6           0       20.383900    2.041500   -1.367975
     64          6           0       21.108604    2.080752    1.068024
     65          1           0       -4.088365    3.562568    1.783366
     66          1           0      -10.229517    4.080890   -0.424315
     67          1           0      -10.725325   -2.470680   -0.703686
     68          1           0       -2.849657   -1.147732    2.103426
     69          1           0       -2.331478    1.402558    1.208049
     70          1           0       -1.644694    0.718339    3.557433
     71          1           0       -2.843671    2.354461    3.562356
     72          1           0       -3.381103    0.580685    3.820760
     73          1           0       -2.328696   -1.698653   -0.389866
     74          1           0       -2.317065   -0.059597   -0.927807
     75          1           0       -0.352185    0.288242    0.716551
     76          1           0       -0.322972   -1.174223    1.259327
     77          1           0       -4.353730    5.794045    0.971521
     78          1           0       -5.916557    6.910509    1.199017
     79          1           0       -5.316983    5.820842    2.576714
     80          1           0       -8.228012    6.879672    0.763880
     81          1           0       -9.467913    5.900328   -1.674317
     82          1           0       -9.535773    7.528999   -0.826744
     83          1           0      -12.555934    3.537992   -0.287863
     84          1           0      -11.856860    3.709102   -1.773212
     85          1           0      -13.408952    2.587396   -1.362706
     86          1           0      -12.777540   -1.351622   -1.046292
     87          1           0      -13.570001    0.299866   -1.299330
     88          1           0      -12.847888    0.086151   -3.364119
     89          1           0      -12.052484   -1.332241   -3.403346
     90          1           0      -13.623560   -1.327250   -3.279089
     91          1           0       -9.955262   -4.766816   -0.379374
     92          1           0       -9.419962   -4.639439   -1.838036
     93          1           0       -8.443354   -5.904985   -0.601267
     94          1           0       -3.689651   -3.380715   -0.324355
     95          1           0       -1.427394   -6.126134    1.823546
     96          1           0       -1.545159   -4.691683    2.871785
     97          1           0       -2.640721   -6.040513    2.993220
     98          1           0        2.654676   -1.756243   -1.752351
     99          1           0        2.387144   -0.078749   -2.047204
    100          1           0        4.181934   -1.195516    0.211819
    101          1           0        5.739928    1.840246   -2.427481
    102          1           0        5.604014    0.658433   -3.352853
    103          1           0        4.048284    1.344855   -2.874612
    104          1           0        6.300027    1.388639   -0.307933
    105          1           0        6.013873   -0.421397    0.629936
    106          1           0        7.376772   -1.375561   -1.193068
    107          1           0        7.955721    0.286356   -1.864843
    108          1           0        8.913310    1.118430    0.292084
    109          1           0        8.513207   -0.735646    1.016084
    110          1           0       10.310702   -0.227677   -1.715216
    111          1           0        9.232334   -2.283773   -1.767086
    112          1           0       10.854275   -2.286784   -1.461953
    113          1           0        9.853684   -2.754190   -0.052579
    114          1           0       11.380640    0.872357    0.043782
    115          1           0       11.210320   -0.286359    1.241112
    116          1           0       12.795835   -1.712225   -0.500430
    117          1           0       12.573888   -0.666284   -1.605080
    118          1           0       13.865887    1.094062   -0.085032
    119          1           0       13.868588   -0.018020    1.203018
    120          1           0       15.340674   -0.067083   -1.462345
    121          1           0       15.132755   -2.472886   -0.605782
    122          1           0       16.766109   -2.234567   -0.351997
    123          1           0       15.895425   -2.098470    0.879105
    124          1           0       15.709479    1.783162    0.388795
    125          1           0       16.361880    0.454559    1.667649
    126          1           0       18.030775   -0.419654   -0.279531
    127          1           0       17.631319    1.077693   -1.208576
    128          1           0       18.141224    2.596756    0.539269
    129          1           0       18.399941    1.303858    1.574355
    130          1           0       20.227879    0.351481    0.069390
    131          1           0       20.120564    3.187777   -1.273952
    132          1           0       21.403250    2.044877   -1.388350
    133          1           0       19.674758    1.376658   -2.123962
    134          1           0       21.012192    1.672022    2.072784
    135          1           0       22.088069    2.140936    0.760303
    136          1           0       20.796690    3.102800    1.162073
    137          1           0       -7.172882    1.771243    0.283770
    138          1           0       -7.680013   -0.436398    0.165042
 ---------------------------------------------------------------------

 SCF Done:  E(RB3LYP) =  -2732.97870029     A.U. after   17 cycles

 Excitation energies and oscillator strengths:

 Excited State   1:      Singlet-A      2.0685 eV  599.38 nm  f=0.1939  <S**2>=0.000
     235 -> 237        0.16186
     235 -> 238       -0.25687
     236 -> 237        0.62432
     236 -> 238        0.11201
 This state for optimization and/or second-order correction.
 Total Energy, E(TD-HF/TD-KS) =  -2732.90268269
 Copying the excited state density for this state as the 1-particle RhoCI density.

 The electronic state is 1-A.
 Alpha  occ. eigenvalues --  -19.17557 -19.17314 -19.13290 -19.12536 -19.11995
 Alpha  occ. eigenvalues --  -14.37678 -14.36801 -14.31598 -14.29579 -10.31449
 Alpha  occ. eigenvalues --  -10.30810 -10.28130 -10.24997 -10.24425 -10.23941
 Alpha  occ. eigenvalues --  -10.23761 -10.23388 -10.23308 -10.23182 -10.22664
 Alpha  occ. eigenvalues --  -10.21837 -10.21633 -10.21602 -10.21583 -10.21443
 Alpha  occ. eigenvalues --  -10.21201 -10.21080 -10.20953 -10.20755 -10.20713
 Alpha  occ. eigenvalues --  -10.20700 -10.20673 -10.20570 -10.20455 -10.20348
 Alpha  occ. eigenvalues --  -10.20269 -10.20140 -10.20107 -10.20012 -10.19982
 Alpha  occ. eigenvalues --  -10.19950 -10.19904 -10.19843 -10.19651 -10.19565
 Alpha  occ. eigenvalues --  -10.19517 -10.19513 -10.19319 -10.19192 -10.19102
 Alpha  occ. eigenvalues --  -10.18975 -10.18624 -10.18555 -10.18549 -10.18446
 Alpha  occ. eigenvalues --  -10.18403 -10.18386 -10.17688 -10.17629 -10.17472
 Alpha  occ. eigenvalues --  -10.17197 -10.17142 -10.16586 -10.15489  -1.10672
 Alpha  occ. eigenvalues --   -1.09146  -1.02654  -1.01572  -1.01143  -1.00390
 Alpha  occ. eigenvalues --   -0.99050  -0.95612  -0.92606  -0.83735  -0.83484
 Alpha  occ. eigenvalues --   -0.82669  -0.82107  -0.82044  -0.81865  -0.80975
 Alpha  occ. eigenvalues --   -0.80419  -0.79725  -0.79444  -0.78607  -0.77208
 Alpha  occ. eigenvalues --   -0.76629  -0.76119  -0.75674  -0.74644  -0.74258
 Alpha  occ. eigenvalues --   -0.73505  -0.73230  -0.72677  -0.71958  -0.71329
 Alpha  occ. eigenvalues --   -0.70444  -0.69581  -0.69318  -0.68641  -0.68332
 Alpha  occ. eigenvalues --   -0.67908  -0.67119  -0.66757  -0.65997  -0.64848
 Alpha  occ. eigenvalues --   -0.64363  -0.63529  -0.63148  -0.62651  -0.62293
 Alpha  occ. eigenvalues --   -0.61514  -0.59048  -0.58733  -0.58350  -0.57598
 Alpha  occ. eigenvalues --   -0.57368  -0.56659  -0.56262  -0.55811  -0.55676
 Alpha  occ. eigenvalues --   -0.55639  -0.55304  -0.54497  -0.53723  -0.53278
 Alpha  occ. eigenvalues --   -0.53042  -0.52855  -0.51982  -0.51265  -0.50428
 Alpha  occ. eigenvalues --   -0.49629  -0.49540  -0.49165  -0.48700  -0.48277
 Alpha  occ. eigenvalues --   -0.48137  -0.47961  -0.47575  -0.47327  -0.46982
 Alpha  occ. eigenvalues --   -0.46892  -0.46726  -0.46569  -0.46148  -0.45786
 Alpha  occ. eigenvalues --   -0.45730  -0.45581  -0.45282  -0.45181  -0.44940
 Alpha  occ. eigenvalues --   -0.44476  -0.44333  -0.44004  -0.43901  -0.43660
 Alpha  occ. eigenvalues --   -0.43484  -0.43263  -0.42895  -0.42806  -0.42605
 Alpha  occ. eigenvalues --   -0.42206  -0.42021  -0.41875  -0.41729  -0.41696
 Alpha  occ. eigenvalues --   -0.41545  -0.40891  -0.40833  -0.40681  -0.40460
 Alpha  occ. eigenvalues --   -0.40210  -0.40141  -0.39987  -0.39606  -0.39530
 Alpha  occ. eigenvalues --   -0.39393  -0.39296  -0.38990  -0.38823  -0.38805
 Alpha  occ. eigenvalues --   -0.38607  -0.38490  -0.38266  -0.38072  -0.37818
 Alpha  occ. eigenvalues --   -0.37445  -0.37346  -0.37236  -0.37038  -0.36956
 Alpha  occ. eigenvalues --   -0.36875  -0.36510  -0.36467  -0.36233  -0.36167
 Alpha  occ. eigenvalues --   -0.35857  -0.35695  -0.35653  -0.35622  -0.35002
 Alpha  occ. eigenvalues --   -0.34702  -0.34533  -0.34244  -0.33953  -0.33892
 Alpha  occ. eigenvalues --   -0.33532  -0.32952  -0.32802  -0.32724  -0.32348
 Alpha  occ. eigenvalues --   -0.32321  -0.32021  -0.31418  -0.31369  -0.31216
 Alpha  occ. eigenvalues --   -0.30999  -0.30666  -0.30613  -0.30488  -0.29810
 Alpha  occ. eigenvalues --   -0.29443  -0.29095  -0.28990  -0.28677  -0.28145
 Alpha  occ. eigenvalues --   -0.27771  -0.26543  -0.26155  -0.25490  -0.25399
 Alpha  occ. eigenvalues --   -0.24856  -0.24339  -0.23515  -0.22840  -0.19786
 Alpha  occ. eigenvalues --   -0.18985
 Alpha virt. eigenvalues --   -0.10481  -0.07112  -0.04163  -0.02660  -0.00626
 Alpha virt. eigenvalues --   -0.00024   0.01491   0.01738   0.02377   0.03361
 Alpha virt. eigenvalues --    0.03631   0.03857   0.04074   0.04304   0.04650

 Mulliken charges:
               1
     1  C    0.097076
     2  C   -0.022639
     3  C   -0.112335
     4  C   -0.133348
     5  N   -0.206263
     6  C   -0.097861
     7  C   -0.120286
     8  C    0.112942
     9  C    0.017650
    10  C    0.010285
    11  C    0.118980
    12  C    0.040427
    13  C    0.167247
    14  O   -0.200052
    15  O   -0.350238
    16  N   -0.031330
    17  C    0.022078
    18  C   -0.109147
    19  C    0.153899
    20  C    0.071590
    21  C    0.016680
    22  C   -0.080524
    23  C   -0.014630
    24  N   -0.144347
    25  C    0.022539
    26  C   -0.084698
    27  C   -0.118543
    28  C    0.036383
    29  C    0.040628
    30  C    0.142049
    31  C    0.067227
    32  N    0.109868
    33  C    0.029006
    34  C   -0.115963
    35  C   -0.078959
    36  C   -0.006021
    37  C    0.097869
    38  C    0.147909
    39  O   -0.181064
    40  C   -0.078593
    41  C    0.162842
    42  O   -0.150483
    43  O   -0.318259
    44  C    0.227915
    45  C    0.331720
    46  C   -0.130003
    47  C   -0.083808
    48  C    0.036807
    49  C    0.041231
    50  C   -0.043262
    51  C    0.035398
    52  C   -0.132810
    53  C    0.077055
    54  C    0.024155
    55  C    0.070096
    56  C    0.126405
    57  C   -0.088789
    58  C    0.052095
    59  C   -0.077832
    60  C   -0.012570
    61  C    0.165384
    62  C   -0.163331
    63  C    0.012692
    64  C    0.096353
    65  H   -0.017126
    66  H    0.029020
    67  H    0.033790
    68  H    0.043820
    69  H   -0.103311
    70  H    0.027456
    71  H    0.030470
    72  H    0.004047
    73  H    0.001553
    74  H    0.016822
    75  H   -0.013624
    76  H    0.019076
    77  H    0.052797
    78  H    0.029349
    79  H    0.045840
    80  H   -0.071246
    81  H    0.017579
    82  H    0.021941
    83  H   -0.000551
    84  H    0.028201
    85  H    0.019112
    86  H   -0.012734
    87  H   -0.012024
    88  H   -0.034109
    89  H   -0.020778
    90  H   -0.014850
    91  H    0.003799
    92  H   -0.013273
    93  H    0.097383
    94  H    0.051122
    95  H    0.028603
    96  H    0.013344
    97  H    0.025155
    98  H    0.038808
    99  H   -0.029029
   100  H   -0.006395
   101  H   -0.007864
   102  H    0.016023
   103  H    0.032615
   104  H    0.023276
   105  H    0.019483
   106  H    0.032179
   107  H    0.001772
   108  H    0.028610
   109  H    0.011837
   110  H   -0.005360
   111  H   -0.004222
   112  H   -0.034860
   113  H    0.010851
   114  H   -0.022942
   115  H   -0.009810
   116  H   -0.027715
   117  H   -0.020878
   118  H   -0.004159
   119  H   -0.036478
   120  H    0.005719
   121  H   -0.003952
   122  H   -0.002516
   123  H   -0.027036
   124  H    0.007721
   125  H    0.018071
   126  H    0.008811
   127  H   -0.010510
   128  H   -0.019671
   129  H   -0.048230
   130  H   -0.004798
   131  H    0.010876
   132  H   -0.005257
   133  H    0.054351
   134  H   -0.001162
   135  H   -0.010023
   136  H   -0.022840
   137  H    0.145697
   138  H    0.077864
 Sum of Mulliken charges =   0.00000

 Dipole moment (field-independent basis, Debye):
    X=              2.8981    Y=              3.8982    Z=              0.3746  Tot=              4.8719
 Quadrupole moment (field-independent basis, Debye-Ang):
   XX=           -353.1843   YY=           -377.0723   ZZ=           -398.5056
   XY=            -23.6675   XZ=              6.3504   YZ=             -2.8210

 Normal termination of Gaussian 09 at Sat Aug  3 12:16:21 2019.
