 Gaussian 09, Revision D.01,
 Gaussian 09:  ES64L-G09RevD.01 24-Apr-2013

 --------------------------
 # td=(NStates=1) B3LYP/SVP
 --------------------------

 --
 TD
 --
 Symbolic Z-matrix:
 Charge =  0 Multiplicity = 1

                         Standard orientation:
 ---------------------------------------------------------------------
 Center     Atomic      Atomic             Coordinates (Angstroms)
 Number     Number       Type             X           Y           Z
 ---------------------------------------------------------------------
      1          6           0       -5.128837   -1.990270    0.497168
      2          6           0       -4.626554    2.734662    1.531555
      3          6           0       -9.233252    3.504919   -0.233670
      4          6           0       -9.786582   -1.361150   -1.009974
      5          7           0       -5.169913    0.335735    0.837461
      6          6           0       -4.549600   -0.769430    0.763464
      7          6           0       -3.144291   -0.591008    1.257864
      8          6           0       -3.063176    0.918702    1.762675
      9          6           0       -4.348003    1.369791    1.303319
     10          6           0       -2.945910    0.842949    3.288918
     11          6           0       -2.026358   -0.862917   -0.008890
     12          6           0       -0.623617   -1.015393    0.527583
     13          6           0        0.317769   -1.277370   -0.638176
     14          8           0       -0.018123   -1.754960   -1.719453
     15          8           0        1.598796   -1.054337   -0.301253
     16          7           0       -6.964703    2.796072    0.491716
     17          6           0       -5.795372    3.348230    1.064490
     18          6           0       -6.139129    4.809289    1.107156
     19          6           0       -7.368268    5.014024    0.646504
     20          6           0       -7.826338    3.735753    0.174822
     21          6           0       -5.165194    5.784578    1.530878
     22          6           0       -8.037784    6.372579    0.530517
     23          6           0       -9.099138    6.719566   -0.307596
     24          7           0       -9.096329    0.966361   -0.442564
     25          6           0       -9.650297    2.193960   -0.653208
     26          6           0      -11.089519    2.094887   -0.984875
     27          6           0      -11.256856    0.725695   -1.173803
     28          6           0      -10.045608    0.067340   -0.917753
     29          6           0      -12.107220    3.194861   -1.206047
     30          6           0      -12.576730    0.029169   -1.582054
     31          6           0      -12.830554    0.074580   -3.105854
     32          7           0       -7.516442   -1.213584   -0.307387
     33          6           0       -8.611063   -1.933998   -0.733258
     34          6           0       -8.305512   -3.384108   -0.693425
     35          6           0       -6.966212   -3.406151   -0.252816
     36          6           0       -6.519000   -2.032364   -0.017846
     37          6           0       -9.200804   -4.485696   -1.025758
     38          6           0       -5.882759   -4.314570    0.103812
     39          8           0       -5.887773   -5.526366    0.006824
     40          6           0       -4.609024   -3.448217    0.432295
     41          6           0       -4.102057   -3.954448    1.742338
     42          8           0       -4.297361   -3.548245    2.883666
     43          8           0       -3.192843   -4.985425    1.526075
     44          6           0       -2.700178   -5.625155    2.793328
     45          6           0        2.657767   -1.204406   -1.342086
     46          6           0        3.890944   -0.861560   -0.597894
     47          6           0        4.976086   -0.150645   -1.084352
     48          6           0        4.850677    0.485140   -2.450773
     49          6           0        6.222655   -0.003535   -0.348457
     50          6           0        7.496447   -0.535067   -0.961435
     51          6           0        8.772804   -0.491293   -0.086491
     52          6           0       10.134849   -0.848015   -0.869507
     53          6           0       10.251231   -2.321944   -1.072033
     54          6           0       11.281860   -0.282136    0.066352
     55          6           0       12.599465   -0.429287   -0.547884
     56          6           0       13.747798    0.195059    0.180985
     57          6           0       15.171774   -0.041968   -0.344303
     58          6           0       15.554046   -1.564221   -0.470231
     59          6           0       16.279634    0.773547    0.446257
     60          6           0       17.606367    0.921646   -0.228450
     61          6           0       18.686142    1.690468    0.684683
     62          6           0       20.098210    1.685319    0.065137
     63          6           0       20.247661    2.394584   -1.239847
     64          6           0       20.931544    2.413468    1.276494
     65          1           0       -3.840888    3.360589    1.664169
     66          1           0       -9.937625    4.285478   -0.144553
     67          1           0      -10.447576   -2.045642   -1.439280
     68          1           0       -2.582415   -1.174445    1.939588
     69          1           0       -2.159882    1.453620    1.417317
     70          1           0       -2.074791    0.227755    3.598756
     71          1           0       -2.902629    1.820288    3.715364
     72          1           0       -3.538385    0.078170    3.830649
     73          1           0       -2.167330   -1.784998   -0.397920
     74          1           0       -2.242762    0.020774   -0.537118
     75          1           0       -0.088942   -0.102085    1.075722
     76          1           0       -0.308854   -1.842762    1.318168
     77          1           0       -4.113745    5.718483    0.867628
     78          1           0       -5.507003    6.850539    1.540351
     79          1           0       -4.774883    5.484505    2.563214
     80          1           0       -7.806998    7.045103    1.392528
     81          1           0       -9.425173    6.134406   -1.364560
     82          1           0       -9.610694    7.648332   -0.209725
     83          1           0      -12.399706    3.691063   -0.283979
     84          1           0      -11.782677    3.947761   -1.963620
     85          1           0      -13.065303    2.665091   -1.610726
     86          1           0      -12.749552   -1.024295   -1.217421
     87          1           0      -13.346643    0.539652   -1.140726
     88          1           0      -13.132875    1.079295   -3.647092
     89          1           0      -11.923912   -0.371793   -3.677863
     90          1           0      -13.695130   -0.612556   -3.274925
     91          1           0      -10.108243   -4.503737   -0.229683
     92          1           0       -9.793197   -4.406498   -1.838202
     93          1           0       -8.740609   -5.571896   -1.085245
     94          1           0       -3.719880   -3.755524   -0.083362
     95          1           0       -2.002030   -6.260175    2.408987
     96          1           0       -2.586982   -4.869968    3.569717
     97          1           0       -3.695876   -5.991143    3.358621
     98          1           0        2.671726   -2.185506   -1.934583
     99          1           0        2.518978   -0.328235   -1.995201
    100          1           0        3.999701   -1.466001    0.205873
    101          1           0        4.970844    1.480174   -2.198265
    102          1           0        5.726411    0.133901   -3.093740
    103          1           0        3.935889    0.057753   -3.109997
    104          1           0        6.471324    1.133730   -0.255157
    105          1           0        6.141271   -0.400319    0.643605
    106          1           0        7.360188   -1.471738   -1.300895
    107          1           0        7.724702    0.017563   -2.042027
    108          1           0        9.029122    0.526121    0.332146
    109          1           0        8.808653   -0.860397    0.905357
    110          1           0       10.150438   -0.273511   -1.929294
    111          1           0        9.588890   -2.389585   -1.952344
    112          1           0       11.370230   -2.630800   -1.514163
    113          1           0        9.971260   -2.610779   -0.199766
    114          1           0       11.137403    0.855446    0.295353
    115          1           0       11.087361   -0.927085    0.750094
    116          1           0       12.852006   -1.549660   -0.685364
    117          1           0       12.575313   -0.105362   -1.680349
    118          1           0       13.781012    1.333594    0.566817
    119          1           0       13.655303   -0.294415    1.278602
    120          1           0       15.428534    0.414901   -1.368424
    121          1           0       15.136862   -2.129039   -1.329092
    122          1           0       16.595552   -1.604266   -0.640083
    123          1           0       15.112809   -1.932887    0.610194
    124          1           0       15.991032    1.775100    0.744326
    125          1           0       16.591083    0.047400    1.327751
    126          1           0       18.255443   -0.127439   -0.537372
    127          1           0       17.500023    1.351464   -1.258892
    128          1           0       18.553101    2.788079    0.809246
    129          1           0       18.574621    1.117836    1.712573
    130          1           0       20.393759    0.688570   -0.052027
    131          1           0       19.858991    3.443691   -1.090014
    132          1           0       21.331432    2.231049   -1.521437
    133          1           0       19.795096    1.940290   -2.087267
    134          1           0       20.489193    2.217925    2.357420
    135          1           0       22.047445    2.154231    1.075750
    136          1           0       20.711371    3.617385    1.147989
    137          1           0       -6.952881    1.760470    0.368694
    138          1           0       -7.547760   -0.221120   -0.231343
 ---------------------------------------------------------------------

 SCF Done:  E(RB3LYP) =  -2733.02710334     A.U. after   17 cycles

 Excitation energies and oscillator strengths:

 Excited State   1:      Singlet-A      2.0025 eV  619.16 nm  f=0.1513  <S**2>=0.000
     235 -> 238       -0.29876
     236 -> 237        0.62494
 This state for optimization and/or second-order correction.
 Total Energy, E(TD-HF/TD-KS) =  -2732.95351418
 Copying the excited state density for this state as the 1-particle RhoCI density.

 The electronic state is 1-A.
 Alpha  occ. eigenvalues --  -19.17335 -19.16733 -19.12207 -19.12153 -19.11469
 Alpha  occ. eigenvalues --  -14.37846 -14.37116 -14.32160 -14.29750 -10.31042
 Alpha  occ. eigenvalues --  -10.30888 -10.27989 -10.25170 -10.24266 -10.24166
 Alpha  occ. eigenvalues --  -10.23992 -10.23781 -10.23136 -10.23066 -10.22706
 Alpha  occ. eigenvalues --  -10.22639 -10.22245 -10.21755 -10.21731 -10.21445
 Alpha  occ. eigenvalues --  -10.21166 -10.21110 -10.20965 -10.20911 -10.20689
 Alpha  occ. eigenvalues --  -10.20542 -10.20524 -10.20490 -10.20043 -10.20024
 Alpha  occ. eigenvalues --  -10.19903 -10.19865 -10.19761 -10.19746 -10.19712
 Alpha  occ. eigenvalues --  -10.19704 -10.19659 -10.19640 -10.19624 -10.19590
 Alpha  occ. eigenvalues --  -10.19456 -10.19427 -10.19340 -10.19260 -10.19080
 Alpha  occ. eigenvalues --  -10.18981 -10.18981 -10.18898 -10.18853 -10.18720
 Alpha  occ. eigenvalues --  -10.18677 -10.18647 -10.18411 -10.18251 -10.18119
 Alpha  occ. eigenvalues --  -10.18041 -10.17916 -10.17657 -10.17329  -1.07980
 Alpha  occ. eigenvalues --   -1.07015  -1.02591  -0.99437  -0.98899  -0.98873
 Alpha  occ. eigenvalues --   -0.98297  -0.96025  -0.92556  -0.84278  -0.83454
 Alpha  occ. eigenvalues --   -0.82486  -0.82231  -0.81778  -0.80955  -0.80801
 Alpha  occ. eigenvalues --   -0.80239  -0.79429  -0.79227  -0.78454  -0.78149
 Alpha  occ. eigenvalues --   -0.77341  -0.75972  -0.75465  -0.75016  -0.73732
 Alpha  occ. eigenvalues --   -0.73491  -0.73112  -0.72648  -0.72072  -0.70971
 Alpha  occ. eigenvalues --   -0.69856  -0.68979  -0.68851  -0.68634  -0.67505
 Alpha  occ. eigenvalues --   -0.67304  -0.67180  -0.66203  -0.65370  -0.64716
 Alpha  occ. eigenvalues --   -0.64420  -0.62977  -0.62862  -0.61999  -0.60815
 Alpha  occ. eigenvalues --   -0.60638  -0.59547  -0.59115  -0.58425  -0.57433
 Alpha  occ. eigenvalues --   -0.56552  -0.56124  -0.55570  -0.55279  -0.55181
 Alpha  occ. eigenvalues --   -0.54969  -0.54894  -0.54264  -0.53784  -0.53049
 Alpha  occ. eigenvalues --   -0.52696  -0.52190  -0.51622  -0.50647  -0.50081
 Alpha  occ. eigenvalues --   -0.49804  -0.49366  -0.48939  -0.48738  -0.48538
 Alpha  occ. eigenvalues --   -0.48260  -0.47794  -0.47324  -0.47183  -0.47035
 Alpha  occ. eigenvalues --   -0.46818  -0.46377  -0.46124  -0.45751  -0.45564
 Alpha  occ. eigenvalues --   -0.45535  -0.45424  -0.45354  -0.45082  -0.44798
 Alpha  occ. eigenvalues --   -0.44719  -0.44393  -0.44182  -0.43967  -0.43950
 Alpha  occ. eigenvalues --   -0.43779  -0.43630  -0.43331  -0.43236  -0.43093
 Alpha  occ. eigenvalues --   -0.42602  -0.42497  -0.42268  -0.41946  -0.41747
 Alpha  occ. eigenvalues --   -0.41558  -0.41230  -0.40771  -0.40756  -0.40290
 Alpha  occ. eigenvalues --   -0.40176  -0.39968  -0.39630  -0.39472  -0.39245
 Alpha  occ. eigenvalues --   -0.39223  -0.39151  -0.38948  -0.38802  -0.38602
 Alpha  occ. eigenvalues --   -0.38401  -0.38350  -0.38076  -0.37576  -0.37505
 Alpha  occ. eigenvalues --   -0.37359  -0.37113  -0.37058  -0.36899  -0.36708
 Alpha  occ. eigenvalues --   -0.36666  -0.36427  -0.36188  -0.36034  -0.35939
 Alpha  occ. eigenvalues --   -0.35666  -0.35317  -0.35137  -0.34903  -0.34374
 Alpha  occ. eigenvalues --   -0.34344  -0.34183  -0.33681  -0.33548  -0.33514
 Alpha  occ. eigenvalues --   -0.33236  -0.32884  -0.32702  -0.32460  -0.32372
 Alpha  occ. eigenvalues --   -0.32215  -0.32115  -0.32009  -0.31329  -0.31030
 Alpha  occ. eigenvalues --   -0.30667  -0.30654  -0.30322  -0.29935  -0.29163
 Alpha  occ. eigenvalues --   -0.28930  -0.28518  -0.27869  -0.27595  -0.27462
 Alpha  occ. eigenvalues --   -0.27303  -0.26701  -0.26608  -0.26310  -0.25704
 Alpha  occ. eigenvalues --   -0.25089  -0.24257  -0.24135  -0.21918  -0.19953
 Alpha  occ. eigenvalues --   -0.18550
 Alpha virt. eigenvalues --   -0.10080  -0.08179  -0.04513  -0.02782  -0.00883
 Alpha virt. eigenvalues --   -0.00623   0.00164   0.00356   0.02711   0.03409
 Alpha virt. eigenvalues --    0.04109   0.04133   0.04407   0.04536   0.04808

 Mulliken charges:
               1
     1  C    0.052102
     2  C   -0.015618
     3  C   -0.078751
     4  C   -0.055919
     5  N   -0.152318
     6  C    0.005339
     7  C   -0.111287
     8  C   -0.033449
     9  C    0.043401
    10  C    0.070077
    11  C    0.138565
    12  C   -0.073804
    13  C    0.173303
    14  O   -0.260817
    15  O   -0.335013
    16  N   -0.042756
    17  C    0.076254
    18  C   -0.092399
    19  C   -0.001139
    20  C    0.062998
    21  C    0.011907
    22  C   -0.031072
    23  C   -0.083750
    24  N   -0.286029
    25  C    0.096057
    26  C   -0.165538
    27  C   -0.083345
    28  C    0.090662
    29  C    0.076247
    30  C    0.107257
    31  C   -0.055597
    32  N    0.038471
    33  C    0.061919
    34  C   -0.098110
    35  C   -0.009563
    36  C    0.032698
    37  C    0.081890
    38  C    0.064832
    39  O   -0.166704
    40  C   -0.003691
    41  C    0.188873
    42  O   -0.242414
    43  O   -0.361323
    44  C    0.210485
    45  C    0.278586
    46  C   -0.087159
    47  C   -0.146320
    48  C    0.053329
    49  C    0.116723
    50  C    0.050619
    51  C    0.044937
    52  C   -0.207219
    53  C    0.095382
    54  C    0.122055
    55  C    0.016540
    56  C    0.002759
    57  C   -0.085671
    58  C    0.017399
    59  C    0.046913
    60  C   -0.078679
    61  C   -0.017519
    62  C   -0.082655
    63  C    0.061591
    64  C   -0.059971
    65  H   -0.051244
    66  H   -0.013433
    67  H   -0.056550
    68  H   -0.018217
    69  H    0.005176
    70  H   -0.007205
    71  H    0.008227
    72  H    0.022600
    73  H    0.001036
    74  H    0.007111
    75  H    0.034955
    76  H    0.061329
    77  H    0.043183
    78  H    0.025622
    79  H    0.033347
    80  H    0.027891
    81  H    0.067942
    82  H    0.021607
    83  H    0.026327
    84  H    0.030044
    85  H    0.019925
    86  H    0.001364
    87  H   -0.026938
    88  H    0.033330
    89  H    0.022749
    90  H    0.007873
    91  H    0.034530
    92  H   -0.011158
    93  H    0.067741
    94  H    0.042168
    95  H    0.031596
    96  H    0.033569
    97  H    0.034233
    98  H    0.064770
    99  H    0.018981
   100  H   -0.049478
   101  H    0.011701
   102  H    0.027972
   103  H    0.046784
   104  H    0.010388
   105  H   -0.011200
   106  H   -0.037240
   107  H    0.008725
   108  H   -0.027340
   109  H   -0.030463
   110  H    0.000571
   111  H    0.020166
   112  H    0.038651
   113  H   -0.029498
   114  H    0.021835
   115  H   -0.068052
   116  H    0.001418
   117  H   -0.004893
   118  H    0.002856
   119  H   -0.007209
   120  H   -0.009049
   121  H    0.021109
   122  H   -0.010287
   123  H    0.028295
   124  H    0.006087
   125  H    0.003531
   126  H    0.010345
   127  H   -0.001218
   128  H   -0.004223
   129  H    0.019603
   130  H   -0.022390
   131  H    0.017136
   132  H    0.009366
   133  H    0.000797
   134  H    0.038958
   135  H    0.031602
   136  H    0.020698
   137  H    0.166722
   138  H    0.118174
 Sum of Mulliken charges =   0.00000

 Dipole moment (field-independent basis, Debye):
    X=              2.7779    Y=              4.1323    Z=              0.1309  Tot=              4.9809
 Quadrupole moment (field-independent basis, Debye-Ang):
   XX=           -351.0368   YY=           -385.7630   ZZ=           -396.4614
   XY=            -24.9185   XZ=              2.3800   YZ=              1.0707

 Normal termination of Gaussian 09 at Mon Aug  5 05:10:37 2019.
