 Gaussian 09, Revision D.01,
 Gaussian 09:  ES64L-G09RevD.01 24-Apr-2013

 --------------------------
 # td=(NStates=1) B3LYP/SVP
 --------------------------

 --
 TD
 --
 Symbolic Z-matrix:
 Charge =  0 Multiplicity = 1

                         Standard orientation:
 ---------------------------------------------------------------------
 Center     Atomic      Atomic             Coordinates (Angstroms)
 Number     Number       Type             X           Y           Z
 ---------------------------------------------------------------------
      1          6           0       -5.153478   -1.964714    0.435757
      2          6           0       -4.807968    2.685670    1.579850
      3          6           0       -9.254125    3.279014   -0.222934
      4          6           0       -9.733209   -1.377912   -1.205420
      5          7           0       -5.244752    0.463963    0.933255
      6          6           0       -4.604062   -0.721303    0.861831
      7          6           0       -3.096620   -0.605983    1.250942
      8          6           0       -3.141967    0.760001    2.101648
      9          6           0       -4.494850    1.262394    1.469628
     10          6           0       -3.109389    0.606527    3.630965
     11          6           0       -2.037999   -0.737709    0.185428
     12          6           0       -0.605182   -0.779190    0.611243
     13          6           0        0.377066   -0.974089   -0.460200
     14          8           0        0.156136   -1.404861   -1.543561
     15          8           0        1.701681   -0.658831   -0.043389
     16          7           0       -7.001016    2.738078    0.415700
     17          6           0       -5.915534    3.313194    1.072255
     18          6           0       -6.179726    4.687606    1.290096
     19          6           0       -7.496056    4.930091    0.746495
     20          6           0       -7.960432    3.675712    0.252330
     21          6           0       -5.348198    5.670799    1.986253
     22          6           0       -8.107519    6.240087    0.649695
     23          6           0       -8.825710    6.620120   -0.485849
     24          7           0       -9.119149    0.907233   -0.657300
     25          6           0       -9.810365    2.066401   -0.662794
     26          6           0      -11.228686    1.909642   -1.159914
     27          6           0      -11.297746    0.625501   -1.612613
     28          6           0      -10.051934   -0.004454   -1.095506
     29          6           0      -12.105636    3.091129   -1.216115
     30          6           0      -12.531763   -0.011258   -2.112422
     31          6           0      -12.430432   -0.265982   -3.561674
     32          7           0       -7.498816   -1.252590   -0.331448
     33          6           0       -8.530275   -1.981866   -0.867248
     34          6           0       -8.125026   -3.410071   -0.886571
     35          6           0       -6.848490   -3.429466   -0.376974
     36          6           0       -6.467667   -2.062349   -0.043014
     37          6           0       -8.985994   -4.614535   -1.206088
     38          6           0       -5.799537   -4.360324    0.029384
     39          8           0       -5.724544   -5.509178   -0.054380
     40          6           0       -4.603269   -3.347339    0.514490
     41          6           0       -4.122723   -3.868323    1.885384
     42          8           0       -4.419725   -3.359562    3.027185
     43          8           0       -3.432995   -4.907799    1.655704
     44          6           0       -2.894016   -5.622120    2.835332
     45          6           0        2.655527   -1.009922   -1.001125
     46          6           0        3.949520   -0.533661   -0.524110
     47          6           0        4.979123    0.037105   -1.102176
     48          6           0        4.864051    0.739620   -2.548059
     49          6           0        6.240435    0.451033   -0.370757
     50          6           0        7.503735   -0.299095   -0.937458
     51          6           0        8.816246    0.021725   -0.155586
     52          6           0       10.079142   -0.669798   -0.673994
     53          6           0       10.053518   -2.275524   -0.666675
     54          6           0       11.231791   -0.165493    0.048882
     55          6           0       12.669053   -0.532765   -0.624286
     56          6           0       13.907907    0.008507    0.075747
     57          6           0       15.256545   -0.097923   -0.558994
     58          6           0       15.525852   -1.620211   -0.664467
     59          6           0       16.280953    0.581926    0.333052
     60          6           0       17.676307    0.624158   -0.359952
     61          6           0       18.643131    1.452955    0.627960
     62          6           0       20.139225    1.464485    0.109944
     63          6           0       20.221710    2.205062   -1.295152
     64          6           0       21.090632    2.168857    1.070926
     65          1           0       -3.893919    3.210151    2.090104
     66          1           0       -9.839234    4.097134   -0.572723
     67          1           0      -10.278351   -2.001953   -1.628905
     68          1           0       -2.888497   -1.367700    2.202715
     69          1           0       -2.473103    1.380260    1.866664
     70          1           0       -2.255969    0.201992    4.083860
     71          1           0       -3.067047    1.522488    4.213843
     72          1           0       -3.873904    0.045348    4.172723
     73          1           0       -2.059551   -1.646401   -0.476353
     74          1           0       -2.323444    0.118428   -0.531061
     75          1           0       -0.168631    0.170410    1.161720
     76          1           0       -0.462556   -1.442664    1.576164
     77          1           0       -4.179908    5.855797    1.642224
     78          1           0       -5.951727    6.562492    1.751598
     79          1           0       -5.228262    5.746177    3.275570
     80          1           0       -7.933967    6.734601    1.657152
     81          1           0       -9.052523    5.803436   -1.406920
     82          1           0       -9.024891    7.563065   -0.805674
     83          1           0      -12.094048    3.706668   -0.178395
     84          1           0      -11.647579    3.677474   -2.069485
     85          1           0      -13.066385    2.821423   -1.485000
     86          1           0      -12.895016   -0.773545   -1.513578
     87          1           0      -13.304053    0.659751   -1.974810
     88          1           0      -12.607015    0.654304   -3.989907
     89          1           0      -11.508096   -0.564620   -3.776257
     90          1           0      -13.266259   -1.084353   -4.019475
     91          1           0       -9.729390   -4.815296   -0.376359
     92          1           0       -9.431629   -4.499236   -2.327094
     93          1           0       -8.351150   -5.445924   -1.161591
     94          1           0       -3.837664   -3.528046   -0.106191
     95          1           0       -2.281705   -6.437950    2.530295
     96          1           0       -2.242502   -5.026350    3.456167
     97          1           0       -3.728247   -6.145110    3.447725
     98          1           0        2.667621   -2.077932   -1.120220
     99          1           0        2.279989   -0.371378   -2.024756
    100          1           0        4.150416   -0.877004    0.515864
    101          1           0        5.149520    1.787504   -2.371591
    102          1           0        5.491581    0.021467   -3.212125
    103          1           0        3.788177    0.462335   -2.834726
    104          1           0        6.396470    1.518200   -0.435516
    105          1           0        6.272854    0.330881    0.732187
    106          1           0        7.546136   -1.397702   -1.142811
    107          1           0        7.594538    0.075209   -1.881215
    108          1           0        8.894047    1.012852   -0.218763
    109          1           0        8.599472   -0.499763    0.821082
    110          1           0       10.165928   -0.345872   -1.769603
    111          1           0        9.150970   -2.475599   -1.161717
    112          1           0       10.942599   -2.528731   -1.282020
    113          1           0       10.156199   -2.688730    0.266373
    114          1           0       11.219733    0.807994    0.143577
    115          1           0       11.512099   -0.421059    0.888772
    116          1           0       12.804771   -1.577880   -0.704450
    117          1           0       12.888931   -0.226629   -1.720820
    118          1           0       13.694539    1.156291    0.253406
    119          1           0       13.747391   -0.385696    1.148420
    120          1           0       15.264934    0.282541   -1.701994
    121          1           0       14.646273   -2.061075   -1.148924
    122          1           0       16.292902   -1.930871   -1.287241
    123          1           0       15.575116   -2.031679    0.337907
    124          1           0       15.848322    1.731885    0.575480
    125          1           0       16.280331    0.012839    1.431141
    126          1           0       18.081884   -0.357935   -0.584904
    127          1           0       17.803704    1.359194   -1.363765
    128          1           0       18.199763    2.460366    0.680617
    129          1           0       18.678521    1.001805    1.706420
    130          1           0       20.578189    0.493140   -0.114758
    131          1           0       19.770788    3.315043   -1.380940
    132          1           0       21.286594    2.528577   -1.801705
    133          1           0       19.579420    1.622395   -2.115054
    134          1           0       21.089775    1.542281    2.116737
    135          1           0       22.036864    2.160575    0.520206
    136          1           0       20.686438    3.028720    1.218442
    137          1           0       -7.020605    1.740543    0.297855
    138          1           0       -7.780571   -0.239964    0.158136
 ---------------------------------------------------------------------

 SCF Done:  E(RB3LYP) =  -2732.96620629     A.U. after   17 cycles

 Excitation energies and oscillator strengths:

 Excited State   1:      Singlet-A      2.0208 eV  613.54 nm  f=0.1799  <S**2>=0.000
     235 -> 237        0.16222
     235 -> 238        0.27107
     236 -> 237        0.61368
     236 -> 238       -0.14804
 This state for optimization and/or second-order correction.
 Total Energy, E(TD-HF/TD-KS) =  -2732.89194376
 Copying the excited state density for this state as the 1-particle RhoCI density.

 The electronic state is 1-A.
 Alpha  occ. eigenvalues --  -19.20010 -19.16760 -19.13709 -19.13310 -19.10892
 Alpha  occ. eigenvalues --  -14.36793 -14.36295 -14.32363 -14.30197 -10.31890
 Alpha  occ. eigenvalues --  -10.31479 -10.28025 -10.25880 -10.24789 -10.23649
 Alpha  occ. eigenvalues --  -10.23283 -10.22839 -10.22758 -10.22726 -10.22209
 Alpha  occ. eigenvalues --  -10.22089 -10.22009 -10.21931 -10.21548 -10.21373
 Alpha  occ. eigenvalues --  -10.21294 -10.21152 -10.21069 -10.20759 -10.20658
 Alpha  occ. eigenvalues --  -10.20492 -10.20401 -10.20345 -10.20292 -10.20203
 Alpha  occ. eigenvalues --  -10.19991 -10.19988 -10.19874 -10.19748 -10.19597
 Alpha  occ. eigenvalues --  -10.19540 -10.19424 -10.19411 -10.19322 -10.19239
 Alpha  occ. eigenvalues --  -10.18999 -10.18826 -10.18816 -10.18753 -10.18509
 Alpha  occ. eigenvalues --  -10.18442 -10.18409 -10.17988 -10.17885 -10.17658
 Alpha  occ. eigenvalues --  -10.17605 -10.17511 -10.17304 -10.17272 -10.17192
 Alpha  occ. eigenvalues --  -10.17134 -10.16986 -10.16742 -10.15256  -1.11568
 Alpha  occ. eigenvalues --   -1.09506  -1.06819  -1.01881  -0.98646  -0.97870
 Alpha  occ. eigenvalues --   -0.97544  -0.96623  -0.93310  -0.84526  -0.82580
 Alpha  occ. eigenvalues --   -0.81973  -0.81818  -0.81376  -0.81270  -0.80629
 Alpha  occ. eigenvalues --   -0.80316  -0.79597  -0.79255  -0.78817  -0.77995
 Alpha  occ. eigenvalues --   -0.76696  -0.76454  -0.75931  -0.74914  -0.74363
 Alpha  occ. eigenvalues --   -0.73876  -0.72987  -0.72329  -0.71315  -0.70223
 Alpha  occ. eigenvalues --   -0.69964  -0.69553  -0.68966  -0.68283  -0.67681
 Alpha  occ. eigenvalues --   -0.67188  -0.66684  -0.66120  -0.65349  -0.64994
 Alpha  occ. eigenvalues --   -0.64148  -0.63575  -0.62852  -0.62454  -0.61824
 Alpha  occ. eigenvalues --   -0.61342  -0.59694  -0.58632  -0.58208  -0.57325
 Alpha  occ. eigenvalues --   -0.56666  -0.56568  -0.56056  -0.55206  -0.55073
 Alpha  occ. eigenvalues --   -0.54896  -0.54782  -0.53826  -0.53734  -0.53099
 Alpha  occ. eigenvalues --   -0.52809  -0.51524  -0.51167  -0.50792  -0.50464
 Alpha  occ. eigenvalues --   -0.50223  -0.49998  -0.49209  -0.49087  -0.48622
 Alpha  occ. eigenvalues --   -0.48258  -0.48023  -0.47764  -0.47413  -0.47230
 Alpha  occ. eigenvalues --   -0.46614  -0.46362  -0.46123  -0.46043  -0.45907
 Alpha  occ. eigenvalues --   -0.45718  -0.45239  -0.45146  -0.45055  -0.44784
 Alpha  occ. eigenvalues --   -0.44479  -0.44370  -0.44267  -0.43718  -0.43564
 Alpha  occ. eigenvalues --   -0.43256  -0.43154  -0.42973  -0.42678  -0.42615
 Alpha  occ. eigenvalues --   -0.42581  -0.42383  -0.42238  -0.41638  -0.41543
 Alpha  occ. eigenvalues --   -0.41352  -0.40976  -0.40772  -0.40472  -0.40380
 Alpha  occ. eigenvalues --   -0.40163  -0.40011  -0.39768  -0.39700  -0.39565
 Alpha  occ. eigenvalues --   -0.39445  -0.39096  -0.38932  -0.38765  -0.38520
 Alpha  occ. eigenvalues --   -0.38472  -0.38395  -0.38036  -0.37788  -0.37670
 Alpha  occ. eigenvalues --   -0.37587  -0.37515  -0.37408  -0.37128  -0.37000
 Alpha  occ. eigenvalues --   -0.36801  -0.36636  -0.36261  -0.36007  -0.35957
 Alpha  occ. eigenvalues --   -0.35796  -0.35628  -0.35523  -0.35000  -0.34537
 Alpha  occ. eigenvalues --   -0.34173  -0.34000  -0.33905  -0.33884  -0.33630
 Alpha  occ. eigenvalues --   -0.33306  -0.33094  -0.32873  -0.32119  -0.31979
 Alpha  occ. eigenvalues --   -0.31930  -0.31590  -0.31290  -0.31116  -0.30954
 Alpha  occ. eigenvalues --   -0.30544  -0.30484  -0.30370  -0.29857  -0.29793
 Alpha  occ. eigenvalues --   -0.29594  -0.29055  -0.28647  -0.28294  -0.27907
 Alpha  occ. eigenvalues --   -0.27537  -0.27317  -0.26611  -0.26354  -0.25851
 Alpha  occ. eigenvalues --   -0.25025  -0.24944  -0.23403  -0.23244  -0.19662
 Alpha  occ. eigenvalues --   -0.18084
 Alpha virt. eigenvalues --   -0.09744  -0.07394  -0.04496  -0.02830  -0.01138
 Alpha virt. eigenvalues --    0.00128   0.00897   0.01439   0.02314   0.03967
 Alpha virt. eigenvalues --    0.03999   0.04092   0.04732   0.04853   0.04890

 Mulliken charges:
               1
     1  C    0.031955
     2  C   -0.119645
     3  C   -0.052854
     4  C    0.042477
     5  N   -0.029745
     6  C   -0.051768
     7  C   -0.156109
     8  C    0.115022
     9  C   -0.138806
    10  C    0.095290
    11  C    0.105743
    12  C   -0.043343
    13  C    0.201433
    14  O   -0.194734
    15  O   -0.351763
    16  N   -0.039438
    17  C    0.172760
    18  C   -0.068404
    19  C   -0.014170
    20  C    0.063253
    21  C   -0.044732
    22  C   -0.020128
    23  C   -0.053928
    24  N   -0.242228
    25  C    0.025589
    26  C   -0.123805
    27  C   -0.158979
    28  C    0.103534
    29  C    0.109812
    30  C    0.184217
    31  C    0.058641
    32  N   -0.079120
    33  C    0.018314
    34  C   -0.152214
    35  C   -0.018846
    36  C    0.042627
    37  C    0.087734
    38  C    0.055053
    39  O   -0.092009
    40  C    0.011107
    41  C    0.184031
    42  O   -0.313716
    43  O   -0.238058
    44  C    0.188885
    45  C    0.247414
    46  C   -0.088398
    47  C   -0.153257
    48  C    0.049510
    49  C    0.099147
    50  C    0.005902
    51  C    0.089055
    52  C   -0.110881
    53  C    0.092171
    54  C    0.275243
    55  C   -0.020869
    56  C   -0.048970
    57  C   -0.064205
    58  C    0.084658
    59  C   -0.035733
    60  C   -0.014633
    61  C    0.000328
    62  C   -0.066831
    63  C   -0.129313
    64  C    0.102118
    65  H    0.004081
    66  H   -0.048891
    67  H   -0.156604
    68  H    0.039454
    69  H   -0.100469
    70  H   -0.018285
    71  H   -0.014699
    72  H    0.020352
    73  H    0.032524
    74  H    0.018091
    75  H    0.036713
    76  H    0.055337
    77  H    0.052033
    78  H    0.007509
    79  H    0.048912
    80  H    0.044928
    81  H    0.067129
    82  H    0.011228
    83  H    0.055951
    84  H    0.040777
    85  H   -0.016632
    86  H   -0.020111
    87  H   -0.055851
    88  H   -0.015421
    89  H   -0.013161
    90  H    0.017372
    91  H    0.046105
    92  H    0.050961
    93  H    0.009815
    94  H   -0.005826
    95  H    0.020860
    96  H    0.037837
    97  H    0.058065
    98  H    0.016936
    99  H    0.045471
   100  H   -0.013563
   101  H    0.044233
   102  H    0.040109
   103  H    0.007949
   104  H   -0.011109
   105  H   -0.013337
   106  H   -0.004378
   107  H   -0.046356
   108  H   -0.039522
   109  H   -0.001987
   110  H   -0.012669
   111  H   -0.011717
   112  H    0.015766
   113  H   -0.005780
   114  H   -0.074371
   115  H   -0.107133
   116  H   -0.012904
   117  H   -0.019453
   118  H   -0.009761
   119  H   -0.004735
   120  H    0.015147
   121  H   -0.013224
   122  H   -0.013326
   123  H   -0.005931
   124  H    0.016582
   125  H    0.024954
   126  H    0.009730
   127  H    0.033696
   128  H    0.006696
   129  H    0.006989
   130  H    0.000566
   131  H    0.012946
   132  H    0.025875
   133  H    0.035065
   134  H    0.017708
   135  H    0.014397
   136  H   -0.039616
   137  H    0.120402
   138  H    0.228175
 Sum of Mulliken charges =   0.00000

 Dipole moment (field-independent basis, Debye):
    X=              1.2792    Y=              2.0887    Z=              1.2562  Tot=              2.7527
 Quadrupole moment (field-independent basis, Debye-Ang):
   XX=           -366.2702   YY=           -374.0379   ZZ=           -394.1590
   XY=            -22.9986   XZ=              8.7271   YZ=             -5.0812

 Normal termination of Gaussian 09 at Sun Aug  4 22:39:24 2019.
