 Gaussian 09, Revision D.01,
 Gaussian 09:  ES64L-G09RevD.01 24-Apr-2013

 --------------------------
 # td=(NStates=1) B3LYP/SVP
 --------------------------

 --
 TD
 --
 Symbolic Z-matrix:
 Charge =  0 Multiplicity = 1

                         Standard orientation:
 ---------------------------------------------------------------------
 Center     Atomic      Atomic             Coordinates (Angstroms)
 Number     Number       Type             X           Y           Z
 ---------------------------------------------------------------------
      1          6           0       -5.057545   -1.974039    0.358763
      2          6           0       -4.836953    2.749900    1.403069
      3          6           0       -9.323850    3.239191   -0.261486
      4          6           0       -9.796035   -1.536967   -0.818418
      5          7           0       -5.236325    0.402742    0.784386
      6          6           0       -4.538034   -0.739901    0.756369
      7          6           0       -3.112133   -0.513706    1.168260
      8          6           0       -3.205644    0.931787    1.713875
      9          6           0       -4.487756    1.424107    1.301396
     10          6           0       -3.009284    0.913669    3.272323
     11          6           0       -2.011967   -0.702507   -0.046186
     12          6           0       -0.547478   -0.797545    0.401688
     13          6           0        0.472979   -0.992880   -0.757131
     14          8           0        0.080652   -1.390974   -1.833562
     15          8           0        1.611164   -0.649644   -0.413830
     16          7           0       -7.053540    2.684404    0.300889
     17          6           0       -5.932364    3.370841    0.836764
     18          6           0       -6.361149    4.829887    0.980556
     19          6           0       -7.611534    5.000508    0.602611
     20          6           0       -8.133213    3.604820    0.143310
     21          6           0       -5.436416    5.803600    1.576938
     22          6           0       -8.304291    6.176203    0.384181
     23          6           0       -9.183420    6.673030   -0.440628
     24          7           0       -9.236567    0.833192   -0.459398
     25          6           0       -9.933285    1.939474   -0.497062
     26          6           0      -11.340168    1.810693   -0.893582
     27          6           0      -11.410746    0.378066   -1.081559
     28          6           0      -10.126714   -0.145267   -0.848058
     29          6           0      -12.314413    2.810113   -1.030373
     30          6           0      -12.634260   -0.400466   -1.523564
     31          6           0      -12.665240   -0.425356   -3.142759
     32          7           0       -7.486343   -1.288838   -0.190344
     33          6           0       -8.575643   -2.036689   -0.481307
     34          6           0       -8.251155   -3.398762   -0.538944
     35          6           0       -6.856200   -3.425409   -0.144505
     36          6           0       -6.419567   -2.077675   -0.014832
     37          6           0       -9.042427   -4.554841   -0.989185
     38          6           0       -5.679012   -4.406256    0.097646
     39          8           0       -5.663324   -5.521772   -0.025888
     40          6           0       -4.493865   -3.290046    0.352690
     41          6           0       -3.891661   -3.722838    1.735669
     42          8           0       -4.114847   -3.250565    2.850857
     43          8           0       -3.070852   -4.743853    1.557703
     44          6           0       -2.459472   -5.449873    2.644260
     45          6           0        2.694925   -0.905290   -1.402695
     46          6           0        3.901265   -0.549880   -0.614176
     47          6           0        5.064838    0.181090   -1.046448
     48          6           0        5.146925    1.137796   -2.211421
     49          6           0        6.319648    0.240160   -0.209958
     50          6           0        7.542850   -0.284747   -0.967726
     51          6           0        8.854104   -0.211946   -0.081135
     52          6           0       10.082923   -0.793741   -0.618157
     53          6           0        9.986846   -2.237928   -0.804460
     54          6           0       11.308891   -0.371696    0.273863
     55          6           0       12.651997   -0.594238   -0.468222
     56          6           0       13.816698   -0.162357    0.370862
     57          6           0       15.223960   -0.172220   -0.441843
     58          6           0       15.676629   -1.644704   -0.660484
     59          6           0       16.255697    0.573846    0.418961
     60          6           0       17.666156    0.648804   -0.188698
     61          6           0       18.708945    1.607240    0.592937
     62          6           0       20.127839    1.664434    0.031082
     63          6           0       20.265404    2.191072   -1.305486
     64          6           0       21.034778    2.405478    1.028131
     65          1           0       -3.790436    3.404106    1.527747
     66          1           0      -10.044096    4.117421   -0.179040
     67          1           0      -10.414960   -2.163802   -1.200292
     68          1           0       -2.875075   -1.368081    1.706261
     69          1           0       -2.346181    1.638109    1.451547
     70          1           0       -1.869791    0.558045    3.304350
     71          1           0       -3.043047    1.900484    3.790354
     72          1           0       -3.893247    0.427209    3.793449
     73          1           0       -2.332336   -1.725827   -0.410578
     74          1           0       -1.985761    0.172986   -0.880798
     75          1           0       -0.575997    0.101334    0.887229
     76          1           0       -0.337319   -1.683074    1.025930
     77          1           0       -4.631298    6.128542    0.782051
     78          1           0       -6.034139    6.907489    1.536852
     79          1           0       -5.273048    5.620640    2.756420
     80          1           0       -7.931818    6.966842    1.132984
     81          1           0       -9.620330    6.045107   -1.206696
     82          1           0       -9.650630    7.667247   -0.385418
     83          1           0      -12.223909    3.746725   -0.161207
     84          1           0      -12.075803    3.650847   -2.033170
     85          1           0      -13.283387    2.521007   -1.114849
     86          1           0      -12.390226   -1.442965   -1.033431
     87          1           0      -13.648318    0.102007   -1.249013
     88          1           0      -12.691924    0.600160   -3.743267
     89          1           0      -11.970473   -1.210472   -3.503620
     90          1           0      -13.606819   -0.837134   -3.457446
     91          1           0       -9.876859   -4.781214   -0.360453
     92          1           0       -9.024986   -4.618553   -2.231291
     93          1           0       -8.756072   -5.648210   -0.793245
     94          1           0       -3.621097   -3.754256   -0.438821
     95          1           0       -1.914459   -6.360878    2.150426
     96          1           0       -1.679092   -4.874221    3.230415
     97          1           0       -3.330062   -5.745425    3.243023
     98          1           0        2.492327   -1.975770   -1.682747
     99          1           0        2.405412   -0.396897   -2.294081
    100          1           0        4.027220   -1.118951    0.231332
    101          1           0        5.492584    2.226118   -1.911034
    102          1           0        5.715744    0.910388   -3.156232
    103          1           0        4.221864    1.225761   -2.861321
    104          1           0        6.624095    1.260187    0.009334
    105          1           0        6.436241    0.003876    0.844969
    106          1           0        7.462514   -1.551637   -1.048871
    107          1           0        7.714508    0.339135   -1.900629
    108          1           0        9.016766    0.877012    0.127458
    109          1           0        8.674129   -0.718565    0.953174
    110          1           0       10.180934   -0.345953   -1.502910
    111          1           0        9.403650   -2.696309   -1.845084
    112          1           0       11.279386   -2.559806   -1.020296
    113          1           0        9.525009   -2.731439    0.217555
    114          1           0       11.380074    0.700334    0.693376
    115          1           0       11.361275   -0.862532    1.306093
    116          1           0       12.538214   -1.708922   -0.468262
    117          1           0       12.561063   -0.094589   -1.432175
    118          1           0       13.542292    0.766600    0.841275
    119          1           0       13.923990   -0.899148    1.308696
    120          1           0       15.482277    0.258053   -1.403778
    121          1           0       14.919130   -2.378287   -1.074587
    122          1           0       16.539210   -1.594799   -1.172981
    123          1           0       15.818963   -2.222994    0.372324
    124          1           0       15.899723    1.494823    0.862095
    125          1           0       16.321202   -0.081319    1.483309
    126          1           0       17.884987   -0.495828   -0.202206
    127          1           0       17.664639    1.069577   -1.184074
    128          1           0       18.367826    2.642693    0.415874
    129          1           0       18.961212    1.336295    1.641297
    130          1           0       20.485562    0.544769    0.095597
    131          1           0       19.894775    3.351293   -1.256848
    132          1           0       21.316282    1.911227   -1.563272
    133          1           0       19.568802    1.572097   -1.902656
    134          1           0       20.942974    2.018348    2.076291
    135          1           0       22.092088    2.437413    0.877088
    136          1           0       20.580328    3.440904    1.060571
    137          1           0       -6.923189    1.703733    0.243821
    138          1           0       -7.634426   -0.401365   -0.339156
 ---------------------------------------------------------------------

 SCF Done:  E(RB3LYP) =  -2732.92892759     A.U. after   17 cycles

 Excitation energies and oscillator strengths:

 Excited State   1:      Singlet-A      2.1324 eV  581.43 nm  f=0.1002  <S**2>=0.000
     235 -> 237        0.16328
     235 -> 238       -0.32120
     236 -> 237        0.58478
     236 -> 238        0.15393
 This state for optimization and/or second-order correction.
 Total Energy, E(TD-HF/TD-KS) =  -2732.85056351
 Copying the excited state density for this state as the 1-particle RhoCI density.

 The electronic state is 1-A.
 Alpha  occ. eigenvalues --  -19.18705 -19.17529 -19.13713 -19.11508 -19.10725
 Alpha  occ. eigenvalues --  -14.36435 -14.35612 -14.31532 -14.28680 -10.31327
 Alpha  occ. eigenvalues --  -10.30358 -10.28330 -10.25987 -10.25783 -10.24694
 Alpha  occ. eigenvalues --  -10.23550 -10.23122 -10.22832 -10.22543 -10.22497
 Alpha  occ. eigenvalues --  -10.22360 -10.22256 -10.22252 -10.21574 -10.21245
 Alpha  occ. eigenvalues --  -10.21005 -10.20996 -10.20911 -10.20675 -10.20648
 Alpha  occ. eigenvalues --  -10.20593 -10.20529 -10.20443 -10.20400 -10.20145
 Alpha  occ. eigenvalues --  -10.20114 -10.20080 -10.19909 -10.19890 -10.19784
 Alpha  occ. eigenvalues --  -10.19700 -10.19692 -10.19381 -10.19372 -10.19354
 Alpha  occ. eigenvalues --  -10.19311 -10.19293 -10.19184 -10.18973 -10.18861
 Alpha  occ. eigenvalues --  -10.18756 -10.18736 -10.18679 -10.18663 -10.18589
 Alpha  occ. eigenvalues --  -10.18577 -10.18460 -10.18176 -10.18165 -10.18041
 Alpha  occ. eigenvalues --  -10.18027 -10.17780 -10.17745 -10.17536  -1.12817
 Alpha  occ. eigenvalues --   -1.09537  -1.08729  -1.00204  -0.99721  -0.99052
 Alpha  occ. eigenvalues --   -0.95806  -0.94543  -0.93370  -0.84823  -0.83538
 Alpha  occ. eigenvalues --   -0.83511  -0.82138  -0.81759  -0.81063  -0.80420
 Alpha  occ. eigenvalues --   -0.80139  -0.79719  -0.79144  -0.78355  -0.78219
 Alpha  occ. eigenvalues --   -0.77255  -0.76633  -0.76102  -0.75106  -0.74149
 Alpha  occ. eigenvalues --   -0.73704  -0.73097  -0.72114  -0.71931  -0.70268
 Alpha  occ. eigenvalues --   -0.69791  -0.69048  -0.68188  -0.67952  -0.67673
 Alpha  occ. eigenvalues --   -0.66737  -0.66485  -0.65882  -0.65704  -0.65475
 Alpha  occ. eigenvalues --   -0.63987  -0.63421  -0.61931  -0.61549  -0.60907
 Alpha  occ. eigenvalues --   -0.60426  -0.59192  -0.58081  -0.57962  -0.57612
 Alpha  occ. eigenvalues --   -0.57070  -0.56787  -0.55934  -0.55835  -0.55376
 Alpha  occ. eigenvalues --   -0.55281  -0.54764  -0.54732  -0.53471  -0.53163
 Alpha  occ. eigenvalues --   -0.52141  -0.51750  -0.51544  -0.51443  -0.50726
 Alpha  occ. eigenvalues --   -0.49548  -0.49276  -0.49113  -0.48449  -0.48407
 Alpha  occ. eigenvalues --   -0.48175  -0.47680  -0.47556  -0.47397  -0.47324
 Alpha  occ. eigenvalues --   -0.46876  -0.46712  -0.46514  -0.46224  -0.45762
 Alpha  occ. eigenvalues --   -0.45597  -0.45214  -0.45149  -0.45107  -0.45024
 Alpha  occ. eigenvalues --   -0.44818  -0.44740  -0.44647  -0.44434  -0.44231
 Alpha  occ. eigenvalues --   -0.44037  -0.43617  -0.43406  -0.42996  -0.42799
 Alpha  occ. eigenvalues --   -0.42375  -0.42127  -0.41961  -0.41700  -0.41536
 Alpha  occ. eigenvalues --   -0.41224  -0.41147  -0.40710  -0.40623  -0.40450
 Alpha  occ. eigenvalues --   -0.40090  -0.39948  -0.39741  -0.39319  -0.39236
 Alpha  occ. eigenvalues --   -0.39048  -0.38807  -0.38559  -0.38307  -0.38129
 Alpha  occ. eigenvalues --   -0.38042  -0.37704  -0.37432  -0.37344  -0.36893
 Alpha  occ. eigenvalues --   -0.36890  -0.36856  -0.36739  -0.36499  -0.36061
 Alpha  occ. eigenvalues --   -0.35824  -0.35769  -0.35670  -0.35288  -0.34954
 Alpha  occ. eigenvalues --   -0.34830  -0.34470  -0.34365  -0.34326  -0.34241
 Alpha  occ. eigenvalues --   -0.34100  -0.33855  -0.33845  -0.33613  -0.33128
 Alpha  occ. eigenvalues --   -0.33091  -0.32968  -0.32954  -0.32622  -0.32398
 Alpha  occ. eigenvalues --   -0.32127  -0.32052  -0.31375  -0.31347  -0.31242
 Alpha  occ. eigenvalues --   -0.31178  -0.30982  -0.30499  -0.30358  -0.29836
 Alpha  occ. eigenvalues --   -0.29504  -0.28802  -0.28139  -0.27876  -0.27120
 Alpha  occ. eigenvalues --   -0.26890  -0.26421  -0.26375  -0.25508  -0.25377
 Alpha  occ. eigenvalues --   -0.24786  -0.24647  -0.24425  -0.20664  -0.19928
 Alpha  occ. eigenvalues --   -0.18282
 Alpha virt. eigenvalues --   -0.09025  -0.08235  -0.03590  -0.03410  -0.01633
 Alpha virt. eigenvalues --    0.00042   0.01238   0.02082   0.02586   0.03155
 Alpha virt. eigenvalues --    0.03243   0.03844   0.04343   0.04434   0.04529

 Mulliken charges:
               1
     1  C    0.118553
     2  C   -0.094928
     3  C   -0.084024
     4  C   -0.005671
     5  N   -0.179711
     6  C   -0.088148
     7  C    0.064205
     8  C   -0.047133
     9  C    0.042391
    10  C    0.008565
    11  C   -0.037466
    12  C    0.073340
    13  C    0.107184
    14  O   -0.261538
    15  O   -0.228122
    16  N   -0.112661
    17  C    0.084616
    18  C   -0.112351
    19  C    0.158335
    20  C    0.096759
    21  C   -0.008535
    22  C   -0.095840
    23  C   -0.043181
    24  N   -0.194045
    25  C    0.022450
    26  C   -0.053690
    27  C   -0.079076
    28  C    0.067546
    29  C   -0.008205
    30  C   -0.007538
    31  C   -0.008860
    32  N    0.129803
    33  C    0.051197
    34  C   -0.121175
    35  C   -0.097051
    36  C    0.074960
    37  C    0.030599
    38  C    0.102409
    39  O   -0.044821
    40  C   -0.239116
    41  C    0.195699
    42  O   -0.250837
    43  O   -0.289091
    44  C    0.151162
    45  C    0.259364
    46  C   -0.010764
    47  C   -0.039395
    48  C   -0.015359
    49  C    0.101372
    50  C   -0.058700
    51  C   -0.055793
    52  C    0.134601
    53  C   -0.121582
    54  C   -0.078704
    55  C    0.062010
    56  C    0.032033
    57  C   -0.029976
    58  C    0.012623
    59  C   -0.013731
    60  C    0.004836
    61  C    0.037088
    62  C   -0.163988
    63  C    0.052266
    64  C    0.037795
    65  H    0.032274
    66  H   -0.016446
    67  H   -0.112520
    68  H   -0.035319
    69  H    0.010110
    70  H    0.037417
    71  H    0.006496
    72  H    0.041803
    73  H    0.016999
    74  H    0.030738
    75  H   -0.011901
    76  H    0.017861
    77  H    0.057144
    78  H    0.013636
    79  H    0.079608
    80  H    0.010691
    81  H    0.012184
    82  H    0.029686
    83  H    0.033888
    84  H    0.021952
    85  H   -0.013248
    86  H    0.032349
    87  H    0.023191
    88  H    0.041464
    89  H    0.015699
    90  H   -0.008407
    91  H    0.016832
    92  H    0.065850
    93  H    0.019958
    94  H    0.100568
    95  H    0.051564
    96  H    0.046205
    97  H    0.042519
    98  H    0.037549
    99  H    0.013958
   100  H   -0.027353
   101  H    0.048036
   102  H    0.034326
   103  H    0.007297
   104  H   -0.023354
   105  H   -0.019278
   106  H    0.026156
   107  H    0.023980
   108  H   -0.011254
   109  H   -0.003905
   110  H   -0.062562
   111  H    0.055076
   112  H    0.028729
   113  H    0.035359
   114  H   -0.011223
   115  H   -0.009931
   116  H    0.014926
   117  H    0.004373
   118  H   -0.015007
   119  H    0.010545
   120  H   -0.013132
   121  H    0.017852
   122  H   -0.008109
   123  H    0.002233
   124  H   -0.014648
   125  H   -0.013341
   126  H    0.024816
   127  H   -0.002473
   128  H   -0.013575
   129  H    0.005650
   130  H   -0.008272
   131  H    0.024338
   132  H    0.020403
   133  H    0.007791
   134  H    0.000562
   135  H    0.003076
   136  H   -0.005139
   137  H    0.123156
   138  H    0.048567
 Sum of Mulliken charges =   0.00000

 Dipole moment (field-independent basis, Debye):
    X=              5.1092    Y=              3.3542    Z=             -0.0976  Tot=              6.1126
 Quadrupole moment (field-independent basis, Debye-Ang):
   XX=           -367.0124   YY=           -372.2552   ZZ=           -398.6797
   XY=            -13.0183   XZ=              4.0390   YZ=             -1.7397

 Normal termination of Gaussian 09 at Wed Jul 24 14:11:19 2019.
