 Gaussian 09, Revision D.01,
 Gaussian 09:  ES64L-G09RevD.01 24-Apr-2013

 --------------------------
 # td=(NStates=1) B3LYP/SVP
 --------------------------

 --
 TD
 --
 Symbolic Z-matrix:
 Charge =  0 Multiplicity = 1

                         Standard orientation:
 ---------------------------------------------------------------------
 Center     Atomic      Atomic             Coordinates (Angstroms)
 Number     Number       Type             X           Y           Z
 ---------------------------------------------------------------------
      1          6           0       -5.023065   -1.888286    0.496465
      2          6           0       -4.865066    2.786354    1.231786
      3          6           0       -9.438512    3.212156   -0.316979
      4          6           0       -9.683916   -1.593906   -1.016416
      5          7           0       -5.212021    0.435394    0.770598
      6          6           0       -4.425241   -0.709517    0.828234
      7          6           0       -3.053780   -0.483177    1.318829
      8          6           0       -3.161703    0.862131    1.965957
      9          6           0       -4.445302    1.348186    1.256631
     10          6           0       -3.277802    0.835067    3.614769
     11          6           0       -1.950447   -0.636043    0.167210
     12          6           0       -0.613194   -0.668035    0.655544
     13          6           0        0.284336   -0.844122   -0.515305
     14          8           0        0.102519   -1.360557   -1.571478
     15          8           0        1.584230   -0.271783   -0.252333
     16          7           0       -7.177849    2.735411    0.382248
     17          6           0       -6.020666    3.370591    0.882621
     18          6           0       -6.449119    4.777330    1.081643
     19          6           0       -7.706014    4.931351    0.554976
     20          6           0       -8.205000    3.538561    0.177955
     21          6           0       -5.506462    5.856872    1.508389
     22          6           0       -8.441541    6.180666    0.523640
     23          6           0       -9.226871    6.561596   -0.519194
     24          7           0       -9.194793    0.768608   -0.524019
     25          6           0       -9.892465    1.904938   -0.441065
     26          6           0      -11.300027    1.646003   -0.921659
     27          6           0      -11.400668    0.257145   -1.175422
     28          6           0      -10.038243   -0.200142   -0.909989
     29          6           0      -12.301457    2.766040   -1.112391
     30          6           0      -12.682539   -0.483725   -1.642741
     31          6           0      -12.593515   -0.762177   -3.149567
     32          7           0       -7.375543   -1.325116   -0.191762
     33          6           0       -8.413804   -2.118386   -0.671148
     34          6           0       -8.024656   -3.389663   -0.626808
     35          6           0       -6.627622   -3.336623   -0.345814
     36          6           0       -6.328729   -2.116558    0.029069
     37          6           0       -8.787374   -4.714012   -0.989055
     38          6           0       -5.529353   -4.227996   -0.069864
     39          8           0       -5.293738   -5.476935   -0.080501
     40          6           0       -4.336020   -3.232338    0.456649
     41          6           0       -3.853599   -3.808859    1.805986
     42          8           0       -4.115899   -3.367227    2.908234
     43          8           0       -3.069384   -4.830425    1.657180
     44          6           0       -2.537177   -5.359215    2.876319
     45          6           0        2.475020   -0.560881   -1.318216
     46          6           0        3.946141   -0.338729   -0.757942
     47          6           0        4.942110    0.264404   -1.299388
     48          6           0        4.887813    1.013541   -2.615810
     49          6           0        6.241367    0.460640   -0.409573
     50          6           0        7.463247   -0.175067   -1.142040
     51          6           0        8.763869    0.039936   -0.312875
     52          6           0       10.018261   -0.623901   -0.939662
     53          6           0        9.808335   -2.196118   -0.958821
     54          6           0       11.381006   -0.237913   -0.075924
     55          6           0       12.636408   -0.586315   -0.724016
     56          6           0       13.884773   -0.204393    0.204414
     57          6           0       15.353659   -0.268694   -0.497091
     58          6           0       15.623107   -1.770773   -0.481678
     59          6           0       16.320932    0.436209    0.419444
     60          6           0       17.741069    0.578914   -0.073261
     61          6           0       18.620796    1.435654    0.667578
     62          6           0       20.146364    1.594289    0.274917
     63          6           0       20.359314    2.124498   -1.096496
     64          6           0       20.991799    2.227492    1.363352
     65          1           0       -4.057922    3.420927    1.770314
     66          1           0      -10.160391    4.053617   -0.529941
     67          1           0      -10.437231   -2.268263   -1.193532
     68          1           0       -2.925422   -1.138694    2.026766
     69          1           0       -2.298187    1.618576    1.630624
     70          1           0       -2.292222    0.141072    4.015867
     71          1           0       -3.462755    1.743217    4.186051
     72          1           0       -4.224464    0.390832    3.737110
     73          1           0       -2.199619   -1.418569   -0.345546
     74          1           0       -2.097546    0.232203   -0.443521
     75          1           0       -0.301829    0.135655    1.497631
     76          1           0       -0.312076   -1.543115    1.330821
     77          1           0       -4.743916    5.793841    0.775575
     78          1           0       -5.987283    6.935946    1.643163
     79          1           0       -5.080714    5.600143    2.446506
     80          1           0       -8.230340    6.967936    1.295518
     81          1           0       -9.196234    5.941376   -1.455556
     82          1           0       -9.762857    7.564030   -0.540066
     83          1           0      -12.112738    3.610312   -0.263698
     84          1           0      -12.380604    3.155345   -2.300256
     85          1           0      -13.293577    2.253342   -0.995074
     86          1           0      -12.814948   -1.449132   -1.116368
     87          1           0      -13.547271   -0.011063   -1.323535
     88          1           0      -12.910769    0.306421   -3.847948
     89          1           0      -11.606100   -1.300958   -3.466247
     90          1           0      -13.315401   -1.530481   -3.278354
     91          1           0       -9.542121   -5.022961   -0.125854
     92          1           0       -9.469177   -4.565144   -1.938594
     93          1           0       -7.861386   -5.512619   -1.149059
     94          1           0       -3.566547   -3.327120   -0.256965
     95          1           0       -2.077778   -6.251273    2.611410
     96          1           0       -1.755588   -4.413700    3.306289
     97          1           0       -3.233613   -5.401358    3.790756
     98          1           0        2.384983   -1.640097   -1.869247
     99          1           0        2.364812    0.031590   -2.271124
    100          1           0        4.162032   -0.763805    0.243766
    101          1           0        5.354681    2.022011   -2.739613
    102          1           0        5.540013    0.315778   -3.225202
    103          1           0        3.844484    1.058736   -3.034881
    104          1           0        6.426863    1.483989   -0.262112
    105          1           0        5.990952   -0.000482    0.653282
    106          1           0        7.461115   -1.312122   -1.393265
    107          1           0        7.577222    0.449993   -2.016636
    108          1           0        8.890462    1.029026   -0.179249
    109          1           0        8.496366   -0.360625    0.819326
    110          1           0       10.342842   -0.236463   -1.889059
    111          1           0        8.808203   -2.413129   -1.425897
    112          1           0       10.577564   -2.585760   -1.623797
    113          1           0        9.940673   -2.449408    0.197990
    114          1           0       11.237647    0.684425    0.238308
    115          1           0       11.330680   -0.702351    0.908439
    116          1           0       12.696733   -1.701046   -0.921555
    117          1           0       12.844795   -0.102442   -1.688977
    118          1           0       13.814512    0.809161    0.432769
    119          1           0       13.877425   -0.717833    1.243018
    120          1           0       15.336947    0.236358   -1.515155
    121          1           0       14.846983   -2.020085   -1.254801
    122          1           0       16.533083   -1.812128   -0.959670
    123          1           0       15.727966   -2.331290    0.468975
    124          1           0       15.869499    1.595503    0.611192
    125          1           0       16.292745   -0.082589    1.453885
    126          1           0       17.882939   -0.424568   -0.058436
    127          1           0       17.667397    0.881357   -1.185612
    128          1           0       18.378578    2.491783    0.484187
    129          1           0       18.595421    1.262622    1.812489
    130          1           0       20.551663    0.666360    0.242537
    131          1           0       20.080443    3.150157   -1.240346
    132          1           0       21.312092    1.971544   -1.243420
    133          1           0       19.981182    1.372067   -1.920589
    134          1           0       21.230489    1.574655    2.228338
    135          1           0       21.961865    2.433478    0.896910
    136          1           0       20.599039    3.276716    1.666222
    137          1           0       -7.505011    1.776195    0.190131
    138          1           0       -7.482807   -0.322297   -0.132687
 ---------------------------------------------------------------------

 SCF Done:  E(RB3LYP) =  -2733.06535149     A.U. after   17 cycles

 Excitation energies and oscillator strengths:

 Excited State   1:      Singlet-A      2.1995 eV  563.68 nm  f=0.1824  <S**2>=0.000
     235 -> 237       -0.13832
     235 -> 238       -0.24473
     236 -> 237        0.62914
     236 -> 238       -0.14770
 This state for optimization and/or second-order correction.
 Total Energy, E(TD-HF/TD-KS) =  -2732.98452018
 Copying the excited state density for this state as the 1-particle RhoCI density.

 The electronic state is 1-A.
 Alpha  occ. eigenvalues --  -19.18141 -19.17006 -19.14301 -19.11545 -19.11197
 Alpha  occ. eigenvalues --  -14.37077 -14.36020 -14.32772 -14.30402 -10.32272
 Alpha  occ. eigenvalues --  -10.30805 -10.27655 -10.25745 -10.25219 -10.24906
 Alpha  occ. eigenvalues --  -10.24111 -10.23973 -10.22450 -10.22361 -10.22236
 Alpha  occ. eigenvalues --  -10.22168 -10.21972 -10.21938 -10.21928 -10.21670
 Alpha  occ. eigenvalues --  -10.21425 -10.21380 -10.21325 -10.21274 -10.20970
 Alpha  occ. eigenvalues --  -10.20760 -10.20707 -10.20612 -10.20578 -10.20375
 Alpha  occ. eigenvalues --  -10.20143 -10.19975 -10.19788 -10.19675 -10.19282
 Alpha  occ. eigenvalues --  -10.19257 -10.19256 -10.19252 -10.19149 -10.19139
 Alpha  occ. eigenvalues --  -10.19100 -10.18987 -10.18924 -10.18870 -10.18671
 Alpha  occ. eigenvalues --  -10.18618 -10.18526 -10.18350 -10.18143 -10.18135
 Alpha  occ. eigenvalues --  -10.17830 -10.17772 -10.17651 -10.17296 -10.17242
 Alpha  occ. eigenvalues --  -10.17034 -10.16953 -10.16637 -10.16449  -1.11155
 Alpha  occ. eigenvalues --   -1.09243  -1.00846  -1.00124  -0.99618  -0.98994
 Alpha  occ. eigenvalues --   -0.98607  -0.96733  -0.94357  -0.85367  -0.83872
 Alpha  occ. eigenvalues --   -0.82874  -0.82268  -0.81312  -0.81250  -0.80542
 Alpha  occ. eigenvalues --   -0.80342  -0.79505  -0.79186  -0.78807  -0.78471
 Alpha  occ. eigenvalues --   -0.76701  -0.76363  -0.75918  -0.74871  -0.74462
 Alpha  occ. eigenvalues --   -0.73673  -0.73384  -0.72310  -0.71270  -0.70989
 Alpha  occ. eigenvalues --   -0.69525  -0.69099  -0.68179  -0.68089  -0.67301
 Alpha  occ. eigenvalues --   -0.66891  -0.66832  -0.66203  -0.65933  -0.65723
 Alpha  occ. eigenvalues --   -0.64288  -0.63138  -0.62697  -0.61610  -0.61273
 Alpha  occ. eigenvalues --   -0.61132  -0.59069  -0.58358  -0.58229  -0.57759
 Alpha  occ. eigenvalues --   -0.57182  -0.56586  -0.55842  -0.55534  -0.55252
 Alpha  occ. eigenvalues --   -0.55058  -0.54891  -0.54093  -0.53608  -0.53223
 Alpha  occ. eigenvalues --   -0.52847  -0.51855  -0.51406  -0.51158  -0.50475
 Alpha  occ. eigenvalues --   -0.50253  -0.49620  -0.49167  -0.48155  -0.47901
 Alpha  occ. eigenvalues --   -0.47868  -0.47817  -0.47650  -0.47465  -0.47265
 Alpha  occ. eigenvalues --   -0.46901  -0.46712  -0.46282  -0.46020  -0.45908
 Alpha  occ. eigenvalues --   -0.45640  -0.45406  -0.44897  -0.44783  -0.44630
 Alpha  occ. eigenvalues --   -0.44388  -0.44028  -0.43748  -0.43572  -0.43414
 Alpha  occ. eigenvalues --   -0.43328  -0.43008  -0.42690  -0.42651  -0.42440
 Alpha  occ. eigenvalues --   -0.42291  -0.42228  -0.41959  -0.41882  -0.41369
 Alpha  occ. eigenvalues --   -0.41219  -0.41101  -0.40670  -0.40568  -0.40241
 Alpha  occ. eigenvalues --   -0.39968  -0.39925  -0.39822  -0.39577  -0.39472
 Alpha  occ. eigenvalues --   -0.39163  -0.38824  -0.38656  -0.38593  -0.38151
 Alpha  occ. eigenvalues --   -0.38060  -0.37884  -0.37695  -0.37554  -0.37533
 Alpha  occ. eigenvalues --   -0.37308  -0.37071  -0.36898  -0.36807  -0.36740
 Alpha  occ. eigenvalues --   -0.36427  -0.36335  -0.36254  -0.35960  -0.35818
 Alpha  occ. eigenvalues --   -0.35602  -0.35539  -0.35392  -0.35332  -0.35296
 Alpha  occ. eigenvalues --   -0.34991  -0.34736  -0.34407  -0.34320  -0.34051
 Alpha  occ. eigenvalues --   -0.33846  -0.33708  -0.33425  -0.33328  -0.32805
 Alpha  occ. eigenvalues --   -0.32128  -0.32056  -0.31841  -0.31384  -0.31225
 Alpha  occ. eigenvalues --   -0.31199  -0.30970  -0.30649  -0.29835  -0.29707
 Alpha  occ. eigenvalues --   -0.29457  -0.29138  -0.29042  -0.28699  -0.28265
 Alpha  occ. eigenvalues --   -0.27307  -0.27036  -0.26565  -0.26508  -0.25769
 Alpha  occ. eigenvalues --   -0.24341  -0.24321  -0.23947  -0.22564  -0.20726
 Alpha  occ. eigenvalues --   -0.19047
 Alpha virt. eigenvalues --   -0.10107  -0.07756  -0.04568  -0.02190  -0.01052
 Alpha virt. eigenvalues --    0.00145   0.00960   0.02187   0.02814   0.03012
 Alpha virt. eigenvalues --    0.03166   0.04184   0.04923   0.05065   0.05104

 Mulliken charges:
               1
     1  C    0.046110
     2  C   -0.101424
     3  C   -0.118078
     4  C   -0.043634
     5  N   -0.118986
     6  C   -0.154037
     7  C    0.159670
     8  C   -0.118324
     9  C   -0.079428
    10  C    0.047229
    11  C    0.204870
    12  C    0.012883
    13  C    0.187375
    14  O   -0.191040
    15  O   -0.347258
    16  N   -0.047357
    17  C    0.194593
    18  C   -0.152527
    19  C    0.036859
    20  C    0.045213
    21  C    0.120936
    22  C   -0.074455
    23  C   -0.062348
    24  N   -0.234290
    25  C    0.081790
    26  C   -0.163245
    27  C   -0.078404
    28  C    0.036367
    29  C    0.003687
    30  C    0.109972
    31  C   -0.034612
    32  N    0.004371
    33  C    0.100788
    34  C   -0.124788
    35  C   -0.005089
    36  C    0.079754
    37  C   -0.015756
    38  C    0.064180
    39  O   -0.230747
    40  C   -0.059810
    41  C    0.180360
    42  O   -0.253381
    43  O   -0.235147
    44  C    0.139848
    45  C    0.215480
    46  C   -0.090317
    47  C   -0.123149
    48  C    0.044872
    49  C    0.073447
    50  C   -0.013819
    51  C    0.045176
    52  C   -0.086678
    53  C    0.013841
    54  C    0.101543
    55  C    0.071463
    56  C    0.000286
    57  C   -0.125741
    58  C    0.108982
    59  C   -0.082543
    60  C    0.136038
    61  C    0.058517
    62  C   -0.065019
    63  C    0.095847
    64  C    0.017436
    65  H   -0.003269
    66  H    0.001545
    67  H   -0.064414
    68  H   -0.090647
    69  H    0.015174
    70  H    0.055824
    71  H    0.020895
    72  H    0.018730
    73  H   -0.046195
    74  H   -0.001955
    75  H    0.052154
    76  H    0.043796
    77  H    0.029164
    78  H    0.040371
    79  H    0.010844
    80  H    0.016170
    81  H    0.046877
    82  H    0.041364
    83  H    0.058546
    84  H    0.050741
    85  H    0.015448
    86  H   -0.004726
    87  H   -0.022174
    88  H    0.043906
    89  H    0.037211
    90  H   -0.000171
    91  H    0.050680
    92  H    0.040808
    93  H    0.083585
    94  H    0.040236
    95  H    0.032713
    96  H    0.026410
    97  H    0.064903
    98  H    0.044558
    99  H   -0.001798
   100  H   -0.019697
   101  H    0.024699
   102  H    0.029883
   103  H    0.016792
   104  H   -0.010787
   105  H    0.009622
   106  H    0.025005
   107  H   -0.007020
   108  H   -0.046574
   109  H   -0.000358
   110  H   -0.015725
   111  H    0.017249
   112  H    0.011262
   113  H    0.035652
   114  H   -0.068496
   115  H   -0.032604
   116  H    0.007760
   117  H   -0.012571
   118  H   -0.035863
   119  H    0.002019
   120  H    0.006661
   121  H    0.005175
   122  H   -0.030853
   123  H    0.023260
   124  H   -0.011731
   125  H    0.000435
   126  H   -0.055207
   127  H   -0.006923
   128  H   -0.019792
   129  H   -0.004016
   130  H   -0.053928
   131  H    0.006941
   132  H   -0.049388
   133  H    0.009691
   134  H    0.019017
   135  H   -0.010822
   136  H    0.009650
   137  H    0.149690
   138  H    0.126232
 Sum of Mulliken charges =   0.00000

 Dipole moment (field-independent basis, Debye):
    X=              0.7659    Y=              5.7281    Z=              0.9537  Tot=              5.8573
 Quadrupole moment (field-independent basis, Debye-Ang):
   XX=           -334.5064   YY=           -387.9670   ZZ=           -391.5594
   XY=            -30.8568   XZ=             -1.3635   YZ=             -1.2915

 Normal termination of Gaussian 09 at Thu Aug  1 06:55:38 2019.
