 Gaussian 09, Revision D.01,
 Gaussian 09:  ES64L-G09RevD.01 24-Apr-2013

 --------------------------
 # td=(NStates=1) B3LYP/SVP
 --------------------------

 --
 TD
 --
 Symbolic Z-matrix:
 Charge =  0 Multiplicity = 1

                         Standard orientation:
 ---------------------------------------------------------------------
 Center     Atomic      Atomic             Coordinates (Angstroms)
 Number     Number       Type             X           Y           Z
 ---------------------------------------------------------------------
      1          6           0       -5.013828   -1.855920    0.479948
      2          6           0       -4.902263    2.839783    1.195213
      3          6           0       -9.453316    3.279175   -0.115401
      4          6           0       -9.781634   -1.524663   -0.885975
      5          7           0       -5.373864    0.523881    0.750626
      6          6           0       -4.447023   -0.645749    0.816733
      7          6           0       -2.997471   -0.329507    1.235991
      8          6           0       -3.071010    1.029833    1.554668
      9          6           0       -4.394013    1.458004    1.071261
     10          6           0       -2.839256    1.356742    3.070862
     11          6           0       -2.058357   -0.784178    0.103001
     12          6           0       -0.504090   -0.650965    0.562168
     13          6           0        0.430627   -1.078858   -0.528721
     14          8           0        0.218977   -1.621097   -1.540621
     15          8           0        1.703860   -0.862285   -0.076233
     16          7           0       -7.123505    2.769357    0.456887
     17          6           0       -6.037651    3.435981    0.890025
     18          6           0       -6.391603    4.840470    0.899207
     19          6           0       -7.721800    4.938449    0.541296
     20          6           0       -8.240978    3.613726    0.270696
     21          6           0       -5.553669    6.016361    1.264295
     22          6           0       -8.403587    6.123593    0.327263
     23          6           0       -9.443274    6.480376   -0.601715
     24          7           0       -9.246163    0.889563   -0.436927
     25          6           0       -9.995321    2.002180   -0.480763
     26          6           0      -11.397487    1.738655   -0.815244
     27          6           0      -11.471307    0.341095   -0.970721
     28          6           0      -10.128828   -0.192528   -0.753171
     29          6           0      -12.446466    2.744319   -1.128168
     30          6           0      -12.612858   -0.460353   -1.485072
     31          6           0      -12.670665   -0.594772   -3.004797
     32          7           0       -7.362214   -1.283293   -0.280520
     33          6           0       -8.481107   -2.091627   -0.741364
     34          6           0       -8.010567   -3.379944   -0.694206
     35          6           0       -6.716097   -3.408773   -0.296036
     36          6           0       -6.320396   -2.064017   -0.002017
     37          6           0       -8.874831   -4.682035   -0.995903
     38          6           0       -5.610639   -4.256007   -0.000528
     39          8           0       -5.585311   -5.443493   -0.165547
     40          6           0       -4.444276   -3.322613    0.427828
     41          6           0       -3.852056   -3.800464    1.703039
     42          8           0       -4.011920   -3.364941    2.819801
     43          8           0       -3.001492   -4.827310    1.477552
     44          6           0       -2.360124   -5.384430    2.694501
     45          6           0        2.831701   -1.356637   -1.005121
     46          6           0        4.153331   -0.925604   -0.438428
     47          6           0        4.921134    0.078846   -1.017355
     48          6           0        4.642476    0.724993   -2.284264
     49          6           0        6.277629    0.328980   -0.315015
     50          6           0        7.524199   -0.368553   -0.900205
     51          6           0        8.775945   -0.213265   -0.092435
     52          6           0       10.091080   -0.667363   -0.633297
     53          6           0       10.102896   -2.219405   -0.731600
     54          6           0       11.345336   -0.168110    0.153656
     55          6           0       12.671796   -0.495310   -0.438368
     56          6           0       13.831175    0.173364    0.315346
     57          6           0       15.190411   -0.245644   -0.276240
     58          6           0       15.628501   -1.735214   -0.182046
     59          6           0       16.299099    0.710451    0.434343
     60          6           0       17.661358    0.669565   -0.128160
     61          6           0       18.735100    1.639602    0.534244
     62          6           0       20.172594    1.719383   -0.101280
     63          6           0       20.219691    1.937856   -1.601888
     64          6           0       20.954269    2.690324    0.734738
     65          1           0       -4.029942    3.604960    1.565781
     66          1           0      -10.227631    4.023180   -0.208486
     67          1           0      -10.690499   -2.187788   -1.208578
     68          1           0       -2.914920   -0.897511    2.271145
     69          1           0       -2.207235    1.383011    0.891045
     70          1           0       -1.802590    1.082379    3.260587
     71          1           0       -2.862825    2.469349    3.160665
     72          1           0       -3.461243    1.075713    3.549647
     73          1           0       -2.300160   -1.774501   -0.299246
     74          1           0       -2.356962   -0.014369   -0.633576
     75          1           0       -0.445098    0.251748    0.975834
     76          1           0       -0.320166   -1.381956    1.462888
     77          1           0       -4.597019    6.015443    0.563269
     78          1           0       -6.049429    6.985716    1.269416
     79          1           0       -5.055234    5.791467    2.168158
     80          1           0       -8.332770    6.802041    1.240611
     81          1           0       -9.660677    6.062501   -1.491183
     82          1           0      -10.196607    7.356925   -0.452161
     83          1           0      -12.719632    3.203267   -0.211327
     84          1           0      -12.237841    3.338978   -1.932309
     85          1           0      -13.516115    2.229967   -1.393549
     86          1           0      -12.780747   -1.393272   -1.007297
     87          1           0      -13.556214    0.049818   -1.241513
     88          1           0      -12.758999    0.402786   -3.556914
     89          1           0      -11.774767   -1.176498   -3.200128
     90          1           0      -13.559033   -1.134554   -3.183138
     91          1           0       -9.560904   -4.719341   -0.406142
     92          1           0       -9.374605   -4.487209   -2.000943
     93          1           0       -8.269456   -5.602586   -1.071340
     94          1           0       -3.532399   -3.751577   -0.390067
     95          1           0       -1.555009   -6.139042    2.271942
     96          1           0       -1.848450   -4.838425    3.231162
     97          1           0       -3.016137   -5.838305    3.382588
     98          1           0        2.749094   -2.551334   -0.969015
     99          1           0        2.464123   -1.058567   -2.141274
    100          1           0        4.194338   -1.373788    0.486672
    101          1           0        4.923152    1.777924   -2.337604
    102          1           0        5.530809    0.738426   -3.077631
    103          1           0        3.672115    0.448034   -2.817062
    104          1           0        6.399368    1.472391   -0.546772
    105          1           0        6.220140    0.250589    0.938010
    106          1           0        7.359273   -1.333559   -1.042859
    107          1           0        7.666431    0.138788   -1.834800
    108          1           0        8.780104    0.901442    0.129757
    109          1           0        8.752884   -0.708262    0.831345
    110          1           0       10.285879   -0.284723   -1.664984
    111          1           0        9.619035   -2.720839   -1.492332
    112          1           0       11.095377   -2.886809   -0.911901
    113          1           0        9.597374   -2.739571    0.338550
    114          1           0       11.314814    1.036322    0.063959
    115          1           0       11.212508   -0.415393    1.407017
    116          1           0       12.813924   -1.727932   -0.382750
    117          1           0       12.858154   -0.075583   -1.559686
    118          1           0       13.691622    1.260763    0.283101
    119          1           0       13.790382   -0.044190    1.393910
    120          1           0       15.083888    0.162106   -1.418403
    121          1           0       14.830285   -2.149060   -0.768353
    122          1           0       16.621143   -1.983314   -0.515489
    123          1           0       15.520714   -2.182446    0.813927
    124          1           0       16.101619    1.700326    0.518590
    125          1           0       16.224102    0.361293    1.526628
    126          1           0       18.014767   -0.381124    0.042818
    127          1           0       17.645435    0.962008   -1.265206
    128          1           0       18.261011    2.526401    0.564793
    129          1           0       18.675729    1.441065    1.580292
    130          1           0       20.690092    0.854913    0.032623
    131          1           0       19.636485    2.907772   -1.987982
    132          1           0       21.312545    1.711154   -1.815771
    133          1           0       19.363151    1.328189   -2.059302
    134          1           0       21.016621    2.439128    1.860179
    135          1           0       22.019822    2.972658    0.369360
    136          1           0       20.498713    3.654520    0.755922
    137          1           0       -7.263704    1.745961    0.298883
    138          1           0       -7.399702   -0.369103   -0.363006
 ---------------------------------------------------------------------

 SCF Done:  E(RB3LYP) =  -2732.92318162     A.U. after   18 cycles

 Excitation energies and oscillator strengths:

 Excited State   1:      Singlet-A      2.2124 eV  560.40 nm  f=0.1163  <S**2>=0.000
     235 -> 238        0.31454
     236 -> 237        0.62478
 This state for optimization and/or second-order correction.
 Total Energy, E(TD-HF/TD-KS) =  -2732.84187690
 Copying the excited state density for this state as the 1-particle RhoCI density.

 The electronic state is 1-A.
 Alpha  occ. eigenvalues --  -19.17207 -19.15932 -19.12619 -19.11621 -19.10878
 Alpha  occ. eigenvalues --  -14.35966 -14.35773 -14.34218 -14.29645 -10.30989
 Alpha  occ. eigenvalues --  -10.30763 -10.26526 -10.26056 -10.24472 -10.23574
 Alpha  occ. eigenvalues --  -10.23524 -10.23022 -10.22896 -10.22889 -10.22713
 Alpha  occ. eigenvalues --  -10.22454 -10.21948 -10.21700 -10.21590 -10.21562
 Alpha  occ. eigenvalues --  -10.21193 -10.21062 -10.21023 -10.20995 -10.20845
 Alpha  occ. eigenvalues --  -10.20819 -10.20786 -10.20729 -10.20683 -10.20650
 Alpha  occ. eigenvalues --  -10.20563 -10.20507 -10.20467 -10.20398 -10.20201
 Alpha  occ. eigenvalues --  -10.20180 -10.19949 -10.19912 -10.19566 -10.19305
 Alpha  occ. eigenvalues --  -10.19121 -10.18866 -10.18627 -10.18436 -10.18382
 Alpha  occ. eigenvalues --  -10.18348 -10.18275 -10.18253 -10.18153 -10.18081
 Alpha  occ. eigenvalues --  -10.18053 -10.17971 -10.17879 -10.17842 -10.17811
 Alpha  occ. eigenvalues --  -10.17689 -10.17198 -10.17078 -10.16860  -1.08968
 Alpha  occ. eigenvalues --   -1.08417  -1.02572  -0.99680  -0.99171  -0.98167
 Alpha  occ. eigenvalues --   -0.97761  -0.93622  -0.91908  -0.84283  -0.83375
 Alpha  occ. eigenvalues --   -0.83062  -0.82501  -0.81713  -0.81435  -0.81017
 Alpha  occ. eigenvalues --   -0.80510  -0.79880  -0.79427  -0.78658  -0.77939
 Alpha  occ. eigenvalues --   -0.77149  -0.75986  -0.75418  -0.75003  -0.74646
 Alpha  occ. eigenvalues --   -0.73951  -0.73566  -0.72697  -0.72165  -0.71865
 Alpha  occ. eigenvalues --   -0.70617  -0.70096  -0.69592  -0.68152  -0.67883
 Alpha  occ. eigenvalues --   -0.67565  -0.67274  -0.66563  -0.66308  -0.65869
 Alpha  occ. eigenvalues --   -0.64570  -0.64069  -0.63177  -0.62592  -0.61544
 Alpha  occ. eigenvalues --   -0.60800  -0.59566  -0.58883  -0.58071  -0.57110
 Alpha  occ. eigenvalues --   -0.56802  -0.56296  -0.56135  -0.55711  -0.55118
 Alpha  occ. eigenvalues --   -0.54831  -0.54795  -0.54134  -0.54023  -0.53660
 Alpha  occ. eigenvalues --   -0.53063  -0.52572  -0.51622  -0.51286  -0.50569
 Alpha  occ. eigenvalues --   -0.49703  -0.49022  -0.48985  -0.48596  -0.48225
 Alpha  occ. eigenvalues --   -0.48047  -0.47699  -0.47571  -0.47349  -0.46992
 Alpha  occ. eigenvalues --   -0.46830  -0.46778  -0.46460  -0.46220  -0.45767
 Alpha  occ. eigenvalues --   -0.45707  -0.45280  -0.45272  -0.45026  -0.44950
 Alpha  occ. eigenvalues --   -0.44580  -0.44398  -0.44353  -0.44169  -0.43953
 Alpha  occ. eigenvalues --   -0.43409  -0.43349  -0.43013  -0.42828  -0.42370
 Alpha  occ. eigenvalues --   -0.42278  -0.42119  -0.41907  -0.41857  -0.41569
 Alpha  occ. eigenvalues --   -0.41272  -0.40949  -0.40867  -0.40713  -0.40415
 Alpha  occ. eigenvalues --   -0.40289  -0.40001  -0.39919  -0.39616  -0.39249
 Alpha  occ. eigenvalues --   -0.39033  -0.38962  -0.38740  -0.38646  -0.38447
 Alpha  occ. eigenvalues --   -0.38296  -0.38162  -0.37955  -0.37911  -0.37276
 Alpha  occ. eigenvalues --   -0.36938  -0.36885  -0.36770  -0.36759  -0.36547
 Alpha  occ. eigenvalues --   -0.36279  -0.36103  -0.35999  -0.35902  -0.35818
 Alpha  occ. eigenvalues --   -0.35466  -0.35415  -0.35094  -0.34750  -0.34648
 Alpha  occ. eigenvalues --   -0.34581  -0.34358  -0.34051  -0.33789  -0.33657
 Alpha  occ. eigenvalues --   -0.33593  -0.33533  -0.33265  -0.33081  -0.33019
 Alpha  occ. eigenvalues --   -0.32627  -0.32187  -0.32011  -0.31702  -0.31593
 Alpha  occ. eigenvalues --   -0.31273  -0.31169  -0.30574  -0.30396  -0.30311
 Alpha  occ. eigenvalues --   -0.30051  -0.29691  -0.29543  -0.28409  -0.28118
 Alpha  occ. eigenvalues --   -0.28049  -0.27178  -0.26412  -0.26207  -0.25959
 Alpha  occ. eigenvalues --   -0.24318  -0.24291  -0.23336  -0.22000  -0.19838
 Alpha  occ. eigenvalues --   -0.19191
 Alpha virt. eigenvalues --   -0.09578  -0.07756  -0.04378  -0.02904  -0.02370
 Alpha virt. eigenvalues --   -0.00690  -0.00450   0.00892   0.01883   0.03319
 Alpha virt. eigenvalues --    0.03708   0.03909   0.03995   0.04339   0.04676

 Mulliken charges:
               1
     1  C    0.087265
     2  C   -0.167701
     3  C   -0.098673
     4  C   -0.086891
     5  N   -0.250662
     6  C   -0.110579
     7  C   -0.020368
     8  C   -0.023983
     9  C    0.017258
    10  C    0.295554
    11  C    0.047025
    12  C    0.063657
    13  C    0.196073
    14  O   -0.184925
    15  O   -0.368266
    16  N   -0.098439
    17  C    0.162733
    18  C   -0.122208
    19  C    0.076031
    20  C    0.189441
    21  C    0.130562
    22  C   -0.114172
    23  C   -0.045340
    24  N   -0.259185
    25  C   -0.003882
    26  C   -0.148810
    27  C   -0.063981
    28  C    0.052734
    29  C    0.132538
    30  C    0.044993
    31  C    0.048635
    32  N    0.024266
    33  C    0.077991
    34  C   -0.193444
    35  C    0.044850
    36  C    0.022461
    37  C    0.236059
    38  C    0.036184
    39  O   -0.154426
    40  C   -0.168602
    41  C    0.210121
    42  O   -0.231424
    43  O   -0.323941
    44  C    0.290274
    45  C    0.135263
    46  C   -0.026854
    47  C   -0.054585
    48  C    0.055839
    49  C   -0.053889
    50  C    0.176450
    51  C    0.049090
    52  C   -0.001039
    53  C   -0.053643
    54  C   -0.038927
    55  C   -0.039192
    56  C    0.042950
    57  C   -0.118477
    58  C    0.078332
    59  C    0.038342
    60  C    0.013109
    61  C    0.058065
    62  C    0.020089
    63  C   -0.012403
    64  C    0.006429
    65  H   -0.009499
    66  H   -0.046048
    67  H    0.018145
    68  H    0.035524
    69  H   -0.002013
    70  H    0.014393
    71  H   -0.000271
    72  H   -0.118444
    73  H    0.032381
    74  H    0.012804
    75  H   -0.025539
    76  H    0.052836
    77  H    0.026444
    78  H    0.027487
    79  H    0.005285
    80  H    0.033760
    81  H    0.003439
    82  H    0.041281
    83  H    0.012700
    84  H    0.013503
    85  H    0.007549
    86  H   -0.011678
    87  H   -0.021820
    88  H    0.024648
    89  H    0.005617
    90  H   -0.001335
    91  H   -0.067467
    92  H    0.008524
    93  H    0.043587
    94  H    0.111280
    95  H    0.033662
    96  H   -0.052954
    97  H    0.017600
    98  H    0.036013
    99  H    0.058388
   100  H   -0.024240
   101  H    0.001064
   102  H    0.014814
   103  H    0.046631
   104  H    0.000269
   105  H    0.035013
   106  H   -0.044028
   107  H   -0.022175
   108  H   -0.012411
   109  H   -0.025831
   110  H   -0.013781
   111  H   -0.004078
   112  H    0.018680
   113  H    0.011503
   114  H    0.004075
   115  H    0.022756
   116  H    0.034125
   117  H    0.018872
   118  H   -0.010876
   119  H   -0.015660
   120  H    0.000810
   121  H    0.001538
   122  H    0.020370
   123  H    0.003128
   124  H   -0.052126
   125  H   -0.014616
   126  H   -0.002507
   127  H    0.007442
   128  H   -0.055335
   129  H   -0.034232
   130  H   -0.032754
   131  H    0.005831
   132  H    0.040318
   133  H    0.011577
   134  H    0.010881
   135  H    0.004201
   136  H   -0.018370
   137  H    0.160950
   138  H    0.066635
 Sum of Mulliken charges =   0.00000

 Dipole moment (field-independent basis, Debye):
    X=              2.7700    Y=              5.3083    Z=              0.3468  Tot=              5.9975
 Quadrupole moment (field-independent basis, Debye-Ang):
   XX=           -361.1778   YY=           -389.6081   ZZ=           -392.8492
   XY=            -31.2524   XZ=              8.5918   YZ=             -3.2301

 Normal termination of Gaussian 09 at Thu Aug  1 09:12:23 2019.
