 Gaussian 09, Revision D.01,
 Gaussian 09:  ES64L-G09RevD.01 24-Apr-2013

 --------------------------
 # td=(NStates=1) B3LYP/SVP
 --------------------------

 --
 TD
 --
 Symbolic Z-matrix:
 Charge =  0 Multiplicity = 1

                         Standard orientation:
 ---------------------------------------------------------------------
 Center     Atomic      Atomic             Coordinates (Angstroms)
 Number     Number       Type             X           Y           Z
 ---------------------------------------------------------------------
      1          6           0       -5.101562   -1.929309    0.424885
      2          6           0       -4.655144    2.758551    1.325085
      3          6           0       -9.312433    3.362344   -0.229673
      4          6           0       -9.868198   -1.449502   -0.846233
      5          7           0       -5.183808    0.429668    0.906609
      6          6           0       -4.429177   -0.727175    0.843481
      7          6           0       -3.036880   -0.568087    1.254972
      8          6           0       -2.990131    0.862877    1.719953
      9          6           0       -4.407912    1.439241    1.362819
     10          6           0       -2.937546    0.919560    3.355360
     11          6           0       -2.142807   -0.912434    0.158102
     12          6           0       -0.684391   -0.840948    0.479834
     13          6           0        0.372179   -1.153838   -0.622818
     14          8           0       -0.012706   -1.581379   -1.765244
     15          8           0        1.621278   -0.743063   -0.425533
     16          7           0       -7.033807    2.789921    0.574873
     17          6           0       -5.919259    3.446433    0.973236
     18          6           0       -6.208416    4.849774    1.006350
     19          6           0       -7.494793    5.005832    0.552558
     20          6           0       -8.105683    3.668995    0.274624
     21          6           0       -5.076465    5.939715    1.302134
     22          6           0       -8.218155    6.233506    0.447234
     23          6           0       -8.988118    6.620488   -0.593142
     24          7           0       -9.270726    0.854791   -0.310428
     25          6           0       -9.798758    2.111744   -0.528725
     26          6           0      -11.248431    1.996069   -0.954052
     27          6           0      -11.432822    0.648929   -1.013564
     28          6           0      -10.202577   -0.075993   -0.724578
     29          6           0      -12.377175    2.958170   -1.054719
     30          6           0      -12.605992   -0.136115   -1.620812
     31          6           0      -12.704770   -0.387608   -3.014185
     32          7           0       -7.496559   -1.293579   -0.277903
     33          6           0       -8.634793   -2.063990   -0.524327
     34          6           0       -8.235224   -3.469915   -0.572748
     35          6           0       -6.817424   -3.480590   -0.266221
     36          6           0       -6.431033   -2.036116   -0.057650
     37          6           0       -9.071793   -4.526527   -0.988209
     38          6           0       -5.752982   -4.329050   -0.023212
     39          8           0       -5.696634   -5.512417    0.006688
     40          6           0       -4.526730   -3.301840    0.375819
     41          6           0       -3.892096   -3.900153    1.727511
     42          8           0       -4.195581   -3.457609    2.823743
     43          8           0       -3.113071   -4.824014    1.641200
     44          6           0       -2.487867   -5.472004    2.766165
     45          6           0        2.696564   -1.124525   -1.290591
     46          6           0        4.010015   -0.828440   -0.720485
     47          6           0        5.004683   -0.004669   -1.260973
     48          6           0        4.960213    0.521265   -2.679549
     49          6           0        6.314427    0.171572   -0.522134
     50          6           0        7.585693   -0.413784   -1.062588
     51          6           0        8.763001   -0.257297   -0.131843
     52          6           0       10.096685   -0.714075   -0.749278
     53          6           0       10.102088   -2.136389   -1.118654
     54          6           0       11.257339   -0.261807    0.103980
     55          6           0       12.662972   -0.469565   -0.569891
     56          6           0       13.868154   -0.058727    0.189181
     57          6           0       15.168165   -0.164863   -0.349155
     58          6           0       15.669802   -1.588485   -0.278547
     59          6           0       16.224666    0.745921    0.372313
     60          6           0       17.628763    0.777800   -0.176416
     61          6           0       18.626902    1.662210    0.602762
     62          6           0       20.149305    1.664193    0.252607
     63          6           0       20.359742    2.058301   -1.144936
     64          6           0       20.845995    2.448453    1.337708
     65          1           0       -3.942489    3.525091    1.833576
     66          1           0      -10.048748    4.127009   -0.433874
     67          1           0      -10.666365   -2.114865   -1.138493
     68          1           0       -2.841075   -1.113393    2.124045
     69          1           0       -2.114983    1.417666    1.239920
     70          1           0       -2.055019    0.574810    3.724458
     71          1           0       -3.274041    2.001570    3.649648
     72          1           0       -3.632687    0.077125    3.787457
     73          1           0       -2.355636   -1.697140   -0.536136
     74          1           0       -2.413496   -0.119763   -0.441894
     75          1           0       -0.326344    0.065466    1.117927
     76          1           0       -0.722135   -1.545015    1.363684
     77          1           0       -4.078936    5.787269    0.802547
     78          1           0       -5.565734    7.000403    1.197786
     79          1           0       -4.994894    5.719918    2.348636
     80          1           0       -8.044068    7.024193    1.129472
     81          1           0       -9.177528    6.090702   -1.542695
     82          1           0       -9.356599    7.654631   -0.614358
     83          1           0      -12.527182    3.677699   -0.163109
     84          1           0      -12.327612    3.627133   -1.877142
     85          1           0      -13.408056    2.496697   -1.335790
     86          1           0      -12.722983   -1.044865   -1.137410
     87          1           0      -13.499051    0.461711   -1.293823
     88          1           0      -12.688716    0.575521   -3.745904
     89          1           0      -11.863406   -1.166588   -3.127317
     90          1           0      -13.654307   -0.768441   -3.175830
     91          1           0       -9.878460   -4.783710   -0.258504
     92          1           0       -9.666838   -4.321541   -1.925481
     93          1           0       -8.451908   -5.353116   -1.166832
     94          1           0       -3.826772   -3.519459   -0.474715
     95          1           0       -1.805728   -6.183203    2.320737
     96          1           0       -1.927272   -4.964376    3.415126
     97          1           0       -3.303044   -5.911031    3.173151
     98          1           0        2.522854   -2.232838   -1.620512
     99          1           0        2.382996   -0.651038   -2.313959
    100          1           0        3.929532   -1.178921    0.295884
    101          1           0        5.342697    1.483937   -2.888973
    102          1           0        5.609428   -0.012232   -3.359618
    103          1           0        3.945891    0.468250   -3.173422
    104          1           0        6.483805    1.556707   -0.386069
    105          1           0        6.135193   -0.297820    0.515624
    106          1           0        7.322242   -1.447752   -1.442347
    107          1           0        7.688964    0.227222   -2.064681
    108          1           0        8.881473    0.756852    0.132765
    109          1           0        8.518312   -0.826625    0.839840
    110          1           0       10.206507   -0.213705   -1.771009
    111          1           0        9.404171   -2.469895   -1.874582
    112          1           0       11.173776   -2.437366   -1.238751
    113          1           0        9.830460   -2.670858   -0.115606
    114          1           0       11.232768    0.853592    0.261342
    115          1           0       11.253958   -0.529704    1.034822
    116          1           0       12.712190   -1.448201   -0.737766
    117          1           0       12.671822    0.043886   -1.389615
    118          1           0       13.665299    1.102355    0.501145
    119          1           0       14.013415   -0.435847    1.181869
    120          1           0       15.131754    0.075754   -1.503201
    121          1           0       14.957984   -2.360423   -0.775479
    122          1           0       16.791457   -1.544859   -0.744791
    123          1           0       15.835647   -1.770857    0.811993
    124          1           0       15.671422    1.759111    0.590789
    125          1           0       16.124144    0.356497    1.451585
    126          1           0       17.960103   -0.223190   -0.158740
    127          1           0       17.707414    0.886029   -1.286235
    128          1           0       18.427564    2.690570    0.588961
    129          1           0       18.395863    1.114065    1.596995
    130          1           0       20.405892    0.657097    0.210736
    131          1           0       19.811588    2.950398   -1.400793
    132          1           0       21.529978    2.328288   -1.211403
    133          1           0       20.157984    1.307271   -1.949866
    134          1           0       20.745352    2.254822    2.474056
    135          1           0       21.805944    2.520744    0.924342
    136          1           0       20.416728    3.482165    1.275271
    137          1           0       -7.182087    1.794152    0.543084
    138          1           0       -7.811266   -0.262245   -0.274035
 ---------------------------------------------------------------------

 SCF Done:  E(RB3LYP) =  -2733.10165002     A.U. after   17 cycles

 Excitation energies and oscillator strengths:

 Excited State   1:      Singlet-A      2.0311 eV  610.43 nm  f=0.1849  <S**2>=0.000
     235 -> 237       -0.16032
     235 -> 238       -0.29034
     236 -> 237        0.61211
     236 -> 238       -0.11962
 This state for optimization and/or second-order correction.
 Total Energy, E(TD-HF/TD-KS) =  -2733.02700825
 Copying the excited state density for this state as the 1-particle RhoCI density.

 The electronic state is 1-A.
 Alpha  occ. eigenvalues --  -19.18567 -19.17966 -19.11633 -19.11484 -19.08686
 Alpha  occ. eigenvalues --  -14.37039 -14.36583 -14.31673 -14.30587 -10.32535
 Alpha  occ. eigenvalues --  -10.29843 -10.26413 -10.25971 -10.24390 -10.23873
 Alpha  occ. eigenvalues --  -10.23859 -10.23502 -10.23304 -10.23041 -10.22275
 Alpha  occ. eigenvalues --  -10.22190 -10.21972 -10.21881 -10.21715 -10.21542
 Alpha  occ. eigenvalues --  -10.21452 -10.21346 -10.20708 -10.20619 -10.20536
 Alpha  occ. eigenvalues --  -10.20501 -10.20422 -10.20217 -10.20138 -10.20138
 Alpha  occ. eigenvalues --  -10.20028 -10.19877 -10.19808 -10.19798 -10.19584
 Alpha  occ. eigenvalues --  -10.19363 -10.19328 -10.19234 -10.19225 -10.18997
 Alpha  occ. eigenvalues --  -10.18994 -10.18865 -10.18819 -10.18752 -10.18671
 Alpha  occ. eigenvalues --  -10.18646 -10.18430 -10.18348 -10.18184 -10.18114
 Alpha  occ. eigenvalues --  -10.18051 -10.17943 -10.17886 -10.17819 -10.17707
 Alpha  occ. eigenvalues --  -10.17580 -10.17519 -10.17236 -10.16078  -1.13492
 Alpha  occ. eigenvalues --   -1.09376  -1.03595  -0.97903  -0.97753  -0.97606
 Alpha  occ. eigenvalues --   -0.97483  -0.93844  -0.92599  -0.83859  -0.83767
 Alpha  occ. eigenvalues --   -0.82978  -0.82810  -0.81947  -0.81816  -0.81292
 Alpha  occ. eigenvalues --   -0.81181  -0.80558  -0.79979  -0.78442  -0.78138
 Alpha  occ. eigenvalues --   -0.77305  -0.76673  -0.76336  -0.75631  -0.75388
 Alpha  occ. eigenvalues --   -0.74985  -0.74196  -0.72948  -0.72626  -0.70781
 Alpha  occ. eigenvalues --   -0.69982  -0.69434  -0.68759  -0.68230  -0.68163
 Alpha  occ. eigenvalues --   -0.67812  -0.67697  -0.66171  -0.66017  -0.65933
 Alpha  occ. eigenvalues --   -0.64055  -0.63418  -0.63108  -0.62401  -0.61778
 Alpha  occ. eigenvalues --   -0.60463  -0.59415  -0.58711  -0.58538  -0.58351
 Alpha  occ. eigenvalues --   -0.57891  -0.56655  -0.56249  -0.56074  -0.55944
 Alpha  occ. eigenvalues --   -0.55895  -0.54579  -0.54281  -0.54196  -0.53887
 Alpha  occ. eigenvalues --   -0.52718  -0.52608  -0.51935  -0.51602  -0.51013
 Alpha  occ. eigenvalues --   -0.50091  -0.49464  -0.49259  -0.49159  -0.48667
 Alpha  occ. eigenvalues --   -0.48311  -0.48073  -0.48021  -0.47568  -0.46898
 Alpha  occ. eigenvalues --   -0.46752  -0.46667  -0.46299  -0.46238  -0.46006
 Alpha  occ. eigenvalues --   -0.45703  -0.45437  -0.45348  -0.45130  -0.44979
 Alpha  occ. eigenvalues --   -0.44480  -0.44357  -0.44069  -0.43755  -0.43618
 Alpha  occ. eigenvalues --   -0.43519  -0.43276  -0.43049  -0.42869  -0.42764
 Alpha  occ. eigenvalues --   -0.42535  -0.42265  -0.42214  -0.41889  -0.41792
 Alpha  occ. eigenvalues --   -0.41541  -0.41043  -0.40989  -0.40807  -0.40560
 Alpha  occ. eigenvalues --   -0.40480  -0.40382  -0.40146  -0.40055  -0.39574
 Alpha  occ. eigenvalues --   -0.39370  -0.39133  -0.39040  -0.38984  -0.38821
 Alpha  occ. eigenvalues --   -0.38604  -0.38348  -0.38211  -0.38144  -0.37991
 Alpha  occ. eigenvalues --   -0.37867  -0.37703  -0.37419  -0.37294  -0.36855
 Alpha  occ. eigenvalues --   -0.36701  -0.36614  -0.36484  -0.36344  -0.35767
 Alpha  occ. eigenvalues --   -0.35579  -0.35395  -0.35245  -0.35015  -0.34801
 Alpha  occ. eigenvalues --   -0.34696  -0.34583  -0.34224  -0.33894  -0.33530
 Alpha  occ. eigenvalues --   -0.33160  -0.32905  -0.32740  -0.32330  -0.31988
 Alpha  occ. eigenvalues --   -0.31635  -0.31590  -0.31386  -0.31061  -0.30937
 Alpha  occ. eigenvalues --   -0.30900  -0.30754  -0.30661  -0.30509  -0.29609
 Alpha  occ. eigenvalues --   -0.29502  -0.29274  -0.28957  -0.27729  -0.27088
 Alpha  occ. eigenvalues --   -0.26678  -0.26443  -0.26334  -0.25485  -0.25021
 Alpha  occ. eigenvalues --   -0.24795  -0.24152  -0.23934  -0.22788  -0.19732
 Alpha  occ. eigenvalues --   -0.18781
 Alpha virt. eigenvalues --   -0.10360  -0.07610  -0.04168  -0.02532  -0.01711
 Alpha virt. eigenvalues --   -0.01472   0.01256   0.02102   0.03075   0.03278
 Alpha virt. eigenvalues --    0.04124   0.04235   0.04440   0.04760   0.04962

 Mulliken charges:
               1
     1  C    0.066375
     2  C   -0.059269
     3  C   -0.087257
     4  C   -0.036960
     5  N   -0.179794
     6  C   -0.124476
     7  C    0.177781
     8  C   -0.163646
     9  C    0.059534
    10  C    0.039465
    11  C    0.099164
    12  C   -0.003705
    13  C    0.234731
    14  O   -0.300544
    15  O   -0.283782
    16  N   -0.066090
    17  C    0.029855
    18  C   -0.143354
    19  C    0.060227
    20  C    0.150033
    21  C    0.079478
    22  C   -0.062183
    23  C   -0.053441
    24  N   -0.289649
    25  C    0.064193
    26  C   -0.122101
    27  C   -0.080563
    28  C    0.051238
    29  C    0.068736
    30  C    0.072771
    31  C    0.053668
    32  N   -0.023439
    33  C    0.039768
    34  C   -0.094356
    35  C    0.005273
    36  C    0.080882
    37  C    0.107056
    38  C   -0.009549
    39  O   -0.146771
    40  C   -0.129405
    41  C    0.124224
    42  O   -0.284958
    43  O   -0.187925
    44  C    0.285263
    45  C    0.180200
    46  C   -0.050945
    47  C   -0.065583
    48  C    0.080207
    49  C   -0.034708
    50  C   -0.013594
    51  C    0.099873
    52  C   -0.076656
    53  C    0.041381
    54  C    0.080757
    55  C    0.219243
    56  C    0.007363
    57  C   -0.078959
    58  C   -0.017705
    59  C   -0.037160
    60  C    0.113985
    61  C   -0.008748
    62  C   -0.042139
    63  C   -0.001969
    64  C    0.076695
    65  H    0.000258
    66  H   -0.027383
    67  H   -0.031638
    68  H   -0.033671
    69  H    0.019660
    70  H   -0.012327
    71  H    0.035865
    72  H    0.044992
    73  H    0.014255
    74  H   -0.033376
    75  H    0.032475
    76  H    0.018992
    77  H    0.057307
    78  H    0.035931
    79  H    0.025342
    80  H   -0.008282
    81  H    0.033076
    82  H    0.022487
    83  H    0.035775
    84  H   -0.006818
    85  H    0.019739
    86  H   -0.032071
    87  H   -0.021594
    88  H    0.019316
    89  H    0.011466
    90  H   -0.004810
    91  H    0.032444
    92  H    0.027625
    93  H    0.019173
    94  H    0.050514
    95  H    0.020955
    96  H    0.006221
    97  H    0.013484
    98  H    0.036528
    99  H    0.025828
   100  H   -0.004497
   101  H   -0.001381
   102  H    0.015348
   103  H    0.016819
   104  H    0.014761
   105  H    0.008824
   106  H    0.017977
   107  H    0.006391
   108  H   -0.025972
   109  H    0.002934
   110  H   -0.014806
   111  H    0.022598
   112  H    0.005123
   113  H   -0.012559
   114  H   -0.021410
   115  H   -0.068243
   116  H   -0.054900
   117  H   -0.059628
   118  H   -0.022532
   119  H   -0.042988
   120  H   -0.012517
   121  H    0.034589
   122  H    0.026441
   123  H   -0.000669
   124  H   -0.002374
   125  H   -0.011708
   126  H   -0.033139
   127  H   -0.018100
   128  H   -0.017855
   129  H    0.004878
   130  H   -0.037242
   131  H   -0.003841
   132  H    0.009467
   133  H    0.027205
   134  H    0.033394
   135  H   -0.015139
   136  H   -0.009020
   137  H    0.139547
   138  H    0.168451
 Sum of Mulliken charges =   0.00000

 Dipole moment (field-independent basis, Debye):
    X=              3.2882    Y=              3.6807    Z=              0.0591  Tot=              4.9359
 Quadrupole moment (field-independent basis, Debye-Ang):
   XX=           -338.3068   YY=           -376.4907   ZZ=           -395.1346
   XY=            -29.7629   XZ=             12.6106   YZ=             -3.0628

 Normal termination of Gaussian 09 at Sat Aug  3 01:41:15 2019.
