 Gaussian 09, Revision D.01,
 Gaussian 09:  ES64L-G09RevD.01 24-Apr-2013

 --------------------------
 # td=(NStates=1) B3LYP/SVP
 --------------------------

 --
 TD
 --
 Symbolic Z-matrix:
 Charge =  0 Multiplicity = 1

                         Standard orientation:
 ---------------------------------------------------------------------
 Center     Atomic      Atomic             Coordinates (Angstroms)
 Number     Number       Type             X           Y           Z
 ---------------------------------------------------------------------
      1          6           0       -5.143429   -1.963723    0.429160
      2          6           0       -4.753058    2.764316    1.452061
      3          6           0       -9.311952    3.387478   -0.218194
      4          6           0       -9.811082   -1.382535   -1.116657
      5          7           0       -5.183791    0.388605    0.781577
      6          6           0       -4.510078   -0.774817    0.760017
      7          6           0       -3.139263   -0.616139    1.375832
      8          6           0       -3.100587    0.881934    1.845098
      9          6           0       -4.468617    1.423811    1.421556
     10          6           0       -2.993313    1.044864    3.404345
     11          6           0       -2.033559   -0.848300    0.228346
     12          6           0       -0.631192   -0.826159    0.726390
     13          6           0        0.485452   -1.167177   -0.426539
     14          8           0        0.019344   -1.327240   -1.597312
     15          8           0        1.644367   -0.886231    0.017825
     16          7           0       -7.085444    2.783550    0.547823
     17          6           0       -6.004222    3.343068    1.094999
     18          6           0       -6.312985    4.834339    1.176299
     19          6           0       -7.536832    4.978387    0.593522
     20          6           0       -8.045711    3.659009    0.214998
     21          6           0       -5.328428    5.859796    1.500922
     22          6           0       -8.177651    6.368408    0.410113
     23          6           0       -8.976208    6.717668   -0.651508
     24          7           0       -9.180535    0.917447   -0.594620
     25          6           0       -9.861649    2.070980   -0.590608
     26          6           0      -11.235440    1.921103   -1.089894
     27          6           0      -11.331501    0.594084   -1.309044
     28          6           0      -10.036905    0.039295   -1.057184
     29          6           0      -12.338221    2.995119   -1.213998
     30          6           0      -12.504057   -0.194377   -1.713227
     31          6           0      -12.744636   -0.499330   -3.305304
     32          7           0       -7.513203   -1.277193   -0.355097
     33          6           0       -8.556052   -1.984753   -0.850273
     34          6           0       -8.156064   -3.439757   -0.757147
     35          6           0       -6.797865   -3.413696   -0.327876
     36          6           0       -6.392731   -2.056288   -0.014706
     37          6           0       -9.059797   -4.595831   -1.185742
     38          6           0       -5.700153   -4.271117    0.041730
     39          8           0       -5.601858   -5.463330   -0.076836
     40          6           0       -4.559953   -3.367064    0.503709
     41          6           0       -3.988675   -3.836868    1.803548
     42          8           0       -4.301864   -3.306178    2.881409
     43          8           0       -3.108706   -4.785547    1.742713
     44          6           0       -2.657872   -5.356245    2.917848
     45          6           0        2.650662   -1.183354   -0.952459
     46          6           0        3.983362   -0.999582   -0.388710
     47          6           0        4.986971   -0.202512   -0.825494
     48          6           0        4.759524    0.765838   -2.078178
     49          6           0        6.284857   -0.061037   -0.135960
     50          6           0        7.488884   -0.537641   -0.909404
     51          6           0        8.776808   -0.328698   -0.181935
     52          6           0       10.111553   -0.824642   -0.877655
     53          6           0       10.130663   -2.326780   -1.073280
     54          6           0       11.299327   -0.316998   -0.111109
     55          6           0       12.657047   -0.584121   -0.822854
     56          6           0       13.891413   -0.040366    0.005222
     57          6           0       15.336384   -0.091358   -0.490870
     58          6           0       15.822196   -1.554833   -0.662984
     59          6           0       16.221965    0.704504    0.384115
     60          6           0       17.668548    0.869515   -0.273161
     61          6           0       18.612011    1.764473    0.700106
     62          6           0       20.070475    1.815224    0.050879
     63          6           0       20.154593    2.467153   -1.348480
     64          6           0       20.987844    2.333910    1.091220
     65          1           0       -4.071386    3.360287    1.787891
     66          1           0      -10.084840    4.234515   -0.243023
     67          1           0      -10.597184   -1.894802   -1.647481
     68          1           0       -2.871544   -1.410201    2.230726
     69          1           0       -2.297845    1.492055    1.364892
     70          1           0       -2.012831    0.567303    3.667715
     71          1           0       -3.013198    2.052753    3.649046
     72          1           0       -3.688919    0.561307    3.918051
     73          1           0       -2.194520   -1.756956   -0.246312
     74          1           0       -2.181256   -0.054260   -0.511018
     75          1           0       -0.208934    0.121178    0.902563
     76          1           0       -0.358720   -1.519983    1.414956
     77          1           0       -4.485211    5.900629    0.749119
     78          1           0       -5.882089    6.815730    1.429416
     79          1           0       -4.987673    5.598297    2.630486
     80          1           0       -7.885928    7.159558    1.152169
     81          1           0       -8.987838    5.999828   -1.532809
     82          1           0       -9.570301    7.531635   -0.608860
     83          1           0      -12.521737    3.446077   -0.240097
     84          1           0      -11.945028    3.805344   -1.995081
     85          1           0      -13.333196    2.567218   -1.685658
     86          1           0      -12.574153   -1.268893   -1.284430
     87          1           0      -13.350684    0.455076   -1.514197
     88          1           0      -12.814062    0.388428   -3.887209
     89          1           0      -12.130968   -1.051285   -3.928024
     90          1           0      -13.959023   -1.170969   -3.083494
     91          1           0       -9.818188   -4.964180   -0.339618
     92          1           0       -9.615198   -4.747924   -2.086638
     93          1           0       -8.374381   -5.503474   -0.956151
     94          1           0       -3.945087   -3.360156   -0.220719
     95          1           0       -1.855200   -6.289983    2.757723
     96          1           0       -2.033277   -4.613060    3.494730
     97          1           0       -3.291751   -5.949994    3.506304
     98          1           0        2.515912   -2.236062   -1.185323
     99          1           0        2.584298   -0.519169   -1.938048
    100          1           0        4.357477   -1.737481    0.411265
    101          1           0        5.276326    2.073883   -1.910578
    102          1           0        5.416326    0.219069   -2.894772
    103          1           0        3.672802    0.757846   -2.526218
    104          1           0        6.388914    1.053978    0.326247
    105          1           0        6.161619   -0.849879    0.865166
    106          1           0        7.313049   -1.526957   -1.501626
    107          1           0        7.773602    0.355783   -1.829140
    108          1           0        9.150686    0.652383   -0.007344
    109          1           0        8.629027   -0.702487    0.878726
    110          1           0       10.107612   -0.299928   -1.729834
    111          1           0        9.346992   -2.516400   -1.684615
    112          1           0       10.962061   -2.660376   -1.792414
    113          1           0       10.362824   -3.069274   -0.224946
    114          1           0       11.285693    0.726702    0.225467
    115          1           0       11.305159   -0.972317    0.781825
    116          1           0       12.677360   -1.744231   -0.748897
    117          1           0       12.837559   -0.181058   -1.737939
    118          1           0       13.451590    1.019184    0.141174
    119          1           0       13.972428   -0.466127    1.015833
    120          1           0       15.326626    0.368110   -1.584889
    121          1           0       15.040561   -2.088704   -1.394494
    122          1           0       16.864715   -1.803746   -1.022819
    123          1           0       15.825966   -1.929163    0.365781
    124          1           0       15.686855    1.733454    0.536675
    125          1           0       16.291385    0.506765    1.442217
    126          1           0       18.166036   -0.150925   -0.234500
    127          1           0       17.591839    1.222286   -1.218917
    128          1           0       18.234338    2.871233    0.878229
    129          1           0       18.589436    0.986132    1.585972
    130          1           0       20.293334    0.659984    0.093053
    131          1           0       19.805897    3.487539   -1.344107
    132          1           0       21.173466    2.281291   -1.836343
    133          1           0       19.412950    1.956925   -2.062591
    134          1           0       20.898026    1.785537    2.067703
    135          1           0       22.167814    2.273965    0.981588
    136          1           0       20.682715    3.427267    1.356310
    137          1           0       -6.966699    1.657378    0.633618
    138          1           0       -7.246699   -0.411239   -0.251257
 ---------------------------------------------------------------------

 SCF Done:  E(RB3LYP) =  -2732.99111982     A.U. after   17 cycles

 Excitation energies and oscillator strengths:

 Excited State   1:      Singlet-A      2.0526 eV  604.03 nm  f=0.1913  <S**2>=0.000
     235 -> 238        0.30371
     236 -> 237        0.63382
 This state for optimization and/or second-order correction.
 Total Energy, E(TD-HF/TD-KS) =  -2732.91568815
 Copying the excited state density for this state as the 1-particle RhoCI density.

 The electronic state is 1-A.
 Alpha  occ. eigenvalues --  -19.20995 -19.19532 -19.11981 -19.11706 -19.11416
 Alpha  occ. eigenvalues --  -14.37917 -14.36072 -14.32505 -14.28584 -10.31990
 Alpha  occ. eigenvalues --  -10.31842 -10.27071 -10.26470 -10.25907 -10.24084
 Alpha  occ. eigenvalues --  -10.23916 -10.23915 -10.23568 -10.22903 -10.22890
 Alpha  occ. eigenvalues --  -10.22872 -10.22604 -10.22541 -10.22070 -10.21970
 Alpha  occ. eigenvalues --  -10.21623 -10.20956 -10.20923 -10.20698 -10.20639
 Alpha  occ. eigenvalues --  -10.20505 -10.20475 -10.20362 -10.20242 -10.20242
 Alpha  occ. eigenvalues --  -10.20068 -10.19848 -10.19842 -10.19834 -10.19833
 Alpha  occ. eigenvalues --  -10.19777 -10.19749 -10.19610 -10.19574 -10.19568
 Alpha  occ. eigenvalues --  -10.19456 -10.19030 -10.18923 -10.18869 -10.18678
 Alpha  occ. eigenvalues --  -10.18586 -10.18577 -10.18541 -10.18493 -10.18450
 Alpha  occ. eigenvalues --  -10.18446 -10.18323 -10.18305 -10.18300 -10.18274
 Alpha  occ. eigenvalues --  -10.18082 -10.17848 -10.17271 -10.16605  -1.13551
 Alpha  occ. eigenvalues --   -1.12546  -1.03207  -0.99498  -0.99214  -0.98702
 Alpha  occ. eigenvalues --   -0.98097  -0.94554  -0.93272  -0.86451  -0.83574
 Alpha  occ. eigenvalues --   -0.82457  -0.81495  -0.81238  -0.81093  -0.80151
 Alpha  occ. eigenvalues --   -0.79441  -0.79325  -0.78954  -0.78468  -0.78336
 Alpha  occ. eigenvalues --   -0.77516  -0.76025  -0.75570  -0.75040  -0.74267
 Alpha  occ. eigenvalues --   -0.73500  -0.73028  -0.72017  -0.71539  -0.70804
 Alpha  occ. eigenvalues --   -0.70280  -0.69893  -0.68623  -0.68008  -0.67557
 Alpha  occ. eigenvalues --   -0.67399  -0.66736  -0.66165  -0.65900  -0.65559
 Alpha  occ. eigenvalues --   -0.64354  -0.62733  -0.62089  -0.61812  -0.61665
 Alpha  occ. eigenvalues --   -0.61093  -0.59610  -0.59112  -0.58489  -0.58101
 Alpha  occ. eigenvalues --   -0.57509  -0.56953  -0.56761  -0.56587  -0.56435
 Alpha  occ. eigenvalues --   -0.54978  -0.54225  -0.53757  -0.53475  -0.53461
 Alpha  occ. eigenvalues --   -0.52658  -0.52368  -0.52335  -0.52019  -0.51368
 Alpha  occ. eigenvalues --   -0.50016  -0.49755  -0.49233  -0.49141  -0.48594
 Alpha  occ. eigenvalues --   -0.48423  -0.48268  -0.47718  -0.47574  -0.47301
 Alpha  occ. eigenvalues --   -0.46934  -0.46510  -0.46246  -0.45704  -0.45526
 Alpha  occ. eigenvalues --   -0.45483  -0.45256  -0.44888  -0.44820  -0.44571
 Alpha  occ. eigenvalues --   -0.44459  -0.44079  -0.43993  -0.43963  -0.43594
 Alpha  occ. eigenvalues --   -0.43305  -0.43188  -0.42784  -0.42703  -0.42562
 Alpha  occ. eigenvalues --   -0.42384  -0.42118  -0.41967  -0.41695  -0.41527
 Alpha  occ. eigenvalues --   -0.41086  -0.41018  -0.40776  -0.40465  -0.40441
 Alpha  occ. eigenvalues --   -0.40225  -0.39879  -0.39786  -0.39480  -0.39162
 Alpha  occ. eigenvalues --   -0.39107  -0.38786  -0.38728  -0.38587  -0.38501
 Alpha  occ. eigenvalues --   -0.38432  -0.38239  -0.37918  -0.37627  -0.37467
 Alpha  occ. eigenvalues --   -0.37431  -0.37266  -0.36979  -0.36819  -0.36469
 Alpha  occ. eigenvalues --   -0.36361  -0.36021  -0.35784  -0.35706  -0.35392
 Alpha  occ. eigenvalues --   -0.35265  -0.35129  -0.35022  -0.34836  -0.34718
 Alpha  occ. eigenvalues --   -0.34384  -0.34163  -0.34129  -0.34066  -0.33699
 Alpha  occ. eigenvalues --   -0.33568  -0.33337  -0.33307  -0.32723  -0.32706
 Alpha  occ. eigenvalues --   -0.32294  -0.31585  -0.31532  -0.31361  -0.31253
 Alpha  occ. eigenvalues --   -0.31154  -0.30617  -0.30434  -0.30193  -0.29979
 Alpha  occ. eigenvalues --   -0.29682  -0.28969  -0.28281  -0.28043  -0.27296
 Alpha  occ. eigenvalues --   -0.27037  -0.26669  -0.26320  -0.25778  -0.25612
 Alpha  occ. eigenvalues --   -0.25028  -0.24798  -0.23945  -0.22425  -0.19958
 Alpha  occ. eigenvalues --   -0.18255
 Alpha virt. eigenvalues --   -0.09651  -0.07727  -0.04328  -0.02225  -0.02122
 Alpha virt. eigenvalues --   -0.00519  -0.00353   0.00716   0.02048   0.02165
 Alpha virt. eigenvalues --    0.03198   0.03560   0.03667   0.04401   0.04632

 Mulliken charges:
               1
     1  C   -0.041412
     2  C    0.042692
     3  C   -0.131404
     4  C   -0.055072
     5  N   -0.239304
     6  C   -0.064033
     7  C   -0.093244
     8  C   -0.050907
     9  C    0.028367
    10  C    0.145029
    11  C    0.088239
    12  C    0.111595
    13  C    0.129553
    14  O   -0.295170
    15  O   -0.222253
    16  N   -0.046963
    17  C    0.030216
    18  C   -0.155150
    19  C    0.005458
    20  C    0.141202
    21  C    0.065813
    22  C   -0.076260
    23  C    0.001995
    24  N   -0.139591
    25  C   -0.014723
    26  C   -0.138753
    27  C   -0.055692
    28  C   -0.011307
    29  C    0.040104
    30  C    0.044563
    31  C   -0.044215
    32  N    0.047623
    33  C    0.103857
    34  C   -0.104076
    35  C    0.006437
    36  C    0.065053
    37  C    0.024427
    38  C    0.000501
    39  O   -0.159898
    40  C    0.184223
    41  C    0.183617
    42  O   -0.269474
    43  O   -0.214538
    44  C    0.151320
    45  C    0.261215
    46  C   -0.103886
    47  C   -0.116928
    48  C   -0.069066
    49  C    0.002622
    50  C   -0.050245
    51  C    0.039846
    52  C    0.020627
    53  C    0.067852
    54  C   -0.006766
    55  C    0.066398
    56  C   -0.033937
    57  C   -0.031995
    58  C   -0.011408
    59  C    0.014734
    60  C    0.046101
    61  C   -0.064590
    62  C   -0.101083
    63  C    0.042439
    64  C    0.008257
    65  H   -0.112466
    66  H    0.010612
    67  H   -0.011828
    68  H    0.050653
    69  H    0.010128
    70  H    0.008455
    71  H   -0.014896
    72  H   -0.014880
    73  H   -0.010753
    74  H    0.000037
    75  H    0.004608
    76  H   -0.018572
    77  H    0.050757
    78  H    0.009423
    79  H    0.048366
    80  H    0.026738
    81  H    0.049364
    82  H   -0.002070
    83  H    0.036188
    84  H    0.037452
    85  H    0.033681
    86  H    0.027885
    87  H   -0.003795
    88  H    0.006049
    89  H    0.007532
    90  H    0.015250
    91  H    0.030714
    92  H    0.042267
    93  H    0.037491
    94  H   -0.030642
    95  H    0.025711
    96  H    0.037230
    97  H    0.030771
    98  H    0.020228
    99  H    0.048193
   100  H    0.005833
   101  H    0.051431
   102  H    0.053556
   103  H    0.049341
   104  H    0.049519
   105  H    0.021425
   106  H    0.043545
   107  H    0.010188
   108  H   -0.018117
   109  H   -0.019637
   110  H   -0.060292
   111  H   -0.037742
   112  H   -0.001608
   113  H    0.029349
   114  H   -0.009311
   115  H   -0.008938
   116  H    0.012923
   117  H   -0.025708
   118  H   -0.003812
   119  H   -0.016179
   120  H   -0.006624
   121  H    0.029814
   122  H    0.026430
   123  H   -0.003957
   124  H   -0.014085
   125  H   -0.021698
   126  H    0.008059
   127  H   -0.021647
   128  H    0.024175
   129  H    0.022639
   130  H   -0.003626
   131  H    0.009599
   132  H    0.029358
   133  H    0.010106
   134  H   -0.000607
   135  H    0.016749
   136  H    0.001687
   137  H    0.219048
   138  H    0.064302
 Sum of Mulliken charges =   0.00000

 Dipole moment (field-independent basis, Debye):
    X=              4.9857    Y=              3.5530    Z=              0.6755  Tot=              6.1593
 Quadrupole moment (field-independent basis, Debye-Ang):
   XX=           -380.0320   YY=           -379.2377   ZZ=           -397.6071
   XY=            -31.2482   XZ=              0.5496   YZ=             -3.2591

 Normal termination of Gaussian 09 at Sun Aug  4 12:20:12 2019.
