 Gaussian 09, Revision D.01,
 Gaussian 09:  ES64L-G09RevD.01 24-Apr-2013

 --------------------------
 # td=(NStates=1) B3LYP/SVP
 --------------------------

 --
 TD
 --
 Symbolic Z-matrix:
 Charge =  0 Multiplicity = 1

                         Standard orientation:
 ---------------------------------------------------------------------
 Center     Atomic      Atomic             Coordinates (Angstroms)
 Number     Number       Type             X           Y           Z
 ---------------------------------------------------------------------
      1          6           0       -5.209913   -1.995692    0.533467
      2          6           0       -4.577230    2.607725    1.455078
      3          6           0       -9.150669    3.424349   -0.211398
      4          6           0       -9.834817   -1.292706   -0.848230
      5          7           0       -5.113537    0.379266    0.879547
      6          6           0       -4.535917   -0.806990    0.880832
      7          6           0       -3.076059   -0.679032    1.273566
      8          6           0       -3.025106    0.775410    1.775453
      9          6           0       -4.333525    1.348668    1.282850
     10          6           0       -2.873930    0.910482    3.338248
     11          6           0       -1.984036   -0.827916    0.119276
     12          6           0       -0.584870   -1.052293    0.581090
     13          6           0        0.369718   -1.266481   -0.606471
     14          8           0       -0.017364   -1.727095   -1.665927
     15          8           0        1.624143   -0.900310   -0.327772
     16          7           0       -6.932481    2.818921    0.566855
     17          6           0       -5.846334    3.337331    1.047025
     18          6           0       -5.982650    4.765739    1.082065
     19          6           0       -7.305256    5.051894    0.511594
     20          6           0       -7.851119    3.799687    0.208799
     21          6           0       -5.036830    5.806239    1.580914
     22          6           0       -7.890009    6.371925    0.465719
     23          6           0       -8.734968    6.844147   -0.448804
     24          7           0       -9.070750    0.970352   -0.384968
     25          6           0       -9.654902    2.178822   -0.488511
     26          6           0      -11.032888    2.041424   -0.944607
     27          6           0      -11.342263    0.756780   -1.185040
     28          6           0       -9.952669    0.067612   -0.801112
     29          6           0      -12.024149    3.140827   -1.138398
     30          6           0      -12.640532    0.184368   -1.660460
     31          6           0      -12.534579   -0.217103   -3.248390
     32          7           0       -7.483898   -1.264408   -0.168912
     33          6           0       -8.583050   -1.961374   -0.577812
     34          6           0       -8.199093   -3.365309   -0.592523
     35          6           0       -6.958551   -3.402417   -0.213127
     36          6           0       -6.550584   -2.164166    0.137698
     37          6           0       -9.132855   -4.458277   -1.125659
     38          6           0       -5.812798   -4.312719    0.011879
     39          8           0       -5.701596   -5.496949   -0.132315
     40          6           0       -4.537757   -3.365526    0.505513
     41          6           0       -3.955742   -3.915035    1.834139
     42          8           0       -4.484260   -3.621248    2.909510
     43          8           0       -3.000341   -4.924565    1.571568
     44          6           0       -2.754377   -5.678814    2.718153
     45          6           0        2.610612   -1.150491   -1.315576
     46          6           0        3.941399   -0.770639   -0.706847
     47          6           0        4.909718   -0.024122   -1.261996
     48          6           0        4.733413    0.473546   -2.781958
     49          6           0        6.308955    0.331754   -0.570990
     50          6           0        7.355856   -0.545245   -1.161695
     51          6           0        8.732257   -0.167794   -0.348157
     52          6           0       10.003349   -0.800614   -0.965524
     53          6           0        9.957294   -2.346205   -0.962326
     54          6           0       11.231163   -0.244220   -0.146918
     55          6           0       12.565697   -0.643112   -0.580057
     56          6           0       13.808734   -0.008349    0.290384
     57          6           0       15.255370   -0.227698   -0.286420
     58          6           0       15.570862   -1.745764   -0.511151
     59          6           0       16.118256    0.605782    0.540161
     60          6           0       17.615306    0.621799   -0.045904
     61          6           0       18.468472    1.736527    0.738270
     62          6           0       19.989964    1.781232    0.221474
     63          6           0       20.021326    2.476287   -1.078985
     64          6           0       20.848762    2.603533    1.297766
     65          1           0       -3.882614    3.272305    1.735154
     66          1           0       -9.891334    4.150047   -0.329514
     67          1           0      -10.910909   -1.815416   -1.078296
     68          1           0       -2.787155   -1.458286    2.067779
     69          1           0       -2.350401    1.497748    1.124282
     70          1           0       -2.050612    0.285047    3.946459
     71          1           0       -2.876249    2.033361    3.697435
     72          1           0       -4.028173    0.692549    3.894002
     73          1           0       -2.278494   -1.789734   -0.629686
     74          1           0       -1.972355    0.113759   -0.542475
     75          1           0        0.103285   -0.392721    1.302792
     76          1           0       -0.544126   -2.039683    1.203417
     77          1           0       -4.100341    5.783497    0.942924
     78          1           0       -5.276590    6.840670    1.375362
     79          1           0       -4.687991    5.617089    2.566847
     80          1           0       -7.728739    7.139840    1.272528
     81          1           0       -9.105210    6.165861   -1.490723
     82          1           0       -9.043159    7.944966   -0.522707
     83          1           0      -12.482776    3.534183    0.027233
     84          1           0      -11.864291    4.084511   -1.708372
     85          1           0      -12.924539    2.696403   -1.816410
     86          1           0      -12.776257   -0.741382   -1.082730
     87          1           0      -13.560783    0.787028   -1.554923
     88          1           0      -12.406921    0.715380   -3.947899
     89          1           0      -11.617726   -0.912651   -3.377655
     90          1           0      -13.640075   -0.740599   -3.327298
     91          1           0       -9.768319   -4.394712   -0.119342
     92          1           0       -9.632175   -4.060520   -2.101868
     93          1           0       -8.650099   -5.450181   -1.397556
     94          1           0       -3.897470   -3.617874   -0.266605
     95          1           0       -2.089809   -6.513779    2.424441
     96          1           0       -2.346590   -5.021410    3.539026
     97          1           0       -3.558278   -6.269796    3.069260
     98          1           0        2.502466   -2.222104   -1.493513
     99          1           0        2.397637   -0.600814   -2.061854
    100          1           0        4.007331   -1.327008    0.322798
    101          1           0        4.776947    1.585255   -2.782573
    102          1           0        5.844763    0.112086   -3.370259
    103          1           0        3.753755   -0.073831   -3.532498
    104          1           0        6.545464    1.383246   -0.585334
    105          1           0        5.895703    0.041610    0.426016
    106          1           0        7.004515   -1.635128   -1.475193
    107          1           0        7.248061    0.023078   -2.291010
    108          1           0        8.636034    0.998767   -0.438291
    109          1           0        8.710216   -0.464949    0.817778
    110          1           0       10.141384   -0.457907   -2.112713
    111          1           0        8.916413   -2.501911   -1.582871
    112          1           0       10.821965   -3.002039   -1.450987
    113          1           0        9.889924   -2.713342    0.112066
    114          1           0       11.109612    0.809772   -0.080322
    115          1           0       10.852442   -0.500256    0.923546
    116          1           0       12.550265   -1.763956   -0.721784
    117          1           0       12.544533   -0.428080   -1.563055
    118          1           0       13.388568    1.008734    0.361351
    119          1           0       13.687163   -0.207419    1.335897
    120          1           0       15.147266    0.329907   -1.293690
    121          1           0       14.570567   -2.252703   -1.135298
    122          1           0       16.495126   -1.801458   -0.950101
    123          1           0       15.639609   -2.479629    0.375599
    124          1           0       15.691644    1.677171    0.535736
    125          1           0       16.216632    0.261601    1.605162
    126          1           0       18.166481   -0.463969    0.109820
    127          1           0       17.570862    0.778333   -1.290358
    128          1           0       18.220511    2.826406    0.577988
    129          1           0       18.319882    1.379251    1.863920
    130          1           0       20.511806    0.837952    0.226410
    131          1           0       19.368534    3.398096   -1.089587
    132          1           0       21.021690    2.561990   -1.524974
    133          1           0       19.737650    1.834382   -1.905835
    134          1           0       20.681388    2.249896    2.280601
    135          1           0       21.930160    2.919050    1.188070
    136          1           0       20.288899    3.527028    1.352759
    137          1           0       -7.243225    1.814697    0.841436
    138          1           0       -7.592093   -0.211594   -0.206092
 ---------------------------------------------------------------------

 SCF Done:  E(RB3LYP) =  -2732.97094962     A.U. after   17 cycles

 Excitation energies and oscillator strengths:

 Excited State   1:      Singlet-A      2.0795 eV  596.22 nm  f=0.2675  <S**2>=0.000
     235 -> 237       -0.15200
     235 -> 238        0.23728
     236 -> 237        0.64293
 This state for optimization and/or second-order correction.
 Total Energy, E(TD-HF/TD-KS) =  -2732.89452922
 Copying the excited state density for this state as the 1-particle RhoCI density.

 The electronic state is 1-A.
 Alpha  occ. eigenvalues --  -19.18293 -19.17649 -19.13449 -19.13333 -19.11656
 Alpha  occ. eigenvalues --  -14.37050 -14.36823 -14.30974 -14.30958 -10.32273
 Alpha  occ. eigenvalues --  -10.31006 -10.28833 -10.23882 -10.23614 -10.23452
 Alpha  occ. eigenvalues --  -10.23363 -10.23277 -10.23102 -10.22944 -10.22785
 Alpha  occ. eigenvalues --  -10.22256 -10.21896 -10.21765 -10.21713 -10.21625
 Alpha  occ. eigenvalues --  -10.21535 -10.21518 -10.21389 -10.21354 -10.21244
 Alpha  occ. eigenvalues --  -10.21227 -10.21183 -10.21177 -10.21140 -10.21063
 Alpha  occ. eigenvalues --  -10.20911 -10.20709 -10.20606 -10.20569 -10.20525
 Alpha  occ. eigenvalues --  -10.20490 -10.20384 -10.20341 -10.20262 -10.20231
 Alpha  occ. eigenvalues --  -10.20218 -10.20188 -10.20063 -10.19781 -10.19678
 Alpha  occ. eigenvalues --  -10.19547 -10.19467 -10.19329 -10.19141 -10.19075
 Alpha  occ. eigenvalues --  -10.18841 -10.18387 -10.18365 -10.18211 -10.18091
 Alpha  occ. eigenvalues --  -10.17647 -10.17494 -10.17287 -10.16946  -1.09798
 Alpha  occ. eigenvalues --   -1.08102  -1.04385  -1.00672  -1.00518  -1.00306
 Alpha  occ. eigenvalues --   -0.99228  -0.95824  -0.94755  -0.85120  -0.82046
 Alpha  occ. eigenvalues --   -0.81859  -0.81414  -0.81346  -0.80392  -0.80373
 Alpha  occ. eigenvalues --   -0.79869  -0.79748  -0.79327  -0.79235  -0.77722
 Alpha  occ. eigenvalues --   -0.76863  -0.75761  -0.75191  -0.74284  -0.73880
 Alpha  occ. eigenvalues --   -0.73035  -0.72328  -0.71712  -0.70990  -0.70805
 Alpha  occ. eigenvalues --   -0.69292  -0.68734  -0.67730  -0.67222  -0.67135
 Alpha  occ. eigenvalues --   -0.66563  -0.66385  -0.65983  -0.65469  -0.64926
 Alpha  occ. eigenvalues --   -0.63500  -0.63016  -0.61653  -0.61348  -0.61137
 Alpha  occ. eigenvalues --   -0.60471  -0.58757  -0.58317  -0.58301  -0.57438
 Alpha  occ. eigenvalues --   -0.57276  -0.56597  -0.56353  -0.55860  -0.55344
 Alpha  occ. eigenvalues --   -0.54706  -0.54575  -0.53939  -0.53067  -0.52578
 Alpha  occ. eigenvalues --   -0.52512  -0.51994  -0.51266  -0.51106  -0.50491
 Alpha  occ. eigenvalues --   -0.50316  -0.49517  -0.48406  -0.48153  -0.47983
 Alpha  occ. eigenvalues --   -0.47611  -0.47390  -0.47225  -0.46829  -0.46706
 Alpha  occ. eigenvalues --   -0.46588  -0.46367  -0.46061  -0.45784  -0.45677
 Alpha  occ. eigenvalues --   -0.45261  -0.45152  -0.44965  -0.44815  -0.44413
 Alpha  occ. eigenvalues --   -0.44307  -0.44208  -0.43679  -0.43617  -0.43316
 Alpha  occ. eigenvalues --   -0.43028  -0.42692  -0.42679  -0.42121  -0.42050
 Alpha  occ. eigenvalues --   -0.41658  -0.41487  -0.41289  -0.41147  -0.40997
 Alpha  occ. eigenvalues --   -0.40683  -0.40566  -0.40538  -0.40222  -0.40193
 Alpha  occ. eigenvalues --   -0.39845  -0.39831  -0.39546  -0.39403  -0.39195
 Alpha  occ. eigenvalues --   -0.39182  -0.39031  -0.38484  -0.38403  -0.38340
 Alpha  occ. eigenvalues --   -0.38084  -0.37945  -0.37747  -0.37613  -0.37388
 Alpha  occ. eigenvalues --   -0.37156  -0.37017  -0.36878  -0.36446  -0.36391
 Alpha  occ. eigenvalues --   -0.36127  -0.35942  -0.35691  -0.35519  -0.35459
 Alpha  occ. eigenvalues --   -0.35434  -0.35209  -0.35086  -0.34997  -0.34513
 Alpha  occ. eigenvalues --   -0.34339  -0.34063  -0.33872  -0.33718  -0.33614
 Alpha  occ. eigenvalues --   -0.33395  -0.33209  -0.32800  -0.32250  -0.32200
 Alpha  occ. eigenvalues --   -0.31949  -0.31605  -0.31400  -0.31176  -0.30878
 Alpha  occ. eigenvalues --   -0.30823  -0.30763  -0.30549  -0.30526  -0.30225
 Alpha  occ. eigenvalues --   -0.29723  -0.29494  -0.28407  -0.28049  -0.27734
 Alpha  occ. eigenvalues --   -0.27471  -0.27322  -0.27003  -0.26730  -0.25506
 Alpha  occ. eigenvalues --   -0.25098  -0.24838  -0.23481  -0.23334  -0.19961
 Alpha  occ. eigenvalues --   -0.18936
 Alpha virt. eigenvalues --   -0.10682  -0.06599  -0.03804  -0.01874  -0.01138
 Alpha virt. eigenvalues --   -0.00358   0.00428   0.00923   0.02353   0.02541
 Alpha virt. eigenvalues --    0.03221   0.03624   0.04344   0.04728   0.04747

 Mulliken charges:
               1
     1  C    0.056465
     2  C   -0.012141
     3  C   -0.090337
     4  C   -0.119436
     5  N   -0.104550
     6  C   -0.082920
     7  C   -0.020601
     8  C   -0.019800
     9  C    0.022305
    10  C   -0.051522
    11  C   -0.021928
    12  C   -0.007757
    13  C    0.149276
    14  O   -0.248767
    15  O   -0.310723
    16  N   -0.027376
    17  C   -0.014497
    18  C   -0.173862
    19  C    0.088915
    20  C    0.102306
    21  C    0.132305
    22  C   -0.064834
    23  C   -0.128049
    24  N   -0.200066
    25  C    0.080702
    26  C   -0.085389
    27  C   -0.072324
    28  C    0.016294
    29  C   -0.042800
    30  C    0.036024
    31  C   -0.086681
    32  N   -0.014485
    33  C    0.034671
    34  C   -0.206134
    35  C    0.084235
    36  C    0.059528
    37  C    0.023472
    38  C    0.051423
    39  O   -0.133864
    40  C   -0.015396
    41  C    0.230808
    42  O   -0.234098
    43  O   -0.315510
    44  C    0.193969
    45  C    0.415104
    46  C   -0.139570
    47  C   -0.137196
    48  C   -0.091880
    49  C    0.095713
    50  C   -0.095071
    51  C   -0.001645
    52  C   -0.107597
    53  C   -0.043239
    54  C   -0.003674
    55  C    0.148203
    56  C    0.031318
    57  C   -0.031764
    58  C    0.008557
    59  C    0.027108
    60  C   -0.084671
    61  C   -0.021010
    62  C   -0.083163
    63  C    0.064968
    64  C    0.051848
    65  H   -0.087436
    66  H   -0.058524
    67  H    0.032246
    68  H    0.023855
    69  H    0.021708
    70  H    0.055898
    71  H    0.024972
    72  H    0.033942
    73  H    0.063027
    74  H    0.023343
    75  H    0.043023
    76  H    0.036621
    77  H    0.014152
    78  H    0.006393
    79  H    0.018957
    80  H    0.024791
    81  H    0.050427
    82  H    0.039996
    83  H    0.040955
    84  H    0.034086
    85  H    0.026248
    86  H    0.008781
    87  H    0.018519
    88  H    0.046278
    89  H    0.041733
    90  H    0.040375
    91  H    0.068865
    92  H    0.053011
    93  H    0.056278
    94  H    0.017467
    95  H    0.018013
    96  H    0.032829
    97  H    0.012375
    98  H    0.011956
    99  H   -0.071908
   100  H    0.013263
   101  H    0.043357
   102  H    0.047908
   103  H    0.070621
   104  H    0.012342
   105  H    0.007749
   106  H    0.053133
   107  H    0.014620
   108  H    0.023206
   109  H    0.034509
   110  H    0.007632
   111  H    0.031745
   112  H    0.046613
   113  H    0.016958
   114  H   -0.033845
   115  H   -0.024891
   116  H   -0.021075
   117  H   -0.055820
   118  H   -0.020058
   119  H   -0.025554
   120  H    0.004791
   121  H    0.035940
   122  H    0.000342
   123  H    0.018762
   124  H    0.011868
   125  H    0.003327
   126  H    0.029281
   127  H    0.023965
   128  H    0.016431
   129  H    0.020800
   130  H   -0.010798
   131  H    0.017913
   132  H   -0.005933
   133  H   -0.014321
   134  H   -0.019415
   135  H    0.019881
   136  H   -0.030559
   137  H    0.194125
   138  H    0.158748
 Sum of Mulliken charges =   0.00000

 Dipole moment (field-independent basis, Debye):
    X=              1.8999    Y=              3.5610    Z=              0.2724  Tot=              4.0453
 Quadrupole moment (field-independent basis, Debye-Ang):
   XX=           -346.7405   YY=           -383.7230   ZZ=           -398.3001
   XY=            -17.0604   XZ=              8.0483   YZ=             -1.6038

 Normal termination of Gaussian 09 at Tue Jul 30 11:23:34 2019.
