 Gaussian 09, Revision D.01,
 Gaussian 09:  ES64L-G09RevD.01 24-Apr-2013

 --------------------------
 # td=(NStates=1) B3LYP/SVP
 --------------------------

 --
 TD
 --
 Symbolic Z-matrix:
 Charge =  0 Multiplicity = 1

                         Standard orientation:
 ---------------------------------------------------------------------
 Center     Atomic      Atomic             Coordinates (Angstroms)
 Number     Number       Type             X           Y           Z
 ---------------------------------------------------------------------
      1          6           0       -4.996841   -1.921924    0.576669
      2          6           0       -4.891849    2.912902    1.271828
      3          6           0       -9.430286    3.298217   -0.387236
      4          6           0       -9.705791   -1.584299   -0.881489
      5          7           0       -5.188824    0.515875    0.860971
      6          6           0       -4.474241   -0.658422    0.930229
      7          6           0       -3.010477   -0.505981    1.272473
      8          6           0       -3.069690    1.047726    1.789290
      9          6           0       -4.398870    1.584464    1.251755
     10          6           0       -3.077836    1.134355    3.383002
     11          6           0       -2.062483   -0.681489    0.111454
     12          6           0       -0.581051   -0.618141    0.579434
     13          6           0        0.370226   -0.978046   -0.499421
     14          8           0        0.026217   -1.345557   -1.638970
     15          8           0        1.657546   -0.887710   -0.207527
     16          7           0       -7.074134    2.752132    0.340037
     17          6           0       -6.094211    3.429262    0.853513
     18          6           0       -6.387910    4.781021    0.936393
     19          6           0       -7.668533    4.987127    0.460747
     20          6           0       -8.096367    3.670374    0.007734
     21          6           0       -5.566562    5.902863    1.488872
     22          6           0       -8.483934    6.299417    0.202394
     23          6           0       -9.332135    6.582544   -0.768914
     24          7           0       -9.226935    0.842273   -0.428626
     25          6           0       -9.943003    1.929357   -0.565816
     26          6           0      -11.317243    1.669231   -0.944631
     27          6           0      -11.379649    0.316761   -1.116392
     28          6           0      -10.063409   -0.279783   -0.804838
     29          6           0      -12.411694    2.680175   -1.160257
     30          6           0      -12.602655   -0.436948   -1.585299
     31          6           0      -12.523761   -0.910597   -3.084458
     32          7           0       -7.538391   -1.269820   -0.104138
     33          6           0       -8.514526   -2.106508   -0.613437
     34          6           0       -8.015114   -3.430315   -0.643166
     35          6           0       -6.735952   -3.334403   -0.146676
     36          6           0       -6.374018   -1.986389    0.152345
     37          6           0       -8.833133   -4.668740   -0.971175
     38          6           0       -5.544314   -4.211080    0.025706
     39          8           0       -5.553980   -5.395280   -0.071077
     40          6           0       -4.397267   -3.268990    0.564392
     41          6           0       -3.805801   -3.690008    1.885069
     42          8           0       -4.154545   -3.186106    2.951270
     43          8           0       -2.885418   -4.634919    1.808695
     44          6           0       -2.488442   -5.247877    3.001550
     45          6           0        2.672399   -1.159617   -1.294418
     46          6           0        3.967934   -0.929426   -0.637105
     47          6           0        5.005599   -0.147698   -1.123136
     48          6           0        4.892351    0.578256   -2.395105
     49          6           0        6.270970    0.091733   -0.382760
     50          6           0        7.421643   -0.608443   -0.962288
     51          6           0        8.796118   -0.289973   -0.283683
     52          6           0       10.071986   -0.686482   -0.929189
     53          6           0       10.133280   -2.196057   -1.136570
     54          6           0       11.301146   -0.186625   -0.220870
     55          6           0       12.716076   -0.286827   -0.811901
     56          6           0       13.823769    0.122805    0.105766
     57          6           0       15.163259   -0.127312   -0.478861
     58          6           0       15.623776   -1.593376   -0.648882
     59          6           0       16.267086    0.672082    0.400733
     60          6           0       17.674724    0.815171   -0.141911
     61          6           0       18.563938    1.596419    0.685167
     62          6           0       20.254334    1.602694    0.367781
     63          6           0       20.443898    1.992471   -1.035820
     64          6           0       21.028719    2.458632    1.432654
     65          1           0       -4.108775    3.815288    1.820136
     66          1           0      -10.180209    4.146102   -0.656962
     67          1           0      -10.437177   -2.326331   -1.480944
     68          1           0       -2.873494   -1.035225    2.104856
     69          1           0       -2.315450    1.596644    1.342401
     70          1           0       -2.128486    0.636729    3.781905
     71          1           0       -2.981407    2.238828    3.672730
     72          1           0       -3.917981    0.362674    3.806877
     73          1           0       -2.005508   -1.737980   -0.391144
     74          1           0       -2.245251   -0.091602   -0.633419
     75          1           0       -0.333176    0.479878    0.928398
     76          1           0       -0.403592   -1.178438    1.585785
     77          1           0       -4.643566    5.874531    0.833276
     78          1           0       -6.103763    6.996292    1.395620
     79          1           0       -5.187098    5.748021    2.486764
     80          1           0       -8.149116    6.989645    0.984358
     81          1           0       -9.626446    6.024244   -1.607936
     82          1           0       -9.860667    7.581792   -0.606711
     83          1           0      -12.568995    3.241114   -0.190077
     84          1           0      -12.322042    3.298674   -1.970819
     85          1           0      -13.363009    2.045049   -1.267671
     86          1           0      -12.689946   -1.405439   -1.189962
     87          1           0      -13.703474    0.034330   -1.409964
     88          1           0      -12.324616    0.023858   -3.586177
     89          1           0      -11.525836   -1.336967   -3.450574
     90          1           0      -13.431531   -1.392495   -3.344064
     91          1           0       -9.514969   -4.851577   -0.307753
     92          1           0       -9.449180   -4.574791   -1.932051
     93          1           0       -8.056822   -5.462411   -1.141403
     94          1           0       -3.675404   -3.142734   -0.241194
     95          1           0       -1.687675   -6.066753    2.908735
     96          1           0       -2.008256   -4.532852    3.642242
     97          1           0       -3.367326   -5.538956    3.731439
     98          1           0        2.370431   -2.260207   -1.515714
     99          1           0        2.435751   -0.483616   -2.183487
    100          1           0        3.977672   -1.323105    0.318654
    101          1           0        5.161958    1.583873   -2.313179
    102          1           0        5.475294    0.121434   -3.230552
    103          1           0        3.845921    0.339611   -2.974198
    104          1           0        6.489444    1.038776   -0.225632
    105          1           0        6.048241   -0.117827    0.644746
    106          1           0        7.070098   -1.760832   -1.176304
    107          1           0        7.712052   -0.167722   -2.064026
    108          1           0        8.725521    0.805071   -0.271643
    109          1           0        8.780795   -0.729947    0.845225
    110          1           0       10.088946   -0.215503   -1.880021
    111          1           0        9.168679   -2.394433   -1.784541
    112          1           0       10.952955   -2.462884   -1.701824
    113          1           0       10.125197   -2.880740   -0.160560
    114          1           0       10.957659    1.018797    0.132081
    115          1           0       11.203634   -0.597956    0.858775
    116          1           0       12.905772   -1.437885   -1.105245
    117          1           0       12.703834    0.191504   -1.943786
    118          1           0       13.691533    1.195912    0.261041
    119          1           0       13.876100   -0.321958    1.174402
    120          1           0       15.052008    0.550736   -1.427570
    121          1           0       15.040248   -2.231853   -1.527636
    122          1           0       16.614411   -1.521605   -1.311885
    123          1           0       15.614893   -2.079123    0.361679
    124          1           0       15.730258    1.654911    0.646785
    125          1           0       16.314613   -0.008523    1.497589
    126          1           0       18.040289   -0.250502   -0.150363
    127          1           0       17.454219    1.231809   -1.186162
    128          1           0       18.237199    2.714531    0.500779
    129          1           0       18.362923    1.282912    1.712096
    130          1           0       20.659203    0.603358    0.550707
    131          1           0       20.175512    3.085965   -1.359196
    132          1           0       21.427206    1.752939   -1.255945
    133          1           0       19.650283    1.538812   -1.677477
    134          1           0       20.808878    2.044095    2.454458
    135          1           0       22.002430    2.170848    1.246427
    136          1           0       20.569151    3.478579    1.300804
    137          1           0       -7.226008    1.710819    0.269942
    138          1           0       -7.730599   -0.160566    0.129748
 ---------------------------------------------------------------------

 SCF Done:  E(RB3LYP) =  -2733.07872067     A.U. after   17 cycles

 Excitation energies and oscillator strengths:

 Excited State   1:      Singlet-A      2.1251 eV  583.43 nm  f=0.1387  <S**2>=0.000
     235 -> 237       -0.18935
     235 -> 238        0.31173
     236 -> 237        0.58969
     236 -> 238        0.13002
 This state for optimization and/or second-order correction.
 Total Energy, E(TD-HF/TD-KS) =  -2733.00062437
 Copying the excited state density for this state as the 1-particle RhoCI density.

 The electronic state is 1-A.
 Alpha  occ. eigenvalues --  -19.19181 -19.17014 -19.12512 -19.12341 -19.11036
 Alpha  occ. eigenvalues --  -14.36957 -14.36205 -14.31981 -14.30288 -10.32292
 Alpha  occ. eigenvalues --  -10.31005 -10.27838 -10.25860 -10.25465 -10.23739
 Alpha  occ. eigenvalues --  -10.23134 -10.23090 -10.22852 -10.22467 -10.21709
 Alpha  occ. eigenvalues --  -10.21606 -10.21510 -10.21462 -10.21265 -10.21230
 Alpha  occ. eigenvalues --  -10.21065 -10.21052 -10.21049 -10.20983 -10.20940
 Alpha  occ. eigenvalues --  -10.20832 -10.20750 -10.20736 -10.20648 -10.20293
 Alpha  occ. eigenvalues --  -10.20284 -10.20264 -10.20195 -10.20130 -10.20008
 Alpha  occ. eigenvalues --  -10.19970 -10.19912 -10.19890 -10.19667 -10.19655
 Alpha  occ. eigenvalues --  -10.19374 -10.19329 -10.19090 -10.19057 -10.18933
 Alpha  occ. eigenvalues --  -10.18709 -10.18625 -10.18522 -10.18500 -10.18491
 Alpha  occ. eigenvalues --  -10.18469 -10.18443 -10.18430 -10.17895 -10.17847
 Alpha  occ. eigenvalues --  -10.17821 -10.17805 -10.17771 -10.17581  -1.11340
 Alpha  occ. eigenvalues --   -1.08321  -1.04308  -1.00476  -0.99472  -0.97825
 Alpha  occ. eigenvalues --   -0.96698  -0.92894  -0.92525  -0.84969  -0.83961
 Alpha  occ. eigenvalues --   -0.82389  -0.81748  -0.81376  -0.81012  -0.80288
 Alpha  occ. eigenvalues --   -0.79733  -0.79273  -0.79139  -0.78824  -0.77824
 Alpha  occ. eigenvalues --   -0.76703  -0.76512  -0.75872  -0.75366  -0.74515
 Alpha  occ. eigenvalues --   -0.73975  -0.73281  -0.72466  -0.72088  -0.70345
 Alpha  occ. eigenvalues --   -0.70106  -0.69209  -0.68627  -0.68387  -0.68105
 Alpha  occ. eigenvalues --   -0.67462  -0.66885  -0.65607  -0.65338  -0.65092
 Alpha  occ. eigenvalues --   -0.63773  -0.62666  -0.62119  -0.61420  -0.61332
 Alpha  occ. eigenvalues --   -0.60823  -0.58539  -0.58148  -0.58111  -0.57726
 Alpha  occ. eigenvalues --   -0.56632  -0.55888  -0.55424  -0.55220  -0.55070
 Alpha  occ. eigenvalues --   -0.54437  -0.54314  -0.54145  -0.53599  -0.53410
 Alpha  occ. eigenvalues --   -0.52985  -0.52378  -0.51867  -0.51256  -0.50047
 Alpha  occ. eigenvalues --   -0.49720  -0.49485  -0.48866  -0.48637  -0.48298
 Alpha  occ. eigenvalues --   -0.47881  -0.47750  -0.47678  -0.47318  -0.47188
 Alpha  occ. eigenvalues --   -0.46738  -0.46544  -0.46207  -0.46028  -0.45909
 Alpha  occ. eigenvalues --   -0.45491  -0.45420  -0.45155  -0.44946  -0.44547
 Alpha  occ. eigenvalues --   -0.44380  -0.44340  -0.44155  -0.43797  -0.43579
 Alpha  occ. eigenvalues --   -0.43553  -0.43488  -0.43252  -0.42999  -0.42629
 Alpha  occ. eigenvalues --   -0.42469  -0.42311  -0.41879  -0.41578  -0.41473
 Alpha  occ. eigenvalues --   -0.41211  -0.41160  -0.40955  -0.40667  -0.40462
 Alpha  occ. eigenvalues --   -0.40063  -0.40002  -0.39731  -0.39586  -0.39372
 Alpha  occ. eigenvalues --   -0.39223  -0.38984  -0.38816  -0.38671  -0.38436
 Alpha  occ. eigenvalues --   -0.38337  -0.38037  -0.37832  -0.37664  -0.37420
 Alpha  occ. eigenvalues --   -0.37171  -0.37098  -0.36989  -0.36639  -0.36470
 Alpha  occ. eigenvalues --   -0.36344  -0.36094  -0.35935  -0.35845  -0.35723
 Alpha  occ. eigenvalues --   -0.35539  -0.35423  -0.35091  -0.34866  -0.34587
 Alpha  occ. eigenvalues --   -0.34448  -0.34384  -0.34355  -0.33900  -0.33866
 Alpha  occ. eigenvalues --   -0.33737  -0.33668  -0.33079  -0.32344  -0.32257
 Alpha  occ. eigenvalues --   -0.31419  -0.31291  -0.31120  -0.30974  -0.30799
 Alpha  occ. eigenvalues --   -0.30525  -0.30515  -0.30444  -0.30330  -0.29702
 Alpha  occ. eigenvalues --   -0.29527  -0.28864  -0.28268  -0.27871  -0.27787
 Alpha  occ. eigenvalues --   -0.27029  -0.26645  -0.26335  -0.25935  -0.25487
 Alpha  occ. eigenvalues --   -0.24941  -0.24893  -0.24810  -0.22505  -0.19550
 Alpha  occ. eigenvalues --   -0.18642
 Alpha virt. eigenvalues --   -0.09636  -0.07408  -0.03695  -0.01660  -0.01519
 Alpha virt. eigenvalues --   -0.00538  -0.00033   0.00740   0.02668   0.03100
 Alpha virt. eigenvalues --    0.03618   0.04028   0.04174   0.04450   0.04579

 Mulliken charges:
               1
     1  C   -0.131731
     2  C   -0.160571
     3  C   -0.093857
     4  C   -0.164395
     5  N   -0.201780
     6  C   -0.076820
     7  C    0.066746
     8  C   -0.018131
     9  C   -0.000093
    10  C    0.002199
    11  C    0.142666
    12  C   -0.047972
    13  C    0.197221
    14  O   -0.291086
    15  O   -0.327629
    16  N   -0.025444
    17  C    0.125392
    18  C   -0.133351
    19  C   -0.033978
    20  C    0.054477
    21  C    0.061104
    22  C    0.008083
    23  C   -0.004164
    24  N   -0.267561
    25  C    0.027484
    26  C   -0.174196
    27  C   -0.048143
    28  C    0.109984
    29  C    0.137864
    30  C    0.037434
    31  C   -0.007254
    32  N   -0.160560
    33  C    0.109559
    34  C   -0.157578
    35  C   -0.062697
    36  C    0.156901
    37  C    0.162335
    38  C    0.057784
    39  O   -0.135860
    40  C    0.089589
    41  C    0.207733
    42  O   -0.248589
    43  O   -0.248807
    44  C    0.161359
    45  C    0.243683
    46  C   -0.039579
    47  C   -0.153738
    48  C    0.065930
    49  C    0.231072
    50  C   -0.088331
    51  C    0.008479
    52  C    0.011413
    53  C    0.021889
    54  C   -0.050298
    55  C    0.007650
    56  C    0.054792
    57  C   -0.100839
    58  C   -0.009065
    59  C   -0.100404
    60  C    0.076613
    61  C   -0.003726
    62  C   -0.121124
    63  C    0.059168
    64  C    0.066587
    65  H    0.016603
    66  H    0.007594
    67  H    0.023584
    68  H   -0.059097
    69  H   -0.035301
    70  H    0.015903
    71  H    0.036926
    72  H    0.064337
    73  H    0.042077
    74  H   -0.044992
    75  H    0.041796
    76  H    0.048619
    77  H    0.031862
    78  H    0.043916
    79  H    0.027966
    80  H    0.006766
    81  H    0.022441
    82  H    0.036462
    83  H    0.024557
    84  H    0.009072
    85  H    0.004653
    86  H   -0.021884
    87  H    0.027554
    88  H   -0.009515
    89  H    0.020349
    90  H    0.019039
    91  H   -0.016223
    92  H    0.012360
    93  H    0.047512
    94  H    0.046702
    95  H    0.050967
    96  H    0.002958
    97  H    0.043875
    98  H    0.045364
    99  H    0.044820
   100  H   -0.034427
   101  H    0.015127
   102  H    0.026236
   103  H    0.009640
   104  H   -0.066053
   105  H   -0.029668
   106  H    0.032223
   107  H    0.009016
   108  H   -0.006102
   109  H    0.007954
   110  H   -0.035395
   111  H    0.015560
   112  H   -0.009615
   113  H    0.022790
   114  H   -0.016158
   115  H   -0.004739
   116  H    0.011010
   117  H    0.017393
   118  H   -0.010274
   119  H    0.000689
   120  H   -0.007078
   121  H    0.027027
   122  H    0.035885
   123  H    0.035422
   124  H    0.003298
   125  H   -0.006219
   126  H    0.004147
   127  H    0.008355
   128  H   -0.002700
   129  H   -0.006949
   130  H   -0.011927
   131  H    0.002786
   132  H   -0.004866
   133  H    0.007371
   134  H    0.005729
   135  H   -0.006688
   136  H    0.027188
   137  H    0.161593
   138  H    0.218955
 Sum of Mulliken charges =   0.00000

 Dipole moment (field-independent basis, Debye):
    X=              3.9672    Y=              4.0920    Z=              0.3490  Tot=              5.7100
 Quadrupole moment (field-independent basis, Debye-Ang):
   XX=           -347.7621   YY=           -382.7706   ZZ=           -394.6736
   XY=            -29.1312   XZ=              4.0367   YZ=             -4.2120

 Normal termination of Gaussian 09 at Sun Aug  4 17:46:18 2019.
