 Gaussian 09, Revision D.01,
 Gaussian 09:  ES64L-G09RevD.01 24-Apr-2013

 --------------------------
 # td=(NStates=1) B3LYP/SVP
 --------------------------

 --
 TD
 --
 Symbolic Z-matrix:
 Charge =  0 Multiplicity = 1

                         Standard orientation:
 ---------------------------------------------------------------------
 Center     Atomic      Atomic             Coordinates (Angstroms)
 Number     Number       Type             X           Y           Z
 ---------------------------------------------------------------------
      1          6           0       -5.271202   -1.965417    0.447448
      2          6           0       -4.634693    2.748083    1.449746
      3          6           0       -9.351764    3.393368   -0.138535
      4          6           0       -9.850944   -1.322705   -0.971388
      5          7           0       -5.151315    0.417270    0.578561
      6          6           0       -4.557977   -0.803427    0.705480
      7          6           0       -3.115407   -0.696531    1.223071
      8          6           0       -3.159256    0.754509    1.851026
      9          6           0       -4.395307    1.373026    1.284705
     10          6           0       -3.089564    0.884926    3.292138
     11          6           0       -2.114650   -0.974158    0.071950
     12          6           0       -0.650638   -0.995040    0.638525
     13          6           0        0.405028   -1.177952   -0.508628
     14          8           0        0.227787   -1.546858   -1.637933
     15          8           0        1.664477   -0.829938    0.002010
     16          7           0       -6.941423    2.742504    0.437360
     17          6           0       -5.837082    3.332382    0.963837
     18          6           0       -6.155411    4.741836    1.106867
     19          6           0       -7.408696    4.974749    0.489837
     20          6           0       -7.944405    3.676531    0.197164
     21          6           0       -5.230745    5.865192    1.542324
     22          6           0       -8.053855    6.314134    0.354959
     23          6           0       -8.978107    6.592299   -0.513499
     24          7           0       -9.220808    0.981457   -0.446861
     25          6           0       -9.864066    2.177502   -0.505503
     26          6           0      -11.205237    1.961618   -0.905332
     27          6           0      -11.350469    0.620878   -1.150288
     28          6           0      -10.068427    0.020764   -0.922656
     29          6           0      -12.234533    3.164472   -0.995872
     30          6           0      -12.618609   -0.158993   -1.590794
     31          6           0      -12.597886   -0.330964   -3.083282
     32          7           0       -7.612306   -1.242962   -0.317636
     33          6           0       -8.619757   -1.896213   -0.729688
     34          6           0       -8.289410   -3.372399   -0.877184
     35          6           0       -7.023325   -3.465686   -0.346507
     36          6           0       -6.552334   -2.137192   -0.015581
     37          6           0       -9.130992   -4.471880   -1.435452
     38          6           0       -5.834042   -4.381140   -0.143113
     39          8           0       -5.793723   -5.514733   -0.265573
     40          6           0       -4.632006   -3.396240    0.349641
     41          6           0       -4.048994   -3.901447    1.675766
     42          8           0       -4.386122   -3.612838    2.801040
     43          8           0       -3.150884   -4.945446    1.457472
     44          6           0       -2.734145   -5.584425    2.591289
     45          6           0        2.732382   -1.030235   -0.990267
     46          6           0        4.089377   -0.626197   -0.300720
     47          6           0        4.965208    0.161360   -0.753990
     48          6           0        4.939671    0.997826   -1.986909
     49          6           0        6.349986    0.271681    0.006330
     50          6           0        7.544202   -0.254852   -0.724634
     51          6           0        8.793735   -0.336335    0.183904
     52          6           0       10.022424   -0.653702   -0.677483
     53          6           0       10.113181   -2.158594   -1.202691
     54          6           0       11.277066   -0.356985    0.185913
     55          6           0       12.638752   -0.407666   -0.427988
     56          6           0       13.789090    0.070008    0.378292
     57          6           0       15.194081   -0.220453   -0.267245
     58          6           0       15.634947   -1.698467   -0.171998
     59          6           0       16.273756    0.767558    0.448065
     60          6           0       17.655973    0.798369   -0.297121
     61          6           0       18.743334    1.557729    0.430405
     62          6           0       20.186493    1.499733   -0.133654
     63          6           0       20.187265    2.037578   -1.621583
     64          6           0       21.220624    2.315335    0.634636
     65          1           0       -3.819404    3.443802    1.708433
     66          1           0       -9.942653    4.326900   -0.206610
     67          1           0      -10.655801   -2.052418   -1.241096
     68          1           0       -2.908763   -1.441656    1.876608
     69          1           0       -2.193309    1.257746    1.544457
     70          1           0       -2.281289    0.423685    3.708084
     71          1           0       -3.071541    1.794454    3.661073
     72          1           0       -4.125302    0.477513    3.863465
     73          1           0       -2.264613   -1.834136   -0.473446
     74          1           0       -2.306233   -0.139586   -0.540941
     75          1           0       -0.455159   -0.000212    1.030996
     76          1           0       -0.530191   -1.691207    1.399845
     77          1           0       -3.986985    5.777489    1.295529
     78          1           0       -5.539264    6.923698    1.384035
     79          1           0       -5.107464    5.743015    2.665519
     80          1           0       -7.511734    7.018088    1.029320
     81          1           0       -9.201136    5.853350   -1.481413
     82          1           0       -9.470504    7.673603   -0.626064
     83          1           0      -12.323710    3.850210   -0.046995
     84          1           0      -11.869766    3.729433   -1.844777
     85          1           0      -13.204660    2.772009   -1.225934
     86          1           0      -12.647475   -1.150179   -1.111016
     87          1           0      -13.349565    0.532127   -1.285685
     88          1           0      -12.400687    0.771605   -3.512250
     89          1           0      -11.480522   -0.511969   -3.620268
     90          1           0      -13.283342   -0.886129   -3.594529
     91          1           0      -10.233802   -4.525983   -1.308181
     92          1           0       -8.842959   -4.394329   -2.711361
     93          1           0       -8.658588   -5.413758   -1.029065
     94          1           0       -3.920324   -3.378160   -0.573482
     95          1           0       -2.225841   -6.540368    2.230108
     96          1           0       -1.980233   -5.031595    3.187151
     97          1           0       -3.422151   -6.068150    3.219463
     98          1           0        2.569507   -2.135730   -1.355614
     99          1           0        2.351335   -0.349203   -1.783925
    100          1           0        4.282969   -1.340759    0.568093
    101          1           0        5.405360    2.038750   -1.799826
    102          1           0        5.602742    0.585384   -2.794073
    103          1           0        3.860198    1.051545   -2.525942
    104          1           0        6.657670    1.349521    0.376401
    105          1           0        6.101947   -0.369958    0.895687
    106          1           0        7.172296   -1.278862   -1.123741
    107          1           0        7.658616    0.585846   -1.654255
    108          1           0        8.982579    0.639333    0.751674
    109          1           0        8.627967   -1.036549    1.152845
    110          1           0        9.874921   -0.030952   -1.720087
    111          1           0        9.233097   -2.648523   -1.681127
    112          1           0       10.893338   -2.355072   -1.683920
    113          1           0        9.954364   -2.774951   -0.262963
    114          1           0       10.998437    0.695297    0.790094
    115          1           0       11.251527   -1.118828    1.074418
    116          1           0       12.890641   -1.523207   -0.450808
    117          1           0       12.708616    0.059764   -1.375606
    118          1           0       13.814783    1.252178    0.735601
    119          1           0       13.701352   -0.471412    1.352314
    120          1           0       15.045869   -0.189817   -1.379796
    121          1           0       15.088095   -2.270443   -0.844275
    122          1           0       16.691649   -1.751163   -0.761849
    123          1           0       15.639087   -2.065976    0.801932
    124          1           0       16.077226    1.788822    0.500053
    125          1           0       16.375197    0.339473    1.463464
    126          1           0       17.969385   -0.257948   -0.258028
    127          1           0       17.544305    1.262139   -1.474295
    128          1           0       18.387853    2.609439    0.480997
    129          1           0       19.036198    1.541518    1.487317
    130          1           0       20.253866    0.371074   -0.181233
    131          1           0       19.866530    3.107178   -1.888859
    132          1           0       21.081089    1.937121   -2.191227
    133          1           0       19.473951    1.467234   -2.319354
    134          1           0       20.900303    2.050330    1.572891
    135          1           0       22.240208    2.361321    0.174289
    136          1           0       20.860805    3.495174    0.512105
    137          1           0       -7.098453    1.703631    0.118911
    138          1           0       -7.739628   -0.109868    0.032281
 ---------------------------------------------------------------------

 SCF Done:  E(RB3LYP) =  -2733.04488641     A.U. after   16 cycles

 Excitation energies and oscillator strengths:

 Excited State   1:      Singlet-A      2.0201 eV  613.77 nm  f=0.1965  <S**2>=0.000
     235 -> 238       -0.29003
     236 -> 237        0.64328
 This state for optimization and/or second-order correction.
 Total Energy, E(TD-HF/TD-KS) =  -2732.97065068
 Copying the excited state density for this state as the 1-particle RhoCI density.

 The electronic state is 1-A.
 Alpha  occ. eigenvalues --  -19.17545 -19.16617 -19.14223 -19.13525 -19.13343
 Alpha  occ. eigenvalues --  -14.37344 -14.36921 -14.32510 -14.29883 -10.32321
 Alpha  occ. eigenvalues --  -10.31783 -10.29253 -10.25285 -10.23792 -10.23556
 Alpha  occ. eigenvalues --  -10.23525 -10.23404 -10.23026 -10.23015 -10.22994
 Alpha  occ. eigenvalues --  -10.22843 -10.22408 -10.22356 -10.21813 -10.21010
 Alpha  occ. eigenvalues --  -10.20809 -10.20710 -10.20655 -10.20620 -10.20616
 Alpha  occ. eigenvalues --  -10.20448 -10.20439 -10.20359 -10.20353 -10.20269
 Alpha  occ. eigenvalues --  -10.20228 -10.20042 -10.20041 -10.19952 -10.19915
 Alpha  occ. eigenvalues --  -10.19814 -10.19758 -10.19752 -10.19676 -10.19653
 Alpha  occ. eigenvalues --  -10.19631 -10.19581 -10.19470 -10.19259 -10.19231
 Alpha  occ. eigenvalues --  -10.19216 -10.19167 -10.18979 -10.18912 -10.18751
 Alpha  occ. eigenvalues --  -10.18486 -10.18410 -10.18139 -10.18074 -10.17884
 Alpha  occ. eigenvalues --  -10.17869 -10.17505 -10.17447 -10.17159  -1.09691
 Alpha  occ. eigenvalues --   -1.08465  -1.08029  -1.01218  -1.00254  -0.99141
 Alpha  occ. eigenvalues --   -0.97362  -0.93889  -0.93124  -0.84921  -0.82719
 Alpha  occ. eigenvalues --   -0.81624  -0.81339  -0.81127  -0.80704  -0.80592
 Alpha  occ. eigenvalues --   -0.80036  -0.79397  -0.79293  -0.78817  -0.77800
 Alpha  occ. eigenvalues --   -0.76610  -0.75684  -0.75528  -0.74613  -0.73948
 Alpha  occ. eigenvalues --   -0.73421  -0.72992  -0.72514  -0.71664  -0.70050
 Alpha  occ. eigenvalues --   -0.69841  -0.68932  -0.68195  -0.68124  -0.67482
 Alpha  occ. eigenvalues --   -0.67296  -0.66967  -0.66726  -0.65570  -0.65179
 Alpha  occ. eigenvalues --   -0.64289  -0.62861  -0.62084  -0.61543  -0.60825
 Alpha  occ. eigenvalues --   -0.60620  -0.58599  -0.57828  -0.57780  -0.56910
 Alpha  occ. eigenvalues --   -0.56265  -0.55912  -0.55450  -0.55131  -0.55020
 Alpha  occ. eigenvalues --   -0.54842  -0.54616  -0.54455  -0.53129  -0.52659
 Alpha  occ. eigenvalues --   -0.52510  -0.51896  -0.51682  -0.50910  -0.50126
 Alpha  occ. eigenvalues --   -0.49757  -0.49508  -0.49064  -0.48854  -0.48046
 Alpha  occ. eigenvalues --   -0.47962  -0.47836  -0.47706  -0.47400  -0.46873
 Alpha  occ. eigenvalues --   -0.46693  -0.46469  -0.46393  -0.46221  -0.45888
 Alpha  occ. eigenvalues --   -0.45761  -0.45160  -0.45068  -0.44967  -0.44725
 Alpha  occ. eigenvalues --   -0.44459  -0.44445  -0.44248  -0.44036  -0.43568
 Alpha  occ. eigenvalues --   -0.43476  -0.43417  -0.43114  -0.43098  -0.42722
 Alpha  occ. eigenvalues --   -0.42659  -0.42502  -0.42056  -0.41792  -0.41584
 Alpha  occ. eigenvalues --   -0.41454  -0.41394  -0.41161  -0.41149  -0.40881
 Alpha  occ. eigenvalues --   -0.40577  -0.40343  -0.40005  -0.39852  -0.39702
 Alpha  occ. eigenvalues --   -0.39352  -0.39251  -0.39046  -0.38970  -0.38574
 Alpha  occ. eigenvalues --   -0.38133  -0.38110  -0.37969  -0.37803  -0.37645
 Alpha  occ. eigenvalues --   -0.37584  -0.37396  -0.37115  -0.36808  -0.36632
 Alpha  occ. eigenvalues --   -0.36417  -0.36177  -0.36133  -0.35955  -0.35848
 Alpha  occ. eigenvalues --   -0.35693  -0.35252  -0.34770  -0.34713  -0.34519
 Alpha  occ. eigenvalues --   -0.34187  -0.34065  -0.33781  -0.33666  -0.33637
 Alpha  occ. eigenvalues --   -0.33581  -0.33244  -0.32613  -0.32473  -0.31620
 Alpha  occ. eigenvalues --   -0.31537  -0.31360  -0.31153  -0.31049  -0.30997
 Alpha  occ. eigenvalues --   -0.30571  -0.30493  -0.30297  -0.29876  -0.29785
 Alpha  occ. eigenvalues --   -0.29658  -0.29575  -0.28863  -0.28747  -0.28648
 Alpha  occ. eigenvalues --   -0.28197  -0.27040  -0.26732  -0.26479  -0.26278
 Alpha  occ. eigenvalues --   -0.26012  -0.25933  -0.23639  -0.22746  -0.19757
 Alpha  occ. eigenvalues --   -0.18613
 Alpha virt. eigenvalues --   -0.10186  -0.07504  -0.04444  -0.01956  -0.01025
 Alpha virt. eigenvalues --    0.00039   0.00434   0.00937   0.02468   0.03601
 Alpha virt. eigenvalues --    0.03851   0.04355   0.04389   0.04673   0.04821

 Mulliken charges:
               1
     1  C    0.077283
     2  C   -0.087155
     3  C   -0.100244
     4  C   -0.148660
     5  N   -0.215759
     6  C   -0.112544
     7  C    0.059096
     8  C   -0.042619
     9  C    0.059253
    10  C    0.140573
    11  C    0.086330
    12  C    0.069879
    13  C    0.188853
    14  O   -0.217450
    15  O   -0.367042
    16  N   -0.099055
    17  C    0.111830
    18  C   -0.116191
    19  C   -0.027205
    20  C    0.036459
    21  C   -0.006596
    22  C    0.035038
    23  C   -0.117311
    24  N   -0.282796
    25  C    0.116780
    26  C   -0.143497
    27  C   -0.187681
    28  C    0.144371
    29  C    0.107057
    30  C    0.184254
    31  C   -0.041530
    32  N   -0.070160
    33  C    0.035631
    34  C   -0.153745
    35  C    0.004239
    36  C    0.059125
    37  C    0.005999
    38  C    0.074421
    39  O   -0.067670
    40  C   -0.136461
    41  C    0.239256
    42  O   -0.211690
    43  O   -0.298005
    44  C    0.189334
    45  C    0.204582
    46  C   -0.082676
    47  C   -0.074429
    48  C    0.018730
    49  C    0.015504
    50  C   -0.037439
    51  C    0.004386
    52  C   -0.095208
    53  C    0.094989
    54  C   -0.032295
    55  C    0.088404
    56  C   -0.005695
    57  C   -0.100801
    58  C    0.045017
    59  C    0.066246
    60  C   -0.002705
    61  C    0.020728
    62  C   -0.103871
    63  C   -0.013728
    64  C    0.074154
    65  H   -0.001283
    66  H   -0.010539
    67  H   -0.015653
    68  H   -0.052570
    69  H   -0.005857
    70  H   -0.018086
    71  H   -0.039548
    72  H    0.018153
    73  H   -0.002586
    74  H   -0.012767
    75  H    0.018415
    76  H    0.017629
    77  H    0.041998
    78  H    0.036012
    79  H    0.026590
    80  H    0.002643
    81  H    0.072096
    82  H    0.046216
    83  H    0.047031
    84  H    0.020099
    85  H   -0.002918
    86  H    0.006177
    87  H   -0.006809
    88  H    0.007103
    89  H    0.018920
    90  H    0.007137
    91  H    0.047487
    92  H    0.062867
    93  H    0.054672
    94  H    0.088067
    95  H    0.010978
    96  H    0.017335
    97  H    0.008804
    98  H    0.046786
    99  H    0.018470
   100  H    0.011854
   101  H    0.030852
   102  H    0.037033
   103  H    0.031142
   104  H    0.017217
   105  H   -0.007934
   106  H    0.022960
   107  H    0.025375
   108  H    0.001760
   109  H    0.013774
   110  H    0.018704
   111  H    0.000278
   112  H   -0.037195
   113  H   -0.011178
   114  H    0.006531
   115  H    0.002693
   116  H    0.007928
   117  H   -0.011037
   118  H    0.006914
   119  H   -0.018164
   120  H   -0.010503
   121  H   -0.008891
   122  H    0.018520
   123  H    0.001839
   124  H   -0.012101
   125  H    0.001540
   126  H   -0.001751
   127  H    0.043531
   128  H   -0.031477
   129  H   -0.029020
   130  H    0.005127
   131  H    0.005533
   132  H   -0.014655
   133  H   -0.006785
   134  H   -0.013831
   135  H    0.037476
   136  H    0.011173
   137  H    0.187880
   138  H    0.235925
 Sum of Mulliken charges =   0.00000

 Dipole moment (field-independent basis, Debye):
    X=              1.9523    Y=              2.5736    Z=              0.0028  Tot=              3.2303
 Quadrupole moment (field-independent basis, Debye-Ang):
   XX=           -361.8258   YY=           -380.1470   ZZ=           -397.8088
   XY=            -17.8596   XZ=             11.9960   YZ=              1.4720

 Normal termination of Gaussian 09 at Thu Aug  1 01:41:16 2019.
