 Gaussian 09, Revision D.01,
 Gaussian 09:  ES64L-G09RevD.01 24-Apr-2013

 --------------------------
 # td=(NStates=1) B3LYP/SVP
 --------------------------

 --
 TD
 --
 Symbolic Z-matrix:
 Charge =  0 Multiplicity = 1

                         Standard orientation:
 ---------------------------------------------------------------------
 Center     Atomic      Atomic             Coordinates (Angstroms)
 Number     Number       Type             X           Y           Z
 ---------------------------------------------------------------------
      1          6           0       -5.038552   -1.914807    0.319480
      2          6           0       -4.797169    2.876700    1.258613
      3          6           0       -9.444590    3.168824   -0.147532
      4          6           0       -9.869311   -1.668211   -0.776146
      5          7           0       -5.144496    0.430384    0.570340
      6          6           0       -4.356829   -0.746866    0.663251
      7          6           0       -3.003712   -0.564366    1.296433
      8          6           0       -3.063540    0.999944    1.620435
      9          6           0       -4.498331    1.479532    1.083686
     10          6           0       -2.847026    1.163790    3.214822
     11          6           0       -2.029514   -0.703219    0.033784
     12          6           0       -0.538611   -0.536447    0.449858
     13          6           0        0.314595   -0.965136   -0.721507
     14          8           0        0.056583   -1.315466   -1.904243
     15          8           0        1.559949   -0.662718   -0.322259
     16          7           0       -7.116190    2.666400    0.498029
     17          6           0       -6.012078    3.518654    0.934229
     18          6           0       -6.444099    4.935623    0.999944
     19          6           0       -7.740279    4.956874    0.606448
     20          6           0       -8.226457    3.593931    0.296515
     21          6           0       -5.390119    5.927791    1.243824
     22          6           0       -8.437291    6.176571    0.334709
     23          6           0       -9.291985    6.510186   -0.666872
     24          7           0       -9.261928    0.688069   -0.451928
     25          6           0       -9.946255    1.912625   -0.475867
     26          6           0      -11.300590    1.595154   -0.788204
     27          6           0      -11.404115    0.314261   -1.037132
     28          6           0      -10.206206   -0.231866   -0.744443
     29          6           0      -12.314862    2.711810   -0.857731
     30          6           0      -12.727828   -0.447489   -1.452360
     31          6           0      -12.734162   -0.819738   -2.998669
     32          7           0       -7.446500   -1.311314   -0.436915
     33          6           0       -8.559435   -2.220406   -0.602778
     34          6           0       -8.140914   -3.537376   -0.479930
     35          6           0       -6.748147   -3.444932   -0.034867
     36          6           0       -6.425419   -2.089317   -0.098486
     37          6           0       -8.955937   -4.821135   -0.788207
     38          6           0       -5.579364   -4.317427    0.154937
     39          8           0       -5.558368   -5.577602    0.227023
     40          6           0       -4.404523   -3.284969    0.343622
     41          6           0       -3.792241   -3.557662    1.702611
     42          8           0       -4.213944   -3.278180    2.790494
     43          8           0       -2.705107   -4.553645    1.599701
     44          6           0       -2.057874   -5.069988    2.824796
     45          6           0        2.669235   -1.010488   -1.249010
     46          6           0        3.984625   -0.500812   -0.675534
     47          6           0        4.938082    0.256734   -1.149798
     48          6           0        4.848646    1.045006   -2.424880
     49          6           0        6.194583    0.468320   -0.359236
     50          6           0        7.405944   -0.253666   -1.043524
     51          6           0        8.736504   -0.099500   -0.249046
     52          6           0        9.987777   -0.663758   -0.790205
     53          6           0        9.883299   -2.214384   -0.862214
     54          6           0       11.276618   -0.268167   -0.043032
     55          6           0       12.647543   -0.595057   -0.677025
     56          6           0       13.822927   -0.054763    0.135499
     57          6           0       15.256791   -0.327624   -0.342120
     58          6           0       15.617831   -1.779519   -0.138632
     59          6           0       16.265916    0.742500    0.348918
     60          6           0       17.718736    0.603261   -0.158608
     61          6           0       18.689680    1.400107    0.737846
     62          6           0       20.101135    1.530636    0.179744
     63          6           0       20.354563    1.942779   -1.237825
     64          6           0       20.994365    2.309235    1.203479
     65          1           0       -3.761669    3.502914    1.626500
     66          1           0      -10.249526    3.944392   -0.166720
     67          1           0      -10.673631   -2.286446   -1.032574
     68          1           0       -2.665140   -1.147505    1.927829
     69          1           0       -2.289815    1.638765    1.197609
     70          1           0       -1.959725    0.649059    3.590249
     71          1           0       -2.953958    2.215101    3.533310
     72          1           0       -3.956408    0.850367    3.463858
     73          1           0       -2.203889   -1.510452   -0.423047
     74          1           0       -2.359796    0.078664   -0.888965
     75          1           0       -0.032075    0.461414    0.735537
     76          1           0       -0.121029   -1.060693    1.313370
     77          1           0       -4.534288    5.800284    0.465106
     78          1           0       -5.663001    6.987773    1.277150
     79          1           0       -4.943013    5.663249    2.308238
     80          1           0       -8.185961    7.002146    1.098084
     81          1           0       -9.510389    5.882384   -1.538779
     82          1           0       -9.826532    7.386797   -0.770644
     83          1           0      -12.197349    3.292545    0.145721
     84          1           0      -12.141618    3.509236   -1.657279
     85          1           0      -13.414842    2.360657   -1.077214
     86          1           0      -12.797436   -1.317343   -0.698269
     87          1           0      -13.669853    0.148003   -1.170305
     88          1           0      -12.398592    0.098839   -3.648044
     89          1           0      -12.009139   -1.595684   -3.163646
     90          1           0      -13.886784   -1.164565   -3.092412
     91          1           0       -9.782170   -4.998536   -0.041294
     92          1           0       -9.338317   -4.684350   -1.997098
     93          1           0       -8.279940   -5.709714   -0.668303
     94          1           0       -3.739926   -3.482354   -0.635994
     95          1           0       -1.332046   -5.787031    2.546407
     96          1           0       -1.262317   -4.277605    3.333275
     97          1           0       -2.881398   -5.343791    3.331288
     98          1           0        2.558293   -1.940562   -1.548984
     99          1           0        2.716455   -0.543312   -2.233712
    100          1           0        4.064799   -1.120479    0.281121
    101          1           0        4.990438    2.027843   -2.568894
    102          1           0        5.525841    0.918516   -3.408457
    103          1           0        3.765991    0.773801   -2.920903
    104          1           0        6.645254    1.447882   -0.321633
    105          1           0        5.915718    0.290540    0.678465
    106          1           0        7.386040   -1.376059   -1.024775
    107          1           0        7.739845    0.148604   -2.093469
    108          1           0        8.737060    0.937386    0.054605
    109          1           0        8.657283   -0.685834    0.873895
    110          1           0       10.123503   -0.139524   -1.983134
    111          1           0        9.294119   -2.470167   -1.826010
    112          1           0       11.005987   -2.547467   -1.246344
    113          1           0        9.518155   -2.759168    0.027102
    114          1           0       11.208330    0.889836    0.130169
    115          1           0       11.233044   -0.813548    1.027152
    116          1           0       12.664488   -1.599234   -0.424468
    117          1           0       12.529372   -0.226338   -1.673534
    118          1           0       13.599779    1.114822   -0.195976
    119          1           0       13.987650   -0.138663    1.395292
    120          1           0       15.322481   -0.103915   -1.415002
    121          1           0       15.124125   -2.395012   -0.610416
    122          1           0       16.625325   -1.957314   -0.616294
    123          1           0       15.526142   -1.985835    0.944222
    124          1           0       15.966833    1.732413    0.221549
    125          1           0       16.423743    0.807090    1.428066
    126          1           0       18.008211   -0.394638    0.062849
    127          1           0       17.810527    0.940150   -1.137969
    128          1           0       18.162156    2.614215    0.950741
    129          1           0       18.429807    1.238625    1.782305
    130          1           0       20.504528    0.513005    0.249609
    131          1           0       19.974803    2.988314   -1.208328
    132          1           0       21.462307    1.882970   -1.710449
    133          1           0       19.736856    1.263870   -1.959219
    134          1           0       20.860511    1.988138    2.178359
    135          1           0       22.112796    2.164773    1.235172
    136          1           0       20.700201    3.275944    1.424387
    137          1           0       -6.949118    1.681052    0.488422
    138          1           0       -7.269419   -0.353667   -0.407258
 ---------------------------------------------------------------------

 SCF Done:  E(RB3LYP) =  -2732.89903410     A.U. after   18 cycles

 Excitation energies and oscillator strengths:

 Excited State   1:      Singlet-A      2.0499 eV  604.84 nm  f=0.1444  <S**2>=0.000
     235 -> 237       -0.23675
     235 -> 238        0.25213
     236 -> 237        0.57621
     236 -> 238        0.20533
 This state for optimization and/or second-order correction.
 Total Energy, E(TD-HF/TD-KS) =  -2732.82370254
 Copying the excited state density for this state as the 1-particle RhoCI density.

 The electronic state is 1-A.
 Alpha  occ. eigenvalues --  -19.17948 -19.14899 -19.13653 -19.12472 -19.12214
 Alpha  occ. eigenvalues --  -14.37165 -14.36797 -14.33240 -14.28753 -10.32219
 Alpha  occ. eigenvalues --  -10.31767 -10.28370 -10.25157 -10.24978 -10.24276
 Alpha  occ. eigenvalues --  -10.24219 -10.23978 -10.23886 -10.23732 -10.23699
 Alpha  occ. eigenvalues --  -10.23087 -10.22219 -10.21927 -10.21873 -10.21805
 Alpha  occ. eigenvalues --  -10.21760 -10.21677 -10.21583 -10.21566 -10.21404
 Alpha  occ. eigenvalues --  -10.21341 -10.21280 -10.20963 -10.20960 -10.20588
 Alpha  occ. eigenvalues --  -10.20568 -10.20434 -10.20404 -10.20360 -10.20299
 Alpha  occ. eigenvalues --  -10.20242 -10.20211 -10.20111 -10.20066 -10.19990
 Alpha  occ. eigenvalues --  -10.19947 -10.19939 -10.19914 -10.19744 -10.19648
 Alpha  occ. eigenvalues --  -10.19627 -10.19545 -10.19449 -10.19429 -10.19364
 Alpha  occ. eigenvalues --  -10.19349 -10.19197 -10.18226 -10.17525 -10.17286
 Alpha  occ. eigenvalues --  -10.17060 -10.16694 -10.16433 -10.16406  -1.08437
 Alpha  occ. eigenvalues --   -1.06625  -0.99967  -0.98573  -0.98210  -0.97793
 Alpha  occ. eigenvalues --   -0.95054  -0.93829  -0.93292  -0.85024  -0.83415
 Alpha  occ. eigenvalues --   -0.83124  -0.82049  -0.81534  -0.81186  -0.81040
 Alpha  occ. eigenvalues --   -0.80255  -0.79852  -0.78427  -0.78029  -0.77860
 Alpha  occ. eigenvalues --   -0.76700  -0.76671  -0.75450  -0.74946  -0.74240
 Alpha  occ. eigenvalues --   -0.73756  -0.72537  -0.72133  -0.71843  -0.70997
 Alpha  occ. eigenvalues --   -0.70122  -0.69127  -0.68722  -0.68360  -0.68289
 Alpha  occ. eigenvalues --   -0.67574  -0.67211  -0.66002  -0.65594  -0.65526
 Alpha  occ. eigenvalues --   -0.64516  -0.63412  -0.62800  -0.62032  -0.61535
 Alpha  occ. eigenvalues --   -0.60497  -0.59340  -0.59169  -0.58159  -0.57491
 Alpha  occ. eigenvalues --   -0.57224  -0.57209  -0.56658  -0.55602  -0.54953
 Alpha  occ. eigenvalues --   -0.54643  -0.54419  -0.54139  -0.54117  -0.53054
 Alpha  occ. eigenvalues --   -0.52423  -0.51507  -0.51309  -0.50541  -0.50398
 Alpha  occ. eigenvalues --   -0.50327  -0.49714  -0.49453  -0.49350  -0.48455
 Alpha  occ. eigenvalues --   -0.48276  -0.48142  -0.48030  -0.47270  -0.47128
 Alpha  occ. eigenvalues --   -0.46809  -0.46316  -0.46162  -0.46036  -0.45729
 Alpha  occ. eigenvalues --   -0.45563  -0.45370  -0.44965  -0.44874  -0.44451
 Alpha  occ. eigenvalues --   -0.44348  -0.44218  -0.43930  -0.43661  -0.43502
 Alpha  occ. eigenvalues --   -0.43217  -0.43044  -0.42924  -0.42689  -0.42541
 Alpha  occ. eigenvalues --   -0.42422  -0.42319  -0.42126  -0.41753  -0.41520
 Alpha  occ. eigenvalues --   -0.41461  -0.41074  -0.40947  -0.40717  -0.40441
 Alpha  occ. eigenvalues --   -0.40136  -0.39838  -0.39687  -0.39132  -0.39098
 Alpha  occ. eigenvalues --   -0.39062  -0.38820  -0.38767  -0.38680  -0.38654
 Alpha  occ. eigenvalues --   -0.38307  -0.38069  -0.37847  -0.37601  -0.37466
 Alpha  occ. eigenvalues --   -0.37269  -0.37229  -0.37176  -0.36898  -0.36830
 Alpha  occ. eigenvalues --   -0.36686  -0.36391  -0.35925  -0.35824  -0.35427
 Alpha  occ. eigenvalues --   -0.35227  -0.35013  -0.34633  -0.34353  -0.34219
 Alpha  occ. eigenvalues --   -0.34100  -0.33841  -0.33760  -0.33608  -0.33518
 Alpha  occ. eigenvalues --   -0.33306  -0.32810  -0.32768  -0.32520  -0.32321
 Alpha  occ. eigenvalues --   -0.32235  -0.32068  -0.31758  -0.31368  -0.31327
 Alpha  occ. eigenvalues --   -0.30898  -0.30599  -0.29758  -0.29708  -0.29347
 Alpha  occ. eigenvalues --   -0.28498  -0.28492  -0.28411  -0.28034  -0.27811
 Alpha  occ. eigenvalues --   -0.27796  -0.27471  -0.26574  -0.26181  -0.25973
 Alpha  occ. eigenvalues --   -0.25453  -0.25044  -0.24681  -0.22543  -0.20274
 Alpha  occ. eigenvalues --   -0.19223
 Alpha virt. eigenvalues --   -0.10713  -0.08280  -0.05234  -0.02658  -0.01268
 Alpha virt. eigenvalues --   -0.01223  -0.00587  -0.00191   0.01378   0.03171
 Alpha virt. eigenvalues --    0.03201   0.03703   0.04143   0.04310   0.04676

 Mulliken charges:
               1
     1  C   -0.000269
     2  C   -0.127500
     3  C   -0.101075
     4  C   -0.031471
     5  N   -0.220047
     6  C   -0.055909
     7  C    0.141438
     8  C   -0.063616
     9  C    0.014628
    10  C    0.005797
    11  C    0.105497
    12  C    0.023801
    13  C    0.194485
    14  O   -0.279781
    15  O   -0.333851
    16  N   -0.169001
    17  C    0.097943
    18  C   -0.063743
    19  C    0.060216
    20  C    0.172481
    21  C    0.047924
    22  C   -0.089879
    23  C   -0.016372
    24  N   -0.228138
    25  C    0.040184
    26  C   -0.085034
    27  C   -0.082004
    28  C    0.005148
    29  C    0.025422
    30  C   -0.002648
    31  C   -0.017372
    32  N    0.025466
    33  C    0.141538
    34  C   -0.116141
    35  C   -0.069128
    36  C    0.073489
    37  C    0.029700
    38  C    0.084744
    39  O   -0.214681
    40  C   -0.060518
    41  C    0.243250
    42  O   -0.190678
    43  O   -0.412702
    44  C    0.214790
    45  C    0.353732
    46  C   -0.148907
    47  C    0.005324
    48  C    0.006363
    49  C    0.118764
    50  C   -0.011289
    51  C   -0.021522
    52  C   -0.091846
    53  C   -0.021104
    54  C   -0.068803
    55  C    0.169499
    56  C   -0.103036
    57  C   -0.044316
    58  C    0.168076
    59  C    0.044341
    60  C    0.112884
    61  C   -0.101291
    62  C   -0.007721
    63  C   -0.020915
    64  C    0.090311
    65  H    0.039610
    66  H   -0.019816
    67  H   -0.044035
    68  H   -0.098198
    69  H    0.007343
    70  H    0.039684
    71  H    0.003364
    72  H    0.036074
    73  H   -0.063286
    74  H    0.041148
    75  H    0.050651
    76  H    0.019897
    77  H    0.056994
    78  H    0.018518
    79  H    0.046130
    80  H    0.026353
    81  H    0.028849
    82  H    0.007108
    83  H    0.036838
    84  H    0.027198
    85  H    0.022953
    86  H    0.019352
    87  H    0.009401
    88  H    0.043448
    89  H    0.016631
    90  H    0.040797
    91  H    0.048091
    92  H    0.060407
    93  H    0.053233
    94  H    0.102288
    95  H    0.023671
    96  H    0.021006
    97  H    0.025302
    98  H   -0.022742
    99  H   -0.018979
   100  H    0.005776
   101  H   -0.012708
   102  H    0.022815
   103  H    0.019058
   104  H   -0.014133
   105  H    0.001356
   106  H    0.010790
   107  H    0.024451
   108  H   -0.021984
   109  H   -0.006786
   110  H   -0.005597
   111  H    0.027444
   112  H    0.023010
   113  H    0.034689
   114  H   -0.000066
   115  H    0.005495
   116  H   -0.016442
   117  H    0.003297
   118  H   -0.002417
   119  H    0.033668
   120  H   -0.025998
   121  H   -0.078397
   122  H    0.003138
   123  H    0.000227
   124  H   -0.035466
   125  H   -0.031838
   126  H   -0.005848
   127  H   -0.010276
   128  H   -0.042771
   129  H   -0.003199
   130  H   -0.013464
   131  H    0.016061
   132  H    0.037162
   133  H    0.025290
   134  H   -0.045902
   135  H    0.004969
   136  H   -0.026066
   137  H    0.134528
   138  H    0.115928
 Sum of Mulliken charges =   0.00000

 Dipole moment (field-independent basis, Debye):
    X=              2.6540    Y=              5.3631    Z=              0.1142  Tot=              5.9849
 Quadrupole moment (field-independent basis, Debye-Ang):
   XX=           -354.8379   YY=           -386.5752   ZZ=           -397.3130
   XY=            -41.4294   XZ=              9.3347   YZ=              0.9647

 Normal termination of Gaussian 09 at Sun Aug  4 05:44:03 2019.
