 Gaussian 09, Revision D.01,
 Gaussian 09:  ES64L-G09RevD.01 24-Apr-2013

 --------------------------
 # td=(NStates=1) B3LYP/SVP
 --------------------------

 --
 TD
 --
 Symbolic Z-matrix:
 Charge =  0 Multiplicity = 1

                         Standard orientation:
 ---------------------------------------------------------------------
 Center     Atomic      Atomic             Coordinates (Angstroms)
 Number     Number       Type             X           Y           Z
 ---------------------------------------------------------------------
      1          6           0       -5.210858   -1.886861    0.452135
      2          6           0       -4.654569    2.646907    1.466949
      3          6           0       -9.170150    3.525636   -0.195787
      4          6           0       -9.776702   -1.278501   -1.028111
      5          7           0       -5.175105    0.336411    0.865746
      6          6           0       -4.560855   -0.795571    0.865764
      7          6           0       -3.093137   -0.724748    1.407810
      8          6           0       -3.025070    0.768570    1.895689
      9          6           0       -4.352498    1.316761    1.440296
     10          6           0       -2.994061    0.743102    3.511353
     11          6           0       -2.041720   -0.924370    0.346365
     12          6           0       -0.624283   -1.079128    0.731871
     13          6           0        0.407514   -1.359069   -0.481648
     14          8           0        0.129553   -1.838032   -1.465098
     15          8           0        1.643360   -1.146978   -0.022545
     16          7           0       -6.987322    2.858080    0.611917
     17          6           0       -5.829516    3.360185    1.089650
     18          6           0       -6.017691    4.759716    1.118929
     19          6           0       -7.355585    5.040034    0.547780
     20          6           0       -7.949142    3.735917    0.280717
     21          6           0       -5.035064    5.751330    1.591293
     22          6           0       -7.896814    6.355960    0.464325
     23          6           0       -8.767147    6.756412   -0.493656
     24          7           0       -9.174688    1.044489   -0.541628
     25          6           0       -9.796640    2.272574   -0.629405
     26          6           0      -11.090641    2.128445   -1.126742
     27          6           0      -11.331273    0.765775   -1.363513
     28          6           0      -10.113870    0.063041   -1.085727
     29          6           0      -12.114249    3.138534   -1.359108
     30          6           0      -12.583177   -0.002474   -1.809253
     31          6           0      -12.596257   -0.398620   -3.345253
     32          7           0       -7.539171   -1.165294   -0.165114
     33          6           0       -8.621311   -1.892753   -0.727011
     34          6           0       -8.216934   -3.338842   -0.865292
     35          6           0       -6.912793   -3.321026   -0.354340
     36          6           0       -6.499704   -1.977375    0.080973
     37          6           0       -9.105454   -4.393053   -1.220716
     38          6           0       -5.878774   -4.218473   -0.083870
     39          8           0       -5.778893   -5.465732   -0.160708
     40          6           0       -4.698354   -3.362652    0.474794
     41          6           0       -4.140599   -3.951940    1.780126
     42          8           0       -4.410429   -3.527268    2.783405
     43          8           0       -3.318905   -4.972331    1.489301
     44          6           0       -2.927510   -5.652549    2.703069
     45          6           0        2.645928   -1.207002   -0.984547
     46          6           0        3.950724   -0.851371   -0.459378
     47          6           0        4.975742   -0.122244   -0.998055
     48          6           0        4.746083    0.533950   -2.350081
     49          6           0        6.145149    0.211425   -0.257897
     50          6           0        7.444673   -0.386097   -0.880829
     51          6           0        8.761320   -0.139252   -0.126031
     52          6           0       10.055894   -0.649173   -0.752117
     53          6           0        9.936658   -2.124825   -0.864656
     54          6           0       11.228745   -0.040780    0.026402
     55          6           0       12.592323   -0.352390   -0.598885
     56          6           0       13.735578    0.128235    0.307139
     57          6           0       15.178969   -0.072154   -0.524204
     58          6           0       15.537871   -1.491064   -0.664824
     59          6           0       16.214283    0.732767    0.230546
     60          6           0       17.681741    0.777630   -0.334234
     61          6           0       18.613281    1.784379    0.519953
     62          6           0       20.106820    1.493498    0.148810
     63          6           0       20.401077    1.921709   -1.330231
     64          6           0       21.059019    2.270294    1.019426
     65          1           0       -3.919603    3.435043    2.002752
     66          1           0       -9.925968    4.365234   -0.105534
     67          1           0      -10.469103   -2.046724   -1.451808
     68          1           0       -2.866232   -1.368167    2.287696
     69          1           0       -2.121416    1.289803    1.457758
     70          1           0       -1.879360    0.500538    3.855051
     71          1           0       -2.910238    1.774986    3.937048
     72          1           0       -4.123553    0.316899    3.894570
     73          1           0       -2.223609   -1.987924   -0.338819
     74          1           0       -2.126607   -0.142378   -0.350620
     75          1           0       -0.047229   -0.218136    1.169251
     76          1           0       -0.300279   -1.848764    1.344495
     77          1           0       -4.003441    5.719443    1.071757
     78          1           0       -5.403806    6.810126    1.650790
     79          1           0       -4.836271    5.329417    2.715815
     80          1           0       -7.809760    6.903609    1.319440
     81          1           0       -9.024607    6.208489   -1.350470
     82          1           0       -9.098767    7.977745   -0.466914
     83          1           0      -12.458752    3.696491   -0.420455
     84          1           0      -11.841430    4.212068   -1.782572
     85          1           0      -12.859965    2.802291   -2.078260
     86          1           0      -12.854272   -0.899388   -1.353592
     87          1           0      -13.437964    0.601140   -1.586956
     88          1           0      -12.571479    0.635071   -3.866225
     89          1           0      -11.696321   -1.091332   -3.791058
     90          1           0      -13.623038   -0.833798   -3.679540
     91          1           0       -9.908668   -4.666378   -0.425594
     92          1           0       -9.702529   -4.002135   -2.215366
     93          1           0       -8.543981   -5.328685   -1.227507
     94          1           0       -4.029387   -3.632771   -0.243223
     95          1           0       -2.716522   -6.876634    2.403865
     96          1           0       -2.025130   -5.014119    3.010937
     97          1           0       -3.836104   -5.579342    3.427380
     98          1           0        2.824411   -2.411750   -1.193897
     99          1           0        2.406185   -0.723364   -1.891558
    100          1           0        4.209688   -1.661487    0.445591
    101          1           0        5.245609    1.561999   -2.275700
    102          1           0        5.332780   -0.226780   -3.059147
    103          1           0        3.754519    0.723713   -2.649229
    104          1           0        6.409742    1.267151   -0.142796
    105          1           0        6.228431   -0.189909    0.853470
    106          1           0        7.236076   -1.412729   -0.932260
    107          1           0        7.581492   -0.052994   -1.908374
    108          1           0        8.739786    1.084820    0.159709
    109          1           0        8.583110   -0.685371    0.732157
    110          1           0       10.196251   -0.174679   -1.868462
    111          1           0        9.363637   -2.606908   -1.628523
    112          1           0       10.979469   -2.617285   -1.138145
    113          1           0        9.958371   -2.626501    0.077832
    114          1           0       10.991250    1.077196   -0.030025
    115          1           0       11.299487   -0.353183    1.127901
    116          1           0       12.862293   -1.335080   -0.777329
    117          1           0       12.743179   -0.020587   -1.537784
    118          1           0       13.885406    1.150554    0.610434
    119          1           0       13.953770   -0.478966    1.210359
    120          1           0       15.154314    0.268095   -1.600193
    121          1           0       14.857241   -2.128128   -1.297935
    122          1           0       16.571179   -1.473188   -1.268004
    123          1           0       15.559318   -2.035547    0.434187
    124          1           0       15.916432    1.703430    0.300872
    125          1           0       16.093821    0.400354    1.196591
    126          1           0       18.068218   -0.232177   -0.248970
    127          1           0       17.696110    0.980487   -1.354640
    128          1           0       18.300208    2.897483    0.225849
    129          1           0       18.391951    1.373962    1.573952
    130          1           0       20.358065    0.375025    0.075326
    131          1           0       20.202635    3.112970   -1.212683
    132          1           0       21.357162    1.852559   -1.599165
    133          1           0       19.931831    1.466068   -2.259935
    134          1           0       20.934215    2.296459    2.186069
    135          1           0       22.173448    1.955792    0.730521
    136          1           0       20.956867    3.420722    0.951219
    137          1           0       -7.169011    1.766890    0.567212
    138          1           0       -7.548967   -0.174460   -0.030484
 ---------------------------------------------------------------------

 SCF Done:  E(RB3LYP) =  -2733.03469372     A.U. after   16 cycles

 Excitation energies and oscillator strengths:

 Excited State   1:      Singlet-A      2.0802 eV  596.02 nm  f=0.1374  <S**2>=0.000
     235 -> 237       -0.22548
     235 -> 238       -0.26629
     236 -> 237        0.56114
     236 -> 238       -0.22877
 This state for optimization and/or second-order correction.
 Total Energy, E(TD-HF/TD-KS) =  -2732.95824733
 Copying the excited state density for this state as the 1-particle RhoCI density.

 The electronic state is 1-A.
 Alpha  occ. eigenvalues --  -19.17759 -19.16891 -19.13047 -19.12448 -19.10869
 Alpha  occ. eigenvalues --  -14.37403 -14.36736 -14.32173 -14.29406 -10.30906
 Alpha  occ. eigenvalues --  -10.30253 -10.26363 -10.26162 -10.25122 -10.24085
 Alpha  occ. eigenvalues --  -10.23500 -10.23326 -10.23321 -10.23236 -10.22694
 Alpha  occ. eigenvalues --  -10.22434 -10.21760 -10.21680 -10.21419 -10.21091
 Alpha  occ. eigenvalues --  -10.20935 -10.20877 -10.20845 -10.20826 -10.20789
 Alpha  occ. eigenvalues --  -10.20568 -10.20499 -10.20317 -10.20294 -10.20290
 Alpha  occ. eigenvalues --  -10.20201 -10.20164 -10.20148 -10.20140 -10.20099
 Alpha  occ. eigenvalues --  -10.20058 -10.20014 -10.19665 -10.19521 -10.19508
 Alpha  occ. eigenvalues --  -10.19465 -10.19388 -10.19373 -10.19207 -10.19116
 Alpha  occ. eigenvalues --  -10.18846 -10.18829 -10.18790 -10.18692 -10.18549
 Alpha  occ. eigenvalues --  -10.18361 -10.18236 -10.18126 -10.18111 -10.18067
 Alpha  occ. eigenvalues --  -10.17538 -10.17492 -10.16750 -10.16026  -1.12688
 Alpha  occ. eigenvalues --   -1.11811  -1.04610  -1.03373  -0.99695  -0.99040
 Alpha  occ. eigenvalues --   -0.97787  -0.95263  -0.91120  -0.84982  -0.83243
 Alpha  occ. eigenvalues --   -0.82171  -0.81988  -0.81736  -0.81289  -0.81119
 Alpha  occ. eigenvalues --   -0.80908  -0.79496  -0.79431  -0.78184  -0.77891
 Alpha  occ. eigenvalues --   -0.77244  -0.76119  -0.75676  -0.74793  -0.74512
 Alpha  occ. eigenvalues --   -0.73188  -0.73069  -0.72916  -0.72030  -0.70629
 Alpha  occ. eigenvalues --   -0.69491  -0.68590  -0.68210  -0.68153  -0.67126
 Alpha  occ. eigenvalues --   -0.66816  -0.66647  -0.66435  -0.66300  -0.65063
 Alpha  occ. eigenvalues --   -0.64475  -0.62747  -0.62442  -0.61901  -0.61168
 Alpha  occ. eigenvalues --   -0.60760  -0.59360  -0.58878  -0.58259  -0.57981
 Alpha  occ. eigenvalues --   -0.57340  -0.56853  -0.55941  -0.55696  -0.55526
 Alpha  occ. eigenvalues --   -0.55071  -0.54359  -0.54041  -0.53888  -0.53535
 Alpha  occ. eigenvalues --   -0.53224  -0.52612  -0.51543  -0.51173  -0.50496
 Alpha  occ. eigenvalues --   -0.50416  -0.49677  -0.49327  -0.48736  -0.48498
 Alpha  occ. eigenvalues --   -0.48319  -0.47832  -0.47633  -0.47421  -0.46881
 Alpha  occ. eigenvalues --   -0.46702  -0.46487  -0.46463  -0.46321  -0.45949
 Alpha  occ. eigenvalues --   -0.45847  -0.45279  -0.45196  -0.45053  -0.44687
 Alpha  occ. eigenvalues --   -0.44425  -0.44194  -0.43942  -0.43628  -0.43479
 Alpha  occ. eigenvalues --   -0.43341  -0.42940  -0.42749  -0.42662  -0.42539
 Alpha  occ. eigenvalues --   -0.42471  -0.42133  -0.41853  -0.41778  -0.41446
 Alpha  occ. eigenvalues --   -0.41371  -0.40924  -0.40668  -0.40599  -0.40227
 Alpha  occ. eigenvalues --   -0.40101  -0.39900  -0.39731  -0.39467  -0.39340
 Alpha  occ. eigenvalues --   -0.39172  -0.38970  -0.38587  -0.38504  -0.38101
 Alpha  occ. eigenvalues --   -0.37953  -0.37788  -0.37551  -0.37487  -0.37282
 Alpha  occ. eigenvalues --   -0.37267  -0.36926  -0.36778  -0.36567  -0.36397
 Alpha  occ. eigenvalues --   -0.36208  -0.35895  -0.35730  -0.35678  -0.35477
 Alpha  occ. eigenvalues --   -0.35424  -0.35381  -0.35210  -0.34936  -0.34775
 Alpha  occ. eigenvalues --   -0.34612  -0.34421  -0.34266  -0.33832  -0.33715
 Alpha  occ. eigenvalues --   -0.33650  -0.33567  -0.32744  -0.32688  -0.32550
 Alpha  occ. eigenvalues --   -0.32212  -0.32190  -0.32091  -0.31616  -0.31315
 Alpha  occ. eigenvalues --   -0.30983  -0.30792  -0.30597  -0.30486  -0.30353
 Alpha  occ. eigenvalues --   -0.30278  -0.30273  -0.28547  -0.28113  -0.28023
 Alpha  occ. eigenvalues --   -0.27278  -0.26988  -0.26812  -0.26209  -0.25606
 Alpha  occ. eigenvalues --   -0.23897  -0.23418  -0.23256  -0.21370  -0.20395
 Alpha  occ. eigenvalues --   -0.19083
 Alpha virt. eigenvalues --   -0.10379  -0.08724  -0.04421  -0.02074  -0.00975
 Alpha virt. eigenvalues --    0.00184   0.01750   0.02404   0.02821   0.03496
 Alpha virt. eigenvalues --    0.03828   0.03857   0.04232   0.04472   0.04707

 Mulliken charges:
               1
     1  C    0.063332
     2  C   -0.082642
     3  C   -0.137718
     4  C   -0.053884
     5  N   -0.164635
     6  C   -0.138194
     7  C    0.041891
     8  C   -0.073332
     9  C    0.038935
    10  C   -0.021731
    11  C    0.032507
    12  C    0.044257
    13  C    0.094519
    14  O   -0.133147
    15  O   -0.282581
    16  N   -0.063295
    17  C    0.063076
    18  C   -0.131030
    19  C    0.023941
    20  C    0.165185
    21  C    0.015616
    22  C   -0.034926
    23  C   -0.064268
    24  N   -0.333182
    25  C    0.058536
    26  C   -0.086362
    27  C   -0.065067
    28  C    0.084123
    29  C    0.042582
    30  C    0.118903
    31  C   -0.094943
    32  N   -0.025479
    33  C    0.047751
    34  C   -0.059930
    35  C    0.015334
    36  C    0.110695
    37  C    0.017455
    38  C   -0.003961
    39  O   -0.218607
    40  C    0.037689
    41  C    0.139680
    42  O   -0.133309
    43  O   -0.296780
    44  C    0.085892
    45  C    0.245484
    46  C   -0.137917
    47  C   -0.120161
    48  C    0.055576
    49  C    0.074777
    50  C   -0.016059
    51  C    0.043538
    52  C   -0.086262
    53  C    0.057353
    54  C    0.051096
    55  C    0.172246
    56  C    0.011336
    57  C   -0.149197
    58  C   -0.033551
    59  C    0.133174
    60  C    0.025194
    61  C    0.009151
    62  C   -0.088933
    63  C    0.012795
    64  C   -0.020123
    65  H    0.006044
    66  H    0.013407
    67  H   -0.024432
    68  H    0.020133
    69  H    0.020415
    70  H    0.034573
    71  H    0.002450
    72  H    0.076071
    73  H    0.046977
    74  H   -0.011772
    75  H    0.008873
    76  H   -0.002255
    77  H    0.049691
    78  H    0.030422
    79  H    0.043674
    80  H   -0.005068
    81  H    0.022369
    82  H    0.045734
    83  H    0.016324
    84  H   -0.000828
    85  H    0.026295
    86  H   -0.015221
    87  H   -0.016182
    88  H    0.018610
    89  H    0.046328
    90  H    0.024072
    91  H    0.057379
    92  H    0.061140
    93  H    0.042221
    94  H    0.000865
    95  H    0.072612
    96  H    0.048124
    97  H    0.065201
    98  H    0.027459
    99  H   -0.007231
   100  H    0.017278
   101  H    0.021358
   102  H    0.056121
   103  H    0.013767
   104  H   -0.001446
   105  H    0.006689
   106  H   -0.017990
   107  H   -0.014767
   108  H    0.002701
   109  H   -0.033723
   110  H    0.000735
   111  H    0.020694
   112  H   -0.018108
   113  H   -0.010089
   114  H    0.008898
   115  H    0.002756
   116  H   -0.050790
   117  H   -0.055576
   118  H   -0.014652
   119  H   -0.004379
   120  H   -0.013839
   121  H    0.020259
   122  H    0.023102
   123  H    0.013519
   124  H   -0.042419
   125  H   -0.047743
   126  H   -0.006222
   127  H   -0.019685
   128  H    0.029478
   129  H    0.019627
   130  H    0.013449
   131  H    0.004576
   132  H   -0.031764
   133  H    0.022787
   134  H    0.016069
   135  H    0.027385
   136  H    0.008212
   137  H    0.192573
   138  H    0.114276
 Sum of Mulliken charges =   0.00000

 Dipole moment (field-independent basis, Debye):
    X=              2.5421    Y=              4.2308    Z=              0.9526  Tot=              5.0269
 Quadrupole moment (field-independent basis, Debye-Ang):
   XX=           -353.7411   YY=           -385.6055   ZZ=           -394.2581
   XY=            -23.5920   XZ=             -3.6366   YZ=              0.3521

 Normal termination of Gaussian 09 at Sun Aug  4 02:16:17 2019.
