 Gaussian 09, Revision D.01,
 Gaussian 09:  ES64L-G09RevD.01 24-Apr-2013

 --------------------------
 # td=(NStates=1) B3LYP/SVP
 --------------------------

 --
 TD
 --
 Symbolic Z-matrix:
 Charge =  0 Multiplicity = 1

                         Standard orientation:
 ---------------------------------------------------------------------
 Center     Atomic      Atomic             Coordinates (Angstroms)
 Number     Number       Type             X           Y           Z
 ---------------------------------------------------------------------
      1          6           0       -5.084224   -2.000215    0.478816
      2          6           0       -4.656822    2.739539    1.449599
      3          6           0       -9.257842    3.366738   -0.044995
      4          6           0       -9.772627   -1.457941   -0.904194
      5          7           0       -5.118321    0.400879    0.838315
      6          6           0       -4.542459   -0.816472    0.883660
      7          6           0       -3.069585   -0.611318    1.357171
      8          6           0       -3.021508    0.809992    2.003629
      9          6           0       -4.370742    1.373551    1.414261
     10          6           0       -3.043783    0.726495    3.494452
     11          6           0       -2.123015   -0.789730    0.137854
     12          6           0       -0.582159   -0.795133    0.531903
     13          6           0        0.373882   -1.037307   -0.587613
     14          8           0        0.062188   -1.515233   -1.616603
     15          8           0        1.601452   -0.566224   -0.319231
     16          7           0       -6.967805    2.768167    0.530537
     17          6           0       -5.809737    3.393130    1.121125
     18          6           0       -6.212770    4.839518    1.175840
     19          6           0       -7.446262    4.898882    0.675556
     20          6           0       -7.935626    3.605993    0.299697
     21          6           0       -5.178652    5.850325    1.520390
     22          6           0       -8.149787    6.245180    0.358148
     23          6           0       -8.832809    6.549826   -0.695938
     24          7           0       -9.133497    0.873725   -0.395947
     25          6           0       -9.755792    2.058806   -0.533078
     26          6           0      -11.122196    1.910663   -1.039982
     27          6           0      -11.282034    0.526364   -1.135575
     28          6           0      -10.016491   -0.070241   -0.900944
     29          6           0      -12.081299    3.056692   -1.208517
     30          6           0      -12.479192   -0.084205   -1.678342
     31          6           0      -12.635916   -0.220516   -3.258476
     32          7           0       -7.454550   -1.256459   -0.251872
     33          6           0       -8.618552   -2.034269   -0.636788
     34          6           0       -8.269949   -3.397581   -0.718739
     35          6           0       -6.884136   -3.452380   -0.282293
     36          6           0       -6.493327   -2.102753    0.100093
     37          6           0       -9.150047   -4.599975   -0.938370
     38          6           0       -5.732537   -4.316865   -0.130152
     39          8           0       -5.693576   -5.490173   -0.138236
     40          6           0       -4.523944   -3.418363    0.343012
     41          6           0       -3.863200   -3.973101    1.612447
     42          8           0       -4.133304   -3.552852    2.737695
     43          8           0       -3.010443   -4.947575    1.360195
     44          6           0       -2.629894   -5.692545    2.461378
     45          6           0        2.671043   -0.863327   -1.188556
     46          6           0        3.989974   -0.615753   -0.618989
     47          6           0        4.929411    0.282281   -0.937765
     48          6           0        4.749660    1.323476   -2.010454
     49          6           0        6.244840    0.333521   -0.040473
     50          6           0        7.312860   -0.179953   -1.021243
     51          6           0        8.685395   -0.043563   -0.174916
     52          6           0        9.917119   -0.626702   -0.750812
     53          6           0        9.787132   -2.142146   -1.108197
     54          6           0       11.176626   -0.238529   -0.003990
     55          6           0       12.521404   -0.567464   -0.615068
     56          6           0       13.704942   -0.159978    0.178161
     57          6           0       15.164731   -0.323129   -0.603646
     58          6           0       15.641717   -1.838072   -0.719548
     59          6           0       16.246693    0.360382    0.274902
     60          6           0       17.646200    0.597010   -0.258643
     61          6           0       18.672084    1.420288    0.568867
     62          6           0       20.041898    1.609336    0.121411
     63          6           0       20.210890    2.659778   -1.184753
     64          6           0       21.095123    2.009506    1.347425
     65          1           0       -3.909318    3.478274    1.800505
     66          1           0      -10.071343    3.993712   -0.115467
     67          1           0      -10.694508   -1.990736   -1.174742
     68          1           0       -2.808484   -1.404484    2.152670
     69          1           0       -2.206886    1.314461    1.737974
     70          1           0       -2.176236    0.309442    3.639583
     71          1           0       -3.091652    1.724578    3.984052
     72          1           0       -3.807415    0.068162    4.136223
     73          1           0       -2.246838   -1.791075   -0.513725
     74          1           0       -2.361039   -0.015044   -0.581636
     75          1           0       -0.230061    0.132183    1.165445
     76          1           0       -0.324909   -1.563368    1.144692
     77          1           0       -4.369258    5.961147    0.554213
     78          1           0       -5.448132    6.901832    1.461512
     79          1           0       -4.606148    5.633020    2.417141
     80          1           0       -8.109197    6.944651    1.214543
     81          1           0       -9.198413    6.032824   -1.728416
     82          1           0       -9.186398    7.562003   -0.585355
     83          1           0      -12.326983    3.853936   -0.194728
     84          1           0      -11.793672    3.728023   -1.988700
     85          1           0      -13.219755    2.536765   -1.559965
     86          1           0      -12.559872   -1.174410   -1.466045
     87          1           0      -13.434281    0.301028   -1.471903
     88          1           0      -12.433448    0.779009   -3.678362
     89          1           0      -11.720751   -0.703019   -3.697069
     90          1           0      -13.477720   -0.828662   -3.385438
     91          1           0      -10.197565   -4.227868   -0.259908
     92          1           0       -9.286919   -5.072973   -2.184559
     93          1           0       -8.573143   -5.543439   -0.330095
     94          1           0       -3.742138   -3.604608   -0.443065
     95          1           0       -1.865050   -6.343709    2.007774
     96          1           0       -2.065510   -5.099597    3.229187
     97          1           0       -3.343142   -6.129340    2.901198
     98          1           0        2.675602   -2.020315   -1.811733
     99          1           0        2.562855   -0.353143   -2.215694
    100          1           0        4.157620   -1.212881    0.245905
    101          1           0        5.407779    2.362342   -1.920619
    102          1           0        5.340067    1.212350   -2.908965
    103          1           0        3.719099    1.579997   -2.446361
    104          1           0        6.394120    1.385733    0.299621
    105          1           0        5.788828   -0.258023    0.746935
    106          1           0        6.937447   -1.181181   -1.441855
    107          1           0        7.350695    0.577745   -1.890264
    108          1           0        8.820374    0.890195    0.223131
    109          1           0        8.450562   -0.651057    0.681267
    110          1           0        9.915024    0.103401   -1.724042
    111          1           0        8.825139   -2.491940   -1.614019
    112          1           0       10.518185   -2.686365   -1.827863
    113          1           0        9.747698   -2.819577   -0.126298
    114          1           0       11.317257    0.828187    0.031521
    115          1           0       11.066810   -0.524814    1.030150
    116          1           0       12.733363   -1.584326   -0.724530
    117          1           0       12.464815   -0.225717   -1.617495
    118          1           0       13.698447    0.854382    0.633395
    119          1           0       13.871291   -0.708899    1.108179
    120          1           0       15.092876    0.276595   -1.466035
    121          1           0       14.645398   -2.605103   -1.000209
    122          1           0       16.462683   -1.892331   -1.296621
    123          1           0       16.038178   -2.082739    0.312245
    124          1           0       15.824232    1.341818    0.392157
    125          1           0       16.122135    0.056765    1.427144
    126          1           0       18.080364   -0.427228   -0.170170
    127          1           0       17.635930    0.920199   -1.267292
    128          1           0       17.826098    2.274469    0.648479
    129          1           0       18.708155    1.156913    1.731657
    130          1           0       20.238346    0.583551   -0.291581
    131          1           0       19.734871    3.563551   -1.013852
    132          1           0       21.162553    2.634553   -1.440019
    133          1           0       19.668359    2.086477   -2.100820
    134          1           0       20.956385    1.192726    2.202472
    135          1           0       22.143441    2.292296    1.013859
    136          1           0       20.666937    3.091828    1.856208
    137          1           0       -7.078319    1.596493    0.660352
    138          1           0       -7.625087   -0.293839   -0.226159
 ---------------------------------------------------------------------

 SCF Done:  E(RB3LYP) =  -2732.95470993     A.U. after   17 cycles

 Excitation energies and oscillator strengths:

 Excited State   1:      Singlet-A      2.1559 eV  575.08 nm  f=0.1123  <S**2>=0.000
     235 -> 237       -0.12960
     235 -> 238       -0.32610
     236 -> 237        0.59526
     236 -> 238       -0.12554
 This state for optimization and/or second-order correction.
 Total Energy, E(TD-HF/TD-KS) =  -2732.87548037
 Copying the excited state density for this state as the 1-particle RhoCI density.

 The electronic state is 1-A.
 Alpha  occ. eigenvalues --  -19.18481 -19.18238 -19.12175 -19.11791 -19.11784
 Alpha  occ. eigenvalues --  -14.37163 -14.36643 -14.32215 -14.29652 -10.31351
 Alpha  occ. eigenvalues --  -10.31085 -10.27238 -10.26163 -10.24405 -10.24393
 Alpha  occ. eigenvalues --  -10.24150 -10.23673 -10.23376 -10.23069 -10.22790
 Alpha  occ. eigenvalues --  -10.22550 -10.22148 -10.22053 -10.21524 -10.21454
 Alpha  occ. eigenvalues --  -10.21350 -10.21021 -10.20824 -10.20770 -10.20765
 Alpha  occ. eigenvalues --  -10.20668 -10.20640 -10.20589 -10.20567 -10.20474
 Alpha  occ. eigenvalues --  -10.20400 -10.20226 -10.20225 -10.20128 -10.20079
 Alpha  occ. eigenvalues --  -10.19990 -10.19968 -10.19960 -10.19700 -10.19567
 Alpha  occ. eigenvalues --  -10.19558 -10.19491 -10.19390 -10.19331 -10.19031
 Alpha  occ. eigenvalues --  -10.18894 -10.18378 -10.18358 -10.18346 -10.18328
 Alpha  occ. eigenvalues --  -10.18239 -10.18154 -10.18124 -10.18095 -10.18079
 Alpha  occ. eigenvalues --  -10.18036 -10.17700 -10.17585 -10.16849  -1.11248
 Alpha  occ. eigenvalues --   -1.10744  -1.04772  -1.02217  -0.99981  -0.98130
 Alpha  occ. eigenvalues --   -0.97868  -0.93986  -0.93104  -0.84049  -0.82739
 Alpha  occ. eigenvalues --   -0.81804  -0.81642  -0.81227  -0.80855  -0.80688
 Alpha  occ. eigenvalues --   -0.80482  -0.79469  -0.79096  -0.78876  -0.78049
 Alpha  occ. eigenvalues --   -0.77053  -0.76540  -0.76052  -0.74985  -0.74441
 Alpha  occ. eigenvalues --   -0.73962  -0.73002  -0.72290  -0.71455  -0.70697
 Alpha  occ. eigenvalues --   -0.69954  -0.69847  -0.68565  -0.67840  -0.67247
 Alpha  occ. eigenvalues --   -0.67033  -0.66619  -0.65943  -0.65724  -0.65354
 Alpha  occ. eigenvalues --   -0.63782  -0.63016  -0.62612  -0.61714  -0.61494
 Alpha  occ. eigenvalues --   -0.60299  -0.59647  -0.58788  -0.58489  -0.57995
 Alpha  occ. eigenvalues --   -0.57738  -0.56912  -0.56152  -0.55845  -0.55261
 Alpha  occ. eigenvalues --   -0.55064  -0.54501  -0.53870  -0.53724  -0.53405
 Alpha  occ. eigenvalues --   -0.52630  -0.52308  -0.51660  -0.50947  -0.50544
 Alpha  occ. eigenvalues --   -0.50271  -0.49786  -0.49448  -0.48946  -0.48635
 Alpha  occ. eigenvalues --   -0.48215  -0.47968  -0.47607  -0.47163  -0.46913
 Alpha  occ. eigenvalues --   -0.46891  -0.46443  -0.46226  -0.45956  -0.45705
 Alpha  occ. eigenvalues --   -0.45380  -0.45253  -0.45038  -0.44681  -0.44603
 Alpha  occ. eigenvalues --   -0.44436  -0.43948  -0.43876  -0.43683  -0.43520
 Alpha  occ. eigenvalues --   -0.43443  -0.43317  -0.42760  -0.42514  -0.42337
 Alpha  occ. eigenvalues --   -0.42245  -0.42070  -0.42003  -0.41606  -0.41424
 Alpha  occ. eigenvalues --   -0.41089  -0.40973  -0.40766  -0.40606  -0.40393
 Alpha  occ. eigenvalues --   -0.39821  -0.39499  -0.39337  -0.39161  -0.38920
 Alpha  occ. eigenvalues --   -0.38838  -0.38749  -0.38578  -0.38299  -0.37955
 Alpha  occ. eigenvalues --   -0.37937  -0.37741  -0.37680  -0.37495  -0.37393
 Alpha  occ. eigenvalues --   -0.37324  -0.37089  -0.36841  -0.36655  -0.36496
 Alpha  occ. eigenvalues --   -0.36395  -0.36284  -0.36173  -0.35984  -0.35847
 Alpha  occ. eigenvalues --   -0.35438  -0.35390  -0.35144  -0.35017  -0.34981
 Alpha  occ. eigenvalues --   -0.34589  -0.34464  -0.34123  -0.34099  -0.33794
 Alpha  occ. eigenvalues --   -0.33362  -0.33251  -0.33192  -0.32708  -0.32571
 Alpha  occ. eigenvalues --   -0.32265  -0.31939  -0.31868  -0.31390  -0.30861
 Alpha  occ. eigenvalues --   -0.30612  -0.30496  -0.30472  -0.29655  -0.29487
 Alpha  occ. eigenvalues --   -0.29180  -0.28926  -0.28796  -0.28110  -0.27391
 Alpha  occ. eigenvalues --   -0.26869  -0.26743  -0.26138  -0.25890  -0.25588
 Alpha  occ. eigenvalues --   -0.25351  -0.24712  -0.24404  -0.22058  -0.20128
 Alpha  occ. eigenvalues --   -0.19073
 Alpha virt. eigenvalues --   -0.09810  -0.08317  -0.03892  -0.01089  -0.00287
 Alpha virt. eigenvalues --    0.00027   0.00567   0.01337   0.02610   0.02953
 Alpha virt. eigenvalues --    0.03516   0.03874   0.04288   0.04388   0.04572

 Mulliken charges:
               1
     1  C    0.049235
     2  C   -0.032856
     3  C   -0.053110
     4  C   -0.101819
     5  N   -0.168467
     6  C   -0.044367
     7  C   -0.091596
     8  C    0.054357
     9  C    0.025553
    10  C    0.090672
    11  C    0.025826
    12  C    0.067528
    13  C    0.134909
    14  O   -0.193842
    15  O   -0.279559
    16  N   -0.133849
    17  C    0.047181
    18  C   -0.051739
    19  C   -0.033402
    20  C    0.164692
    21  C    0.045466
    22  C   -0.033498
    23  C   -0.042078
    24  N   -0.259369
    25  C   -0.012658
    26  C   -0.092809
    27  C   -0.043751
    28  C    0.033088
    29  C   -0.025511
    30  C    0.021787
    31  C    0.022189
    32  N   -0.008359
    33  C    0.162023
    34  C   -0.056310
    35  C   -0.042798
    36  C    0.068521
    37  C   -0.112365
    38  C    0.035420
    39  O   -0.134385
    40  C   -0.022652
    41  C    0.173602
    42  O   -0.253951
    43  O   -0.254835
    44  C    0.267035
    45  C    0.192395
    46  C   -0.070762
    47  C   -0.145556
    48  C    0.009453
    49  C    0.092285
    50  C   -0.025974
    51  C    0.093283
    52  C   -0.023848
    53  C   -0.031962
    54  C    0.042946
    55  C    0.166927
    56  C   -0.018373
    57  C   -0.062359
    58  C    0.039596
    59  C   -0.053726
    60  C    0.101273
    61  C   -0.051357
    62  C   -0.070336
    63  C    0.059737
    64  C   -0.069043
    65  H   -0.022943
    66  H   -0.066622
    67  H   -0.019499
    68  H    0.022096
    69  H   -0.054632
    70  H   -0.034701
    71  H    0.006389
    72  H    0.044166
    73  H    0.048003
    74  H    0.005468
    75  H    0.033717
    76  H   -0.008207
    77  H    0.040105
    78  H    0.008498
    79  H    0.038202
    80  H    0.025438
    81  H    0.064501
    82  H    0.013657
    83  H    0.055080
    84  H    0.024800
    85  H    0.036703
    86  H   -0.015358
    87  H   -0.010014
    88  H    0.005912
    89  H   -0.004617
    90  H    0.015923
    91  H    0.066647
    92  H    0.081204
    93  H    0.082800
    94  H    0.053043
    95  H    0.023494
    96  H    0.015236
    97  H   -0.026227
    98  H    0.034368
    99  H    0.007099
   100  H   -0.026658
   101  H    0.007336
   102  H    0.007555
   103  H    0.041864
   104  H    0.013386
   105  H    0.004140
   106  H    0.035612
   107  H    0.010255
   108  H   -0.034067
   109  H   -0.031541
   110  H   -0.013582
   111  H    0.010027
   112  H    0.028318
   113  H    0.015677
   114  H   -0.022120
   115  H   -0.023896
   116  H   -0.037938
   117  H   -0.028780
   118  H   -0.025010
   119  H   -0.019224
   120  H   -0.018543
   121  H    0.037906
   122  H   -0.008180
   123  H    0.014452
   124  H   -0.032894
   125  H    0.003433
   126  H   -0.015781
   127  H   -0.005915
   128  H   -0.011855
   129  H    0.003008
   130  H    0.004379
   131  H    0.015419
   132  H   -0.017884
   133  H    0.010587
   134  H    0.045251
   135  H    0.038064
   136  H    0.026884
   137  H    0.233003
   138  H    0.093831
 Sum of Mulliken charges =   0.00000

 Dipole moment (field-independent basis, Debye):
    X=              2.6712    Y=              4.6929    Z=              0.6065  Tot=              5.4338
 Quadrupole moment (field-independent basis, Debye-Ang):
   XX=           -360.5426   YY=           -377.9593   ZZ=           -395.3868
   XY=            -19.9387   XZ=              3.7920   YZ=             -1.5225

 Normal termination of Gaussian 09 at Sun Aug  4 22:42:08 2019.
