 Gaussian 09, Revision D.01,
 Gaussian 09:  ES64L-G09RevD.01 24-Apr-2013

 --------------------------
 # td=(NStates=1) B3LYP/SVP
 --------------------------

 --
 TD
 --
 Symbolic Z-matrix:
 Charge =  0 Multiplicity = 1

                         Standard orientation:
 ---------------------------------------------------------------------
 Center     Atomic      Atomic             Coordinates (Angstroms)
 Number     Number       Type             X           Y           Z
 ---------------------------------------------------------------------
      1          6           0       -5.188088   -1.970557    0.519682
      2          6           0       -4.835296    2.699191    1.654642
      3          6           0       -9.270820    3.313741   -0.377002
      4          6           0       -9.789435   -1.406426   -1.178097
      5          7           0       -5.174507    0.356357    0.907116
      6          6           0       -4.582640   -0.872102    0.878826
      7          6           0       -3.011192   -0.657342    1.338101
      8          6           0       -3.107979    0.771574    2.070637
      9          6           0       -4.544303    1.319756    1.451164
     10          6           0       -3.042166    0.757737    3.538902
     11          6           0       -2.020610   -0.769862    0.255802
     12          6           0       -0.528203   -0.690502    0.628268
     13          6           0        0.342858   -1.045898   -0.540075
     14          8           0        0.142971   -1.733659   -1.514773
     15          8           0        1.657186   -0.641939   -0.196197
     16          7           0       -6.989868    2.660608    0.483888
     17          6           0       -5.959248    3.319003    1.189695
     18          6           0       -6.343489    4.781117    1.264666
     19          6           0       -7.542995    4.917389    0.609424
     20          6           0       -7.989664    3.647904    0.099290
     21          6           0       -5.467178    5.887028    1.892749
     22          6           0       -8.354760    6.155452    0.508888
     23          6           0       -8.996297    6.613074   -0.533630
     24          7           0       -9.151258    0.873408   -0.707586
     25          6           0       -9.862753    2.105144   -0.661961
     26          6           0      -11.250671    1.900652   -1.089221
     27          6           0      -11.418583    0.545586   -1.340580
     28          6           0      -10.129899   -0.018141   -1.099867
     29          6           0      -12.196217    2.940008   -1.367379
     30          6           0      -12.509304   -0.132410   -2.049563
     31          6           0      -12.314605   -0.469980   -3.546861
     32          7           0       -7.485705   -1.192110   -0.333519
     33          6           0       -8.559390   -1.959801   -0.820524
     34          6           0       -8.149080   -3.297480   -0.800764
     35          6           0       -6.874829   -3.407654   -0.318187
     36          6           0       -6.509947   -2.056363   -0.080964
     37          6           0       -9.029177   -4.546904   -1.123405
     38          6           0       -5.687178   -4.398598    0.084585
     39          8           0       -5.670865   -5.574766    0.068009
     40          6           0       -4.599451   -3.443806    0.482793
     41          6           0       -3.925336   -3.789737    1.796932
     42          8           0       -4.243662   -3.279186    2.873736
     43          8           0       -3.160754   -4.813838    1.508995
     44          6           0       -2.676715   -5.403977    2.651480
     45          6           0        2.665796   -0.953006   -1.051362
     46          6           0        4.024324   -0.513287   -0.474362
     47          6           0        4.922214    0.226853   -0.952552
     48          6           0        4.930255    0.760924   -2.303182
     49          6           0        6.317647    0.428314   -0.222684
     50          6           0        7.542492   -0.314495   -0.805685
     51          6           0        8.794368   -0.316810    0.090992
     52          6           0       10.061709   -0.800538   -0.556389
     53          6           0        9.943227   -2.302370   -0.639213
     54          6           0       11.258689   -0.188670    0.231929
     55          6           0       12.614835   -0.548995   -0.497718
     56          6           0       13.837597   -0.018532    0.383665
     57          6           0       15.183732   -0.181873   -0.373077
     58          6           0       15.544057   -1.596450   -0.576847
     59          6           0       16.340985    0.510213    0.326457
     60          6           0       17.744926    0.590947   -0.341987
     61          6           0       18.701927    1.632235    0.336262
     62          6           0       20.081883    1.636321   -0.203884
     63          6           0       20.100853    2.311471   -1.645033
     64          6           0       21.095698    2.284081    0.760155
     65          1           0       -4.113978    3.368030    2.164314
     66          1           0       -9.902173    4.206935   -0.521252
     67          1           0      -10.384504   -2.046900   -1.763444
     68          1           0       -2.853830   -1.485648    2.033997
     69          1           0       -2.339421    1.530234    1.678000
     70          1           0       -2.152603    0.184082    3.904976
     71          1           0       -3.090011    1.870797    3.888426
     72          1           0       -3.837981    0.168488    3.922005
     73          1           0       -2.310658   -1.743237   -0.241976
     74          1           0       -2.163024   -0.069426   -0.503792
     75          1           0       -0.500552    0.482948    1.024351
     76          1           0       -0.125156   -1.220997    1.400010
     77          1           0       -4.591086    5.784774    1.363390
     78          1           0       -5.676887    6.909117    1.614551
     79          1           0       -5.392047    5.653011    3.114071
     80          1           0       -8.174984    6.740066    1.357930
     81          1           0       -9.093683    6.095522   -1.389111
     82          1           0       -9.498435    7.724955   -0.539180
     83          1           0      -12.342863    3.581734   -0.284785
     84          1           0      -12.016473    3.573884   -2.141223
     85          1           0      -13.069198    2.421523   -1.693378
     86          1           0      -12.802917   -1.072185   -1.429213
     87          1           0      -13.513853    0.501241   -1.787696
     88          1           0      -12.134148    0.629129   -3.920615
     89          1           0      -11.411320   -1.311630   -3.644766
     90          1           0      -13.273537   -0.963238   -3.827327
     91          1           0       -9.930179   -4.585506   -0.378698
     92          1           0       -9.488355   -4.447625   -2.088858
     93          1           0       -8.390570   -5.542685   -1.298289
     94          1           0       -3.788315   -3.614455   -0.421816
     95          1           0       -2.180628   -6.470240    2.317420
     96          1           0       -1.819223   -4.620036    2.970652
     97          1           0       -3.728067   -5.295599    3.374028
     98          1           0        2.705111   -2.033900   -1.234251
     99          1           0        2.816510   -0.520270   -2.053759
    100          1           0        4.249941   -0.933151    0.615894
    101          1           0        5.514023    1.719311   -2.333077
    102          1           0        5.632570    0.171233   -2.972063
    103          1           0        4.048516    0.859308   -2.900693
    104          1           0        6.363614    1.536156   -0.150777
    105          1           0        6.079956    0.164366    0.930718
    106          1           0        7.291734   -1.310143   -1.177628
    107          1           0        8.227886   -0.015798   -1.789315
    108          1           0        8.799966    0.850165    0.475074
    109          1           0        8.696139   -0.706677    1.125418
    110          1           0       10.057140   -0.421616   -1.555389
    111          1           0        9.178074   -2.692300   -1.078307
    112          1           0       10.972346   -2.666678   -0.982803
    113          1           0        9.955818   -2.650886    0.499098
    114          1           0       11.150932    1.107577    0.151287
    115          1           0       11.129589   -0.428698    1.389327
    116          1           0       12.698679   -1.689110   -0.862063
    117          1           0       12.600497    0.047331   -1.341160
    118          1           0       13.698415    1.112973    0.606158
    119          1           0       13.947652   -0.426452    1.451147
    120          1           0       14.981637    0.387465   -1.290214
    121          1           0       15.015705   -2.286540   -1.306648
    122          1           0       16.615523   -1.569029   -1.176855
    123          1           0       15.519537   -2.116144    0.380289
    124          1           0       16.258059    1.450839    0.708308
    125          1           0       16.482490    0.035412    1.228711
    126          1           0       18.045105   -0.431512   -0.262676
    127          1           0       17.440267    1.076215   -1.232217
    128          1           0       18.348531    2.567948    0.207671
    129          1           0       18.583095    1.324954    1.497429
    130          1           0       20.255626    0.477968   -0.174479
    131          1           0       19.568790    3.354230   -1.615607
    132          1           0       21.072413    2.358729   -1.887132
    133          1           0       19.730460    1.601294   -2.377408
    134          1           0       21.105582    1.717188    1.829785
    135          1           0       22.156208    2.428096    0.359266
    136          1           0       20.725327    3.433127    0.858057
    137          1           0       -7.058892    1.853738    0.418958
    138          1           0       -7.455006   -0.113393   -0.441797
 ---------------------------------------------------------------------

 SCF Done:  E(RB3LYP) =  -2732.96620063     A.U. after   16 cycles

 Excitation energies and oscillator strengths:

 Excited State   1:      Singlet-A      2.1526 eV  575.99 nm  f=0.2068  <S**2>=0.000
     235 -> 237       -0.17834
     235 -> 238        0.23021
     236 -> 237        0.62034
     236 -> 238        0.15945
 This state for optimization and/or second-order correction.
 Total Energy, E(TD-HF/TD-KS) =  -2732.88709577
 Copying the excited state density for this state as the 1-particle RhoCI density.

 The electronic state is 1-A.
 Alpha  occ. eigenvalues --  -19.20081 -19.17059 -19.14151 -19.14093 -19.13847
 Alpha  occ. eigenvalues --  -14.36928 -14.35093 -14.31468 -14.29910 -10.32818
 Alpha  occ. eigenvalues --  -10.32514 -10.29524 -10.27658 -10.24468 -10.24039
 Alpha  occ. eigenvalues --  -10.23742 -10.23268 -10.23135 -10.22755 -10.22535
 Alpha  occ. eigenvalues --  -10.22417 -10.21509 -10.21405 -10.21166 -10.21154
 Alpha  occ. eigenvalues --  -10.21120 -10.20887 -10.20738 -10.20701 -10.20692
 Alpha  occ. eigenvalues --  -10.20600 -10.20520 -10.20470 -10.20147 -10.20110
 Alpha  occ. eigenvalues --  -10.20094 -10.20090 -10.20057 -10.19927 -10.19901
 Alpha  occ. eigenvalues --  -10.19892 -10.19759 -10.19463 -10.19389 -10.19380
 Alpha  occ. eigenvalues --  -10.19226 -10.19073 -10.18676 -10.18676 -10.18645
 Alpha  occ. eigenvalues --  -10.18613 -10.18532 -10.18465 -10.18436 -10.18433
 Alpha  occ. eigenvalues --  -10.18399 -10.18314 -10.17985 -10.17888 -10.17859
 Alpha  occ. eigenvalues --  -10.17613 -10.17519 -10.17044 -10.15574  -1.13662
 Alpha  occ. eigenvalues --   -1.09221  -1.06076  -1.02369  -1.01671  -0.98517
 Alpha  occ. eigenvalues --   -0.96825  -0.94115  -0.91866  -0.84280  -0.83113
 Alpha  occ. eigenvalues --   -0.82606  -0.82153  -0.81633  -0.81228  -0.80700
 Alpha  occ. eigenvalues --   -0.79950  -0.79845  -0.79713  -0.78800  -0.77532
 Alpha  occ. eigenvalues --   -0.77022  -0.76677  -0.75825  -0.75185  -0.74405
 Alpha  occ. eigenvalues --   -0.74016  -0.73405  -0.72508  -0.71935  -0.71705
 Alpha  occ. eigenvalues --   -0.69986  -0.69303  -0.68540  -0.67645  -0.67504
 Alpha  occ. eigenvalues --   -0.67331  -0.66514  -0.66266  -0.65560  -0.65024
 Alpha  occ. eigenvalues --   -0.64365  -0.62493  -0.62202  -0.61210  -0.60822
 Alpha  occ. eigenvalues --   -0.60610  -0.58815  -0.58433  -0.57682  -0.57210
 Alpha  occ. eigenvalues --   -0.56888  -0.56643  -0.56340  -0.56015  -0.55765
 Alpha  occ. eigenvalues --   -0.55379  -0.54858  -0.54753  -0.54423  -0.53793
 Alpha  occ. eigenvalues --   -0.52188  -0.51732  -0.51383  -0.51321  -0.50641
 Alpha  occ. eigenvalues --   -0.50298  -0.49700  -0.49591  -0.48756  -0.48434
 Alpha  occ. eigenvalues --   -0.48246  -0.47673  -0.47604  -0.47368  -0.47257
 Alpha  occ. eigenvalues --   -0.46936  -0.46543  -0.46075  -0.45973  -0.45696
 Alpha  occ. eigenvalues --   -0.45560  -0.45255  -0.45081  -0.44857  -0.44758
 Alpha  occ. eigenvalues --   -0.44565  -0.44412  -0.44075  -0.43907  -0.43600
 Alpha  occ. eigenvalues --   -0.43449  -0.43369  -0.43299  -0.42884  -0.42759
 Alpha  occ. eigenvalues --   -0.42596  -0.42177  -0.42017  -0.41921  -0.41672
 Alpha  occ. eigenvalues --   -0.41025  -0.41008  -0.40484  -0.40291  -0.40177
 Alpha  occ. eigenvalues --   -0.39995  -0.39901  -0.39624  -0.39297  -0.39261
 Alpha  occ. eigenvalues --   -0.39158  -0.39086  -0.38913  -0.38625  -0.38560
 Alpha  occ. eigenvalues --   -0.38512  -0.37895  -0.37670  -0.37476  -0.37292
 Alpha  occ. eigenvalues --   -0.37098  -0.37062  -0.36982  -0.36670  -0.36570
 Alpha  occ. eigenvalues --   -0.36469  -0.36350  -0.36153  -0.35955  -0.35828
 Alpha  occ. eigenvalues --   -0.35670  -0.35424  -0.35260  -0.35082  -0.34923
 Alpha  occ. eigenvalues --   -0.34548  -0.34441  -0.34198  -0.33839  -0.33258
 Alpha  occ. eigenvalues --   -0.32868  -0.32571  -0.32526  -0.32060  -0.32051
 Alpha  occ. eigenvalues --   -0.31742  -0.31651  -0.31258  -0.31216  -0.30995
 Alpha  occ. eigenvalues --   -0.30802  -0.30606  -0.30474  -0.30432  -0.29472
 Alpha  occ. eigenvalues --   -0.29416  -0.29280  -0.29032  -0.28846  -0.27909
 Alpha  occ. eigenvalues --   -0.27781  -0.27305  -0.27059  -0.26680  -0.26143
 Alpha  occ. eigenvalues --   -0.25565  -0.24988  -0.24096  -0.22208  -0.20509
 Alpha  occ. eigenvalues --   -0.18513
 Alpha virt. eigenvalues --   -0.09908  -0.07396  -0.04148  -0.02037  -0.01539
 Alpha virt. eigenvalues --   -0.01077   0.00079   0.02298   0.02469   0.02881
 Alpha virt. eigenvalues --    0.03492   0.03661   0.03955   0.04816   0.04830

 Mulliken charges:
               1
     1  C    0.096482
     2  C   -0.070725
     3  C   -0.088253
     4  C   -0.056444
     5  N   -0.108394
     6  C   -0.166149
     7  C   -0.002044
     8  C   -0.135143
     9  C   -0.015794
    10  C    0.099126
    11  C    0.105518
    12  C    0.019347
    13  C    0.215696
    14  O   -0.207183
    15  O   -0.319402
    16  N    0.027102
    17  C    0.104088
    18  C   -0.141433
    19  C    0.015501
    20  C    0.108026
    21  C    0.103530
    22  C   -0.007783
    23  C   -0.001090
    24  N   -0.293823
    25  C    0.107425
    26  C   -0.139009
    27  C   -0.055623
    28  C    0.059566
    29  C    0.128988
    30  C   -0.043145
    31  C   -0.006318
    32  N   -0.036599
    33  C    0.084522
    34  C   -0.190643
    35  C   -0.070298
    36  C    0.062176
    37  C    0.058346
    38  C    0.125052
    39  O   -0.105051
    40  C   -0.083338
    41  C    0.206326
    42  O   -0.240652
    43  O   -0.217937
    44  C    0.040719
    45  C    0.325075
    46  C   -0.142287
    47  C   -0.146639
    48  C    0.072524
    49  C    0.051291
    50  C    0.027998
    51  C   -0.036735
    52  C   -0.041064
    53  C    0.105477
    54  C   -0.075093
    55  C    0.063680
    56  C   -0.028703
    57  C    0.001094
    58  C   -0.007909
    59  C    0.071595
    60  C    0.055049
    61  C    0.028072
    62  C   -0.119124
    63  C    0.080275
    64  C   -0.029558
    65  H   -0.015324
    66  H   -0.030394
    67  H   -0.039034
    68  H   -0.011235
    69  H   -0.000025
    70  H    0.011418
    71  H    0.022395
    72  H    0.008872
    73  H    0.006960
    74  H   -0.019826
    75  H    0.061094
    76  H    0.008998
    77  H    0.008796
    78  H    0.009859
    79  H    0.064666
    80  H   -0.018089
    81  H   -0.005105
    82  H    0.048999
    83  H    0.040610
    84  H   -0.002868
    85  H   -0.022147
    86  H    0.003821
    87  H    0.017509
    88  H    0.047315
    89  H    0.047459
    90  H    0.033232
    91  H    0.047362
    92  H    0.004101
    93  H    0.056640
    94  H    0.103622
    95  H    0.073631
    96  H    0.046116
    97  H    0.084432
    98  H   -0.002408
    99  H   -0.016953
   100  H   -0.010737
   101  H   -0.004336
   102  H    0.017918
   103  H    0.016855
   104  H    0.011381
   105  H    0.018049
   106  H   -0.000773
   107  H    0.004745
   108  H   -0.010148
   109  H   -0.015665
   110  H   -0.024963
   111  H   -0.028135
   112  H    0.002447
   113  H    0.000597
   114  H    0.020739
   115  H    0.025213
   116  H    0.035515
   117  H   -0.021349
   118  H   -0.000905
   119  H   -0.000473
   120  H   -0.022157
   121  H    0.015652
   122  H    0.021475
   123  H    0.007753
   124  H   -0.061244
   125  H   -0.059587
   126  H    0.009823
   127  H   -0.017803
   128  H   -0.048781
   129  H   -0.001191
   130  H   -0.001745
   131  H    0.031954
   132  H   -0.026872
   133  H    0.010647
   134  H    0.035986
   135  H    0.021724
   136  H    0.008697
   137  H   -0.054878
   138  H    0.199795
 Sum of Mulliken charges =   0.00000

 Dipole moment (field-independent basis, Debye):
    X=              1.3943    Y=              3.7175    Z=             -0.7400  Tot=              4.0387
 Quadrupole moment (field-independent basis, Debye-Ang):
   XX=           -364.1711   YY=           -375.7861   ZZ=           -394.7356
   XY=            -23.5130   XZ=              7.5368   YZ=             -0.2479

 Normal termination of Gaussian 09 at Mon Aug  5 03:39:25 2019.
