 Gaussian 09, Revision D.01,
 Gaussian 09:  ES64L-G09RevD.01 24-Apr-2013

 --------------------------
 # td=(NStates=1) B3LYP/SVP
 --------------------------

 --
 TD
 --
 Symbolic Z-matrix:
 Charge =  0 Multiplicity = 1

                         Standard orientation:
 ---------------------------------------------------------------------
 Center     Atomic      Atomic             Coordinates (Angstroms)
 Number     Number       Type             X           Y           Z
 ---------------------------------------------------------------------
      1          6           0       -5.140756   -1.927008    0.534699
      2          6           0       -4.782478    2.771831    1.410874
      3          6           0       -9.323445    3.162620   -0.305987
      4          6           0       -9.910010   -1.594141   -0.818183
      5          7           0       -5.225440    0.495411    0.789183
      6          6           0       -4.543181   -0.720091    0.815657
      7          6           0       -3.089266   -0.527107    1.292448
      8          6           0       -3.090739    0.948237    1.748052
      9          6           0       -4.446849    1.410780    1.262723
     10          6           0       -2.900248    1.063602    3.233609
     11          6           0       -2.110184   -0.667747    0.110736
     12          6           0       -0.669829   -0.650473    0.454459
     13          6           0        0.288604   -0.907447   -0.605914
     14          8           0        0.077338   -1.379242   -1.692525
     15          8           0        1.578877   -0.524482   -0.262387
     16          7           0       -6.999993    2.723332    0.377939
     17          6           0       -5.980563    3.397263    0.991780
     18          6           0       -6.331250    4.811583    0.997078
     19          6           0       -7.612179    4.920010    0.540796
     20          6           0       -8.110870    3.574270    0.196938
     21          6           0       -5.375029    5.988811    1.453709
     22          6           0       -8.350583    6.229095    0.240622
     23          6           0       -9.177555    6.514811   -0.741961
     24          7           0       -9.348316    0.738565   -0.369433
     25          6           0       -9.985275    1.934224   -0.415859
     26          6           0      -11.352666    1.764120   -0.855532
     27          6           0      -11.467142    0.406381   -1.055733
     28          6           0      -10.236669   -0.237533   -0.716150
     29          6           0      -12.366405    2.835276   -1.059453
     30          6           0      -12.818198   -0.345082   -1.580482
     31          6           0      -12.855084   -0.605611   -3.061060
     32          7           0       -7.545931   -1.402676   -0.101361
     33          6           0       -8.612179   -2.166567   -0.546904
     34          6           0       -8.070961   -3.490489   -0.527396
     35          6           0       -6.773368   -3.428563   -0.131732
     36          6           0       -6.433626   -2.068262    0.097409
     37          6           0       -8.918558   -4.619052   -1.057901
     38          6           0       -5.577223   -4.297307    0.098976
     39          8           0       -5.388925   -5.486322    0.071837
     40          6           0       -4.463662   -3.271527    0.453152
     41          6           0       -3.884789   -3.760697    1.705654
     42          8           0       -4.210623   -3.353853    2.822449
     43          8           0       -2.873608   -4.702540    1.478742
     44          6           0       -2.202488   -5.177774    2.707542
     45          6           0        2.614945   -0.830607   -1.270952
     46          6           0        3.951197   -0.526040   -0.695395
     47          6           0        5.062337    0.250540   -1.146371
     48          6           0        5.130063    1.039102   -2.401101
     49          6           0        6.368947    0.242631   -0.362313
     50          6           0        7.573921   -0.393352   -1.087139
     51          6           0        8.786528   -0.407639   -0.149649
     52          6           0       10.052496   -0.789490   -0.917450
     53          6           0       10.078257   -2.218218   -1.446536
     54          6           0       11.328825   -0.524134    0.055948
     55          6           0       12.729905   -0.421631   -0.572788
     56          6           0       13.840224   -0.320619    0.374138
     57          6           0       15.305658   -0.232537   -0.352934
     58          6           0       15.698330   -1.677311   -0.703105
     59          6           0       16.350006    0.419007    0.563413
     60          6           0       17.650777    0.728134   -0.145771
     61          6           0       18.638796    1.498277    0.731645
     62          6           0       20.092467    1.672194    0.163370
     63          6           0       20.080722    2.553755   -1.157222
     64          6           0       21.021114    2.293250    1.362455
     65          1           0       -3.862711    3.467116    1.779532
     66          1           0       -9.841710    4.248024   -0.513225
     67          1           0      -10.413181   -2.209231   -1.260845
     68          1           0       -2.711834   -1.236517    1.956059
     69          1           0       -2.252375    1.547050    1.342234
     70          1           0       -2.198825    0.354072    3.444332
     71          1           0       -2.646037    2.083627    3.675790
     72          1           0       -3.720489    0.667566    3.885993
     73          1           0       -2.316092   -1.727791   -0.489201
     74          1           0       -2.167217    0.023433   -0.635868
     75          1           0       -0.386973    0.306601    1.032155
     76          1           0       -0.513425   -1.294603    1.255345
     77          1           0       -4.382603    5.882584    0.940387
     78          1           0       -6.074034    6.891136    1.361657
     79          1           0       -5.100786    5.771871    2.404802
     80          1           0       -7.988755    7.016339    0.881151
     81          1           0       -9.644360    5.831007   -1.455026
     82          1           0       -9.584820    7.591906   -1.036138
     83          1           0      -12.663670    3.412970   -0.091649
     84          1           0      -11.745914    3.411769   -1.933311
     85          1           0      -13.157033    2.380726   -1.452016
     86          1           0      -12.864466   -1.390199   -1.061672
     87          1           0      -13.738987   -0.050827   -0.998326
     88          1           0      -13.045700    0.277796   -3.657042
     89          1           0      -11.791537   -0.883158   -3.410548
     90          1           0      -13.709695   -1.199610   -3.302856
     91          1           0       -9.813882   -4.711479   -0.420356
     92          1           0       -9.432362   -4.529693   -2.104301
     93          1           0       -8.303212   -5.590685   -1.087697
     94          1           0       -3.603106   -3.244211   -0.308184
     95          1           0       -1.568069   -5.800600    2.384302
     96          1           0       -1.709035   -4.405176    3.307673
     97          1           0       -3.018096   -5.758122    3.295868
     98          1           0        2.486765   -1.893344   -1.515663
     99          1           0        2.475221   -0.228862   -2.299388
    100          1           0        4.073113   -1.087248    0.189763
    101          1           0        5.410176    2.101298   -2.099684
    102          1           0        5.867628    0.682478   -3.115403
    103          1           0        4.038839    1.012501   -2.859850
    104          1           0        6.489309    1.236186    0.285947
    105          1           0        6.145775   -0.486225    0.628147
    106          1           0        6.956755   -1.283455   -1.261130
    107          1           0        7.812605    0.000005   -2.121753
    108          1           0        9.020489    0.624749    0.391197
    109          1           0        8.571655   -1.249000    0.650088
    110          1           0       10.017210   -0.072943   -1.914722
    111          1           0        9.080550   -2.503123   -1.829223
    112          1           0       11.093983   -2.323771   -2.177785
    113          1           0       10.367149   -3.097208   -0.509942
    114          1           0       11.116751    0.541528    0.610839
    115          1           0       11.323697   -1.247922    0.923798
    116          1           0       12.615180   -1.613277   -1.176582
    117          1           0       12.881666    0.533386   -1.367946
    118          1           0       13.559383    0.567422    1.021575
    119          1           0       13.735577   -1.260085    1.284849
    120          1           0       15.244977    0.328472   -1.389110
    121          1           0       14.827383   -2.275444   -1.269154
    122          1           0       16.613757   -1.665925   -1.464571
    123          1           0       16.048856   -2.237296    0.319630
    124          1           0       15.868012    1.435286    0.832516
    125          1           0       16.655139   -0.061333    1.541544
    126          1           0       18.422744   -0.188063   -0.398254
    127          1           0       17.349689    1.209617   -1.051099
    128          1           0       18.315879    2.542672    0.719197
    129          1           0       18.486322    1.207070    1.725063
    130          1           0       20.246949    0.602933   -0.147781
    131          1           0       19.548521    3.603536   -1.246510
    132          1           0       21.042874    2.778874   -1.501657
    133          1           0       19.702945    1.807860   -1.843509
    134          1           0       20.869815    1.711574    2.180111
    135          1           0       22.103393    2.392619    1.048845
    136          1           0       20.695059    3.340380    1.716454
    137          1           0       -7.101938    1.690156    0.367581
    138          1           0       -7.820418   -0.375183   -0.078098
 ---------------------------------------------------------------------

 SCF Done:  E(RB3LYP) =  -2733.05153377     A.U. after   17 cycles

 Excitation energies and oscillator strengths:

 Excited State   1:      Singlet-A      2.1595 eV  574.14 nm  f=0.1445  <S**2>=0.000
     235 -> 237        0.14185
     235 -> 238       -0.32344
     236 -> 237        0.59784
     236 -> 238        0.12069
 This state for optimization and/or second-order correction.
 Total Energy, E(TD-HF/TD-KS) =  -2732.97217427
 Copying the excited state density for this state as the 1-particle RhoCI density.

 The electronic state is 1-A.
 Alpha  occ. eigenvalues --  -19.17280 -19.16869 -19.12631 -19.12601 -19.12401
 Alpha  occ. eigenvalues --  -14.36693 -14.36556 -14.32468 -14.29830 -10.31483
 Alpha  occ. eigenvalues --  -10.31398 -10.28270 -10.25431 -10.24437 -10.23817
 Alpha  occ. eigenvalues --  -10.23560 -10.23236 -10.22944 -10.22819 -10.22747
 Alpha  occ. eigenvalues --  -10.21523 -10.21479 -10.21476 -10.21472 -10.21435
 Alpha  occ. eigenvalues --  -10.21305 -10.21293 -10.21262 -10.21229 -10.21119
 Alpha  occ. eigenvalues --  -10.20973 -10.20947 -10.20884 -10.20828 -10.20767
 Alpha  occ. eigenvalues --  -10.20669 -10.20539 -10.20408 -10.20387 -10.20380
 Alpha  occ. eigenvalues --  -10.20347 -10.20306 -10.20281 -10.20280 -10.20262
 Alpha  occ. eigenvalues --  -10.20166 -10.20158 -10.20135 -10.20070 -10.19816
 Alpha  occ. eigenvalues --  -10.19813 -10.19602 -10.19567 -10.19316 -10.19136
 Alpha  occ. eigenvalues --  -10.18615 -10.18563 -10.18540 -10.18498 -10.18404
 Alpha  occ. eigenvalues --  -10.18333 -10.18286 -10.18021 -10.17024  -1.08305
 Alpha  occ. eigenvalues --   -1.06839  -1.03451  -0.99753  -0.99412  -0.99027
 Alpha  occ. eigenvalues --   -0.97521  -0.95443  -0.93840  -0.85813  -0.83122
 Alpha  occ. eigenvalues --   -0.82179  -0.81758  -0.81338  -0.80767  -0.80187
 Alpha  occ. eigenvalues --   -0.79935  -0.79463  -0.78943  -0.78619  -0.78267
 Alpha  occ. eigenvalues --   -0.76911  -0.76321  -0.76110  -0.75162  -0.74675
 Alpha  occ. eigenvalues --   -0.73917  -0.73219  -0.72737  -0.71555  -0.70993
 Alpha  occ. eigenvalues --   -0.70640  -0.70178  -0.68883  -0.67816  -0.67693
 Alpha  occ. eigenvalues --   -0.66877  -0.66094  -0.65988  -0.65260  -0.65041
 Alpha  occ. eigenvalues --   -0.64706  -0.63139  -0.62734  -0.61886  -0.61074
 Alpha  occ. eigenvalues --   -0.59760  -0.59415  -0.58616  -0.58385  -0.58110
 Alpha  occ. eigenvalues --   -0.55850  -0.55815  -0.55746  -0.55132  -0.54980
 Alpha  occ. eigenvalues --   -0.54574  -0.54350  -0.53740  -0.53631  -0.53378
 Alpha  occ. eigenvalues --   -0.52938  -0.52186  -0.51838  -0.51235  -0.50874
 Alpha  occ. eigenvalues --   -0.50058  -0.49370  -0.49127  -0.48234  -0.48105
 Alpha  occ. eigenvalues --   -0.47698  -0.47548  -0.47203  -0.47111  -0.46904
 Alpha  occ. eigenvalues --   -0.46664  -0.46026  -0.45716  -0.45609  -0.45448
 Alpha  occ. eigenvalues --   -0.45325  -0.45162  -0.44891  -0.44684  -0.44400
 Alpha  occ. eigenvalues --   -0.44330  -0.44154  -0.43747  -0.43634  -0.43475
 Alpha  occ. eigenvalues --   -0.43424  -0.43291  -0.43217  -0.43013  -0.42775
 Alpha  occ. eigenvalues --   -0.42575  -0.41936  -0.41867  -0.41768  -0.41358
 Alpha  occ. eigenvalues --   -0.41238  -0.41124  -0.40941  -0.40905  -0.40678
 Alpha  occ. eigenvalues --   -0.40423  -0.40388  -0.39859  -0.39707  -0.39581
 Alpha  occ. eigenvalues --   -0.39364  -0.39186  -0.39158  -0.38953  -0.38287
 Alpha  occ. eigenvalues --   -0.38121  -0.38071  -0.38003  -0.37753  -0.37675
 Alpha  occ. eigenvalues --   -0.37590  -0.37451  -0.37129  -0.36853  -0.36623
 Alpha  occ. eigenvalues --   -0.36590  -0.36165  -0.35984  -0.35863  -0.35741
 Alpha  occ. eigenvalues --   -0.35650  -0.35642  -0.35590  -0.35160  -0.35085
 Alpha  occ. eigenvalues --   -0.34367  -0.34162  -0.33882  -0.33816  -0.33779
 Alpha  occ. eigenvalues --   -0.33337  -0.33175  -0.32727  -0.32237  -0.32057
 Alpha  occ. eigenvalues --   -0.31869  -0.31847  -0.31735  -0.31402  -0.31227
 Alpha  occ. eigenvalues --   -0.30679  -0.30653  -0.30377  -0.30079  -0.30013
 Alpha  occ. eigenvalues --   -0.29345  -0.29133  -0.28409  -0.28252  -0.27962
 Alpha  occ. eigenvalues --   -0.27553  -0.27509  -0.26983  -0.26417  -0.26308
 Alpha  occ. eigenvalues --   -0.25246  -0.25208  -0.24162  -0.22647  -0.20075
 Alpha  occ. eigenvalues --   -0.19333
 Alpha virt. eigenvalues --   -0.10151  -0.07979  -0.04289  -0.01772  -0.01750
 Alpha virt. eigenvalues --   -0.00469  -0.00318   0.00526   0.02063   0.02649
 Alpha virt. eigenvalues --    0.03600   0.03607   0.04080   0.04252   0.04481

 Mulliken charges:
               1
     1  C   -0.010731
     2  C   -0.115332
     3  C   -0.103915
     4  C    0.111948
     5  N   -0.140577
     6  C   -0.045546
     7  C    0.030846
     8  C   -0.041207
     9  C   -0.002724
    10  C    0.092913
    11  C   -0.003919
    12  C    0.085217
    13  C    0.184422
    14  O   -0.218611
    15  O   -0.357445
    16  N   -0.092533
    17  C    0.112364
    18  C   -0.170582
    19  C    0.015558
    20  C    0.019594
    21  C    0.168981
    22  C    0.014873
    23  C   -0.073315
    24  N   -0.255134
    25  C    0.087091
    26  C   -0.165863
    27  C   -0.091017
    28  C    0.112813
    29  C    0.130114
    30  C   -0.003685
    31  C    0.056490
    32  N   -0.015431
    33  C   -0.036316
    34  C   -0.133989
    35  C   -0.030665
    36  C    0.116973
    37  C    0.031090
    38  C    0.094946
    39  O   -0.142079
    40  C   -0.042040
    41  C    0.206550
    42  O   -0.244765
    43  O   -0.353261
    44  C    0.256576
    45  C    0.253129
    46  C   -0.061170
    47  C   -0.153271
    48  C    0.057843
    49  C   -0.036009
    50  C   -0.005763
    51  C    0.017182
    52  C   -0.094575
    53  C   -0.062638
    54  C   -0.011829
    55  C   -0.058443
    56  C   -0.005114
    57  C   -0.071098
    58  C   -0.056496
    59  C    0.030891
    60  C   -0.014726
    61  C    0.048118
    62  C   -0.110013
    63  C    0.028300
    64  C    0.048752
    65  H    0.007064
    66  H    0.012856
    67  H   -0.157703
    68  H   -0.021476
    69  H    0.005101
    70  H   -0.026304
    71  H    0.022931
    72  H    0.013357
    73  H    0.036195
    74  H   -0.022886
    75  H    0.026770
    76  H   -0.007226
    77  H    0.031025
    78  H    0.036147
    79  H   -0.006479
    80  H   -0.001664
    81  H    0.031862
    82  H    0.046960
    83  H    0.051420
    84  H    0.046177
    85  H   -0.029165
    86  H   -0.007110
    87  H    0.010090
    88  H   -0.008002
    89  H    0.029053
    90  H    0.008389
    91  H    0.023414
    92  H    0.041652
    93  H    0.048425
    94  H    0.080321
    95  H   -0.031624
    96  H    0.031544
    97  H    0.046334
    98  H    0.027091
    99  H    0.030345
   100  H   -0.024430
   101  H    0.030011
   102  H    0.035392
   103  H    0.023876
   104  H    0.026524
   105  H    0.004791
   106  H    0.021850
   107  H    0.016639
   108  H    0.029483
   109  H    0.015341
   110  H    0.016617
   111  H    0.030035
   112  H    0.053677
   113  H    0.018422
   114  H   -0.007715
   115  H    0.011766
   116  H    0.017112
   117  H    0.031027
   118  H    0.002636
   119  H    0.012803
   120  H    0.018053
   121  H    0.034144
   122  H    0.027742
   123  H    0.028953
   124  H    0.003606
   125  H    0.008823
   126  H    0.006002
   127  H   -0.008585
   128  H   -0.026196
   129  H   -0.026838
   130  H    0.000711
   131  H    0.027634
   132  H   -0.010230
   133  H    0.004731
   134  H   -0.014083
   135  H    0.022017
   136  H    0.013643
   137  H    0.160492
   138  H    0.156894
 Sum of Mulliken charges =   0.00000

 Dipole moment (field-independent basis, Debye):
    X=              1.8626    Y=              5.4166    Z=              0.4827  Tot=              5.7482
 Quadrupole moment (field-independent basis, Debye-Ang):
   XX=           -355.8645   YY=           -386.3362   ZZ=           -395.5362
   XY=            -20.1767   XZ=             14.3508   YZ=             -1.1783

 Normal termination of Gaussian 09 at Fri Jul 26 02:07:00 2019.
