 Gaussian 09, Revision D.01,
 Gaussian 09:  ES64L-G09RevD.01 24-Apr-2013

 --------------------------
 # td=(NStates=1) B3LYP/SVP
 --------------------------

 --
 TD
 --
 Symbolic Z-matrix:
 Charge =  0 Multiplicity = 1

                         Standard orientation:
 ---------------------------------------------------------------------
 Center     Atomic      Atomic             Coordinates (Angstroms)
 Number     Number       Type             X           Y           Z
 ---------------------------------------------------------------------
      1          6           0       -5.121290   -1.979136    0.432021
      2          6           0       -4.763056    2.643862    1.622165
      3          6           0       -9.170217    3.386785   -0.147805
      4          6           0       -9.875840   -1.290994   -0.965162
      5          7           0       -5.206807    0.414239    0.757742
      6          6           0       -4.490988   -0.693876    0.707103
      7          6           0       -3.028125   -0.668876    1.308210
      8          6           0       -3.101856    0.831580    1.835785
      9          6           0       -4.373977    1.331949    1.426743
     10          6           0       -2.934202    0.816684    3.393207
     11          6           0       -2.019955   -0.742058    0.090078
     12          6           0       -0.557034   -0.895472    0.599214
     13          6           0        0.368531   -1.189252   -0.522712
     14          8           0       -0.083726   -1.768422   -1.510669
     15          8           0        1.565541   -0.897407   -0.235136
     16          7           0       -6.894358    2.741367    0.576620
     17          6           0       -5.804263    3.367826    1.163496
     18          6           0       -6.109341    4.754878    1.105825
     19          6           0       -7.302810    4.996649    0.621832
     20          6           0       -7.855607    3.700223    0.327667
     21          6           0       -4.950949    5.617764    1.586307
     22          6           0       -7.970663    6.302601    0.462351
     23          6           0       -8.727502    6.703073   -0.555508
     24          7           0       -9.070871    1.046820   -0.574095
     25          6           0       -9.741025    2.260028   -0.598859
     26          6           0      -11.120055    2.011131   -1.041711
     27          6           0      -11.337851    0.720663   -1.283942
     28          6           0       -9.952860    0.080861   -0.974058
     29          6           0      -12.029021    3.184570   -1.376381
     30          6           0      -12.533088    0.034182   -1.856831
     31          6           0      -12.511380   -0.194023   -3.390491
     32          7           0       -7.475747   -1.247414   -0.244753
     33          6           0       -8.611771   -1.984944   -0.525372
     34          6           0       -8.283616   -3.452491   -0.491416
     35          6           0       -6.985006   -3.419669   -0.222794
     36          6           0       -6.493743   -2.083144    0.026780
     37          6           0       -9.259590   -4.369632   -0.935694
     38          6           0       -5.913659   -4.364908    0.137326
     39          8           0       -5.773386   -5.502235    0.130088
     40          6           0       -4.603965   -3.303793    0.540585
     41          6           0       -3.959537   -3.838602    1.741771
     42          8           0       -4.185892   -3.333809    2.811846
     43          8           0       -3.122268   -4.860322    1.475222
     44          6           0       -2.569142   -5.506150    2.636318
     45          6           0        2.587903   -1.134504   -1.326134
     46          6           0        4.001826   -0.943841   -0.646434
     47          6           0        4.885622   -0.060431   -0.974813
     48          6           0        4.786025    0.758898   -2.245143
     49          6           0        6.215256    0.072048   -0.318710
     50          6           0        7.449282   -0.431694   -1.130227
     51          6           0        8.618277   -0.545178   -0.174007
     52          6           0       10.010033   -0.836912   -0.932663
     53          6           0       10.068444   -2.388126   -1.212522
     54          6           0       11.234140   -0.374044   -0.107663
     55          6           0       12.664234   -0.812117   -0.619582
     56          6           0       13.804131   -0.019372    0.198069
     57          6           0       15.206910   -0.179872   -0.463699
     58          6           0       15.629961   -1.666789   -0.680740
     59          6           0       16.194341    0.576595    0.419144
     60          6           0       17.570766    0.833247   -0.182428
     61          6           0       18.305548    1.631343    0.565504
     62          6           0       19.864082    1.816922    0.158127
     63          6           0       20.250699    2.532815   -1.107591
     64          6           0       20.670514    2.695877    1.328893
     65          1           0       -3.975926    3.228168    2.043302
     66          1           0       -9.796762    4.372383   -0.224743
     67          1           0      -10.446793   -2.065335   -1.276164
     68          1           0       -2.833880   -1.498497    2.018417
     69          1           0       -2.308043    1.541723    1.310828
     70          1           0       -2.025086    0.313747    3.876514
     71          1           0       -2.901081    1.997991    3.622147
     72          1           0       -3.829334    0.454518    3.799782
     73          1           0       -2.426208   -1.640060   -0.603566
     74          1           0       -2.253908    0.265621   -0.536085
     75          1           0        0.031319   -0.190687    1.234445
     76          1           0       -0.552376   -1.840359    1.473336
     77          1           0       -4.138871    5.793844    0.995817
     78          1           0       -5.462821    6.636313    1.574280
     79          1           0       -4.487715    5.422066    2.460542
     80          1           0       -8.125606    6.900950    1.473653
     81          1           0       -8.734885    6.089783   -1.412612
     82          1           0       -9.186605    7.705733   -0.561621
     83          1           0      -12.331914    3.680348   -0.386425
     84          1           0      -11.798320    3.825475   -2.033139
     85          1           0      -13.062769    2.750695   -1.467545
     86          1           0      -12.559726   -0.876087   -1.244904
     87          1           0      -13.234408    0.711409   -1.378754
     88          1           0      -12.441043    0.727870   -3.905229
     89          1           0      -11.389421   -0.641150   -3.719568
     90          1           0      -13.483026   -0.767257   -3.779148
     91          1           0      -10.227218   -4.540467   -0.468417
     92          1           0       -9.467777   -4.600053   -2.035299
     93          1           0       -8.977189   -5.561539   -0.457170
     94          1           0       -3.831502   -3.557418   -0.357762
     95          1           0       -1.761563   -6.242440    2.410355
     96          1           0       -2.040171   -4.809244    3.356806
     97          1           0       -3.440450   -5.979183    3.106763
     98          1           0        2.373049   -2.112638   -1.532228
     99          1           0        2.323424   -0.447030   -1.985177
    100          1           0        3.956596   -1.641778    0.427076
    101          1           0        5.184398    1.789975   -2.026463
    102          1           0        5.279327    0.184080   -3.064473
    103          1           0        3.812504    0.845946   -2.697258
    104          1           0        6.307968    1.198164    0.035498
    105          1           0        6.170542   -0.670249    0.586629
    106          1           0        6.964957   -1.386161   -1.719030
    107          1           0        7.672585    0.357174   -1.905013
    108          1           0        8.811356    0.491529    0.370512
    109          1           0        8.626526   -1.193321    0.802129
    110          1           0       10.199727   -0.293728   -1.865522
    111          1           0        8.906428   -2.772041   -1.702515
    112          1           0       10.782946   -2.658398   -1.892109
    113          1           0        9.982637   -2.884239   -0.240006
    114          1           0       11.292929    0.694537   -0.008440
    115          1           0       11.362224   -0.663208    0.958888
    116          1           0       12.697458   -1.979402   -0.476988
    117          1           0       12.823423   -0.587879   -1.735322
    118          1           0       13.641132    0.911954    0.041281
    119          1           0       13.956005   -0.473531    1.249158
    120          1           0       15.060658    0.359686   -1.346923
    121          1           0       14.844538   -2.212656   -1.317937
    122          1           0       16.563376   -1.692210   -0.963152
    123          1           0       15.900400   -2.121069    0.234814
    124          1           0       15.770032    1.547765    0.842623
    125          1           0       16.316084    0.093169    1.469979
    126          1           0       18.202136   -0.143097   -0.136092
    127          1           0       17.379832    1.185022   -1.408954
    128          1           0       17.869561    2.596504    0.701603
    129          1           0       18.444707    1.339142    1.644279
    130          1           0       20.279671    0.836916    0.191301
    131          1           0       19.819423    3.630636   -1.309835
    132          1           0       21.238366    2.582259   -1.450050
    133          1           0       19.893839    2.029671   -2.166862
    134          1           0       20.734829    2.012903    2.302860
    135          1           0       21.787655    2.861217    1.025769
    136          1           0       20.178023    3.830826    1.371596
    137          1           0       -6.981016    1.672828    0.478484
    138          1           0       -7.538094   -0.274585   -0.212952
 ---------------------------------------------------------------------

 SCF Done:  E(RB3LYP) =  -2732.94213900     A.U. after   17 cycles

 Excitation energies and oscillator strengths:

 Excited State   1:      Singlet-A      2.0109 eV  616.55 nm  f=0.2082  <S**2>=0.000
     235 -> 238       -0.28491
     236 -> 237        0.63965
 This state for optimization and/or second-order correction.
 Total Energy, E(TD-HF/TD-KS) =  -2732.86823818
 Copying the excited state density for this state as the 1-particle RhoCI density.

 The electronic state is 1-A.
 Alpha  occ. eigenvalues --  -19.18151 -19.17544 -19.13687 -19.11078 -19.09992
 Alpha  occ. eigenvalues --  -14.36867 -14.36120 -14.32786 -14.29777 -10.30257
 Alpha  occ. eigenvalues --  -10.29831 -10.28259 -10.24643 -10.24595 -10.23446
 Alpha  occ. eigenvalues --  -10.23386 -10.22985 -10.22795 -10.22096 -10.21921
 Alpha  occ. eigenvalues --  -10.21374 -10.21349 -10.21298 -10.21290 -10.21104
 Alpha  occ. eigenvalues --  -10.21086 -10.20983 -10.20982 -10.20911 -10.20866
 Alpha  occ. eigenvalues --  -10.20698 -10.20583 -10.20499 -10.20399 -10.20353
 Alpha  occ. eigenvalues --  -10.20113 -10.20064 -10.20025 -10.19996 -10.19833
 Alpha  occ. eigenvalues --  -10.19791 -10.19751 -10.19691 -10.19525 -10.19438
 Alpha  occ. eigenvalues --  -10.19376 -10.19330 -10.19290 -10.19200 -10.19191
 Alpha  occ. eigenvalues --  -10.19137 -10.19041 -10.18987 -10.18888 -10.18185
 Alpha  occ. eigenvalues --  -10.18165 -10.18133 -10.17946 -10.17866 -10.17774
 Alpha  occ. eigenvalues --  -10.17676 -10.17669 -10.17502 -10.16566  -1.10749
 Alpha  occ. eigenvalues --   -1.08836  -1.07299  -1.00315  -0.99407  -0.98791
 Alpha  occ. eigenvalues --   -0.97405  -0.94331  -0.92069  -0.83940  -0.83550
 Alpha  occ. eigenvalues --   -0.83232  -0.82138  -0.81859  -0.80715  -0.80521
 Alpha  occ. eigenvalues --   -0.79786  -0.79555  -0.79316  -0.78657  -0.77690
 Alpha  occ. eigenvalues --   -0.76766  -0.75830  -0.75140  -0.74910  -0.74363
 Alpha  occ. eigenvalues --   -0.73447  -0.72858  -0.72407  -0.71873  -0.71258
 Alpha  occ. eigenvalues --   -0.69818  -0.68697  -0.68425  -0.68316  -0.67635
 Alpha  occ. eigenvalues --   -0.67302  -0.66531  -0.65785  -0.65442  -0.64927
 Alpha  occ. eigenvalues --   -0.64312  -0.62779  -0.62333  -0.62233  -0.61350
 Alpha  occ. eigenvalues --   -0.60504  -0.59164  -0.58460  -0.57662  -0.57124
 Alpha  occ. eigenvalues --   -0.56998  -0.56300  -0.56182  -0.55744  -0.55545
 Alpha  occ. eigenvalues --   -0.55310  -0.55278  -0.54702  -0.53364  -0.52835
 Alpha  occ. eigenvalues --   -0.52179  -0.51450  -0.51238  -0.51145  -0.50107
 Alpha  occ. eigenvalues --   -0.49595  -0.49086  -0.48869  -0.48577  -0.48418
 Alpha  occ. eigenvalues --   -0.48206  -0.47783  -0.47553  -0.47181  -0.47007
 Alpha  occ. eigenvalues --   -0.46853  -0.46423  -0.46270  -0.45845  -0.45795
 Alpha  occ. eigenvalues --   -0.45539  -0.45329  -0.45196  -0.44920  -0.44646
 Alpha  occ. eigenvalues --   -0.44329  -0.44197  -0.43869  -0.43769  -0.43580
 Alpha  occ. eigenvalues --   -0.43388  -0.43062  -0.42945  -0.42703  -0.42444
 Alpha  occ. eigenvalues --   -0.42340  -0.42192  -0.42038  -0.41696  -0.41659
 Alpha  occ. eigenvalues --   -0.41554  -0.41174  -0.41074  -0.40547  -0.40541
 Alpha  occ. eigenvalues --   -0.40344  -0.40226  -0.39999  -0.39702  -0.39356
 Alpha  occ. eigenvalues --   -0.39209  -0.38708  -0.38627  -0.38542  -0.38403
 Alpha  occ. eigenvalues --   -0.38061  -0.37781  -0.37463  -0.37396  -0.37299
 Alpha  occ. eigenvalues --   -0.37060  -0.37036  -0.36549  -0.36474  -0.36440
 Alpha  occ. eigenvalues --   -0.36409  -0.36191  -0.36132  -0.35776  -0.35516
 Alpha  occ. eigenvalues --   -0.35080  -0.34797  -0.34751  -0.34669  -0.34388
 Alpha  occ. eigenvalues --   -0.33963  -0.33878  -0.33671  -0.33303  -0.33216
 Alpha  occ. eigenvalues --   -0.32954  -0.32630  -0.32309  -0.32188  -0.32032
 Alpha  occ. eigenvalues --   -0.31781  -0.31604  -0.31181  -0.31086  -0.30900
 Alpha  occ. eigenvalues --   -0.30483  -0.30313  -0.30072  -0.29789  -0.29683
 Alpha  occ. eigenvalues --   -0.29596  -0.29443  -0.28357  -0.28300  -0.27985
 Alpha  occ. eigenvalues --   -0.27234  -0.27173  -0.27003  -0.25603  -0.25502
 Alpha  occ. eigenvalues --   -0.25390  -0.25172  -0.24086  -0.22970  -0.19089
 Alpha  occ. eigenvalues --   -0.18099
 Alpha virt. eigenvalues --   -0.09861  -0.06498  -0.03190  -0.01544  -0.00254
 Alpha virt. eigenvalues --    0.00035   0.00399   0.00915   0.01900   0.03767
 Alpha virt. eigenvalues --    0.04139   0.04398   0.04448   0.04497   0.04709

 Mulliken charges:
               1
     1  C    0.124069
     2  C   -0.042933
     3  C   -0.106855
     4  C   -0.022909
     5  N   -0.170118
     6  C   -0.062977
     7  C   -0.065874
     8  C   -0.016123
     9  C   -0.011419
    10  C    0.041172
    11  C   -0.010077
    12  C   -0.014886
    13  C    0.149899
    14  O   -0.283534
    15  O   -0.282819
    16  N   -0.109829
    17  C    0.094955
    18  C   -0.074624
    19  C    0.019263
    20  C    0.055107
    21  C    0.154459
    22  C   -0.095775
    23  C   -0.007322
    24  N   -0.266154
    25  C    0.086721
    26  C   -0.138604
    27  C   -0.167490
    28  C    0.155426
    29  C    0.191925
    30  C    0.121196
    31  C   -0.008416
    32  N    0.054200
    33  C   -0.084273
    34  C   -0.028912
    35  C   -0.003233
    36  C    0.005588
    37  C   -0.049015
    38  C    0.077001
    39  O   -0.068576
    40  C   -0.191132
    41  C    0.192250
    42  O   -0.235601
    43  O   -0.296926
    44  C    0.174712
    45  C    0.387247
    46  C   -0.149852
    47  C   -0.123564
    48  C    0.073013
    49  C    0.013582
    50  C    0.011658
    51  C   -0.019379
    52  C   -0.031866
    53  C    0.017998
    54  C    0.034459
    55  C   -0.083054
    56  C    0.096763
    57  C   -0.041204
    58  C    0.152367
    59  C   -0.065164
    60  C    0.081701
    61  C    0.040479
    62  C   -0.046494
    63  C   -0.011565
    64  C   -0.088026
    65  H   -0.057372
    66  H   -0.001956
    67  H   -0.068200
    68  H    0.036024
    69  H    0.026418
    70  H    0.038787
    71  H    0.010852
    72  H    0.019093
    73  H    0.063366
    74  H    0.027499
    75  H    0.019520
    76  H    0.044829
    77  H   -0.008888
    78  H    0.000497
    79  H   -0.003282
    80  H    0.043106
    81  H    0.018229
    82  H    0.033156
    83  H    0.000820
    84  H   -0.018154
    85  H   -0.020779
    86  H   -0.000831
    87  H   -0.002193
    88  H    0.004384
    89  H    0.035313
    90  H    0.043974
    91  H    0.028041
    92  H    0.062140
    93  H    0.025411
    94  H    0.074524
    95  H    0.037031
    96  H    0.031111
    97  H    0.034904
    98  H   -0.001253
    99  H   -0.025276
   100  H    0.037449
   101  H    0.030401
   102  H    0.034532
   103  H   -0.003994
   104  H    0.026883
   105  H    0.011744
   106  H    0.044030
   107  H    0.016174
   108  H    0.007208
   109  H    0.019911
   110  H   -0.008870
   111  H    0.003700
   112  H    0.012603
   113  H    0.011849
   114  H   -0.023256
   115  H   -0.014586
   116  H    0.029115
   117  H    0.000815
   118  H   -0.057395
   119  H    0.014466
   120  H   -0.037833
   121  H    0.036145
   122  H   -0.061720
   123  H   -0.034337
   124  H   -0.014266
   125  H   -0.012246
   126  H   -0.003763
   127  H    0.024611
   128  H   -0.035447
   129  H   -0.009749
   130  H   -0.011338
   131  H    0.016725
   132  H   -0.004267
   133  H   -0.007921
   134  H    0.032521
   135  H    0.025832
   136  H    0.042583
   137  H    0.177404
   138  H    0.102806
 Sum of Mulliken charges =   0.00000

 Dipole moment (field-independent basis, Debye):
    X=              4.2491    Y=              3.5985    Z=              0.0697  Tot=              5.5686
 Quadrupole moment (field-independent basis, Debye-Ang):
   XX=           -340.8389   YY=           -383.0510   ZZ=           -394.9525
   XY=            -15.8658   XZ=             10.7091   YZ=             -5.6948

 Normal termination of Gaussian 09 at Tue Jul 30 02:34:54 2019.
