 Gaussian 09, Revision D.01,
 Gaussian 09:  ES64L-G09RevD.01 24-Apr-2013

 --------------------------
 # td=(NStates=1) B3LYP/SVP
 --------------------------

 --
 TD
 --
 Symbolic Z-matrix:
 Charge =  0 Multiplicity = 1

                         Standard orientation:
 ---------------------------------------------------------------------
 Center     Atomic      Atomic             Coordinates (Angstroms)
 Number     Number       Type             X           Y           Z
 ---------------------------------------------------------------------
      1          6           0       -5.025348   -1.832913    0.417594
      2          6           0       -4.862660    2.884121    1.166348
      3          6           0       -9.494308    3.136900   -0.256168
      4          6           0       -9.909019   -1.676325   -0.750204
      5          7           0       -5.254277    0.520394    0.790814
      6          6           0       -4.471315   -0.714317    0.849104
      7          6           0       -3.031595   -0.478603    1.203381
      8          6           0       -3.115493    1.017364    1.680637
      9          6           0       -4.459580    1.519047    1.264874
     10          6           0       -2.791351    1.319323    3.193100
     11          6           0       -2.050509   -0.739252   -0.004746
     12          6           0       -0.580912   -0.697101    0.424455
     13          6           0        0.347905   -0.934453   -0.752432
     14          8           0        0.040570   -1.358499   -1.861118
     15          8           0        1.577816   -0.508052   -0.408529
     16          7           0       -7.152034    2.744050    0.491384
     17          6           0       -6.097484    3.556836    0.831190
     18          6           0       -6.502510    4.905977    0.774842
     19          6           0       -7.884172    4.858794    0.487250
     20          6           0       -8.294250    3.630238    0.146494
     21          6           0       -5.523967    5.916178    1.220942
     22          6           0       -8.511314    6.190723    0.327817
     23          6           0       -9.310919    6.496633   -0.741453
     24          7           0       -9.261108    0.665078   -0.503031
     25          6           0      -10.046819    1.768935   -0.505294
     26          6           0      -11.535371    1.584864   -0.823391
     27          6           0      -11.532313    0.210837   -0.996032
     28          6           0      -10.182900   -0.335040   -0.761317
     29          6           0      -12.480927    2.808143   -0.932371
     30          6           0      -12.703483   -0.560133   -1.396065
     31          6           0      -12.693855   -1.011588   -2.903806
     32          7           0       -7.518470   -1.390178   -0.222232
     33          6           0       -8.593478   -2.196277   -0.606618
     34          6           0       -8.132419   -3.486465   -0.495494
     35          6           0       -6.675426   -3.410824   -0.174537
     36          6           0       -6.305652   -2.088477    0.017521
     37          6           0       -8.788793   -4.757507   -0.888149
     38          6           0       -5.499868   -4.213712    0.148578
     39          8           0       -5.396093   -5.460607    0.191063
     40          6           0       -4.343422   -3.242176    0.398642
     41          6           0       -3.768456   -3.581305    1.743351
     42          8           0       -4.038969   -3.122386    2.801112
     43          8           0       -2.960455   -4.730118    1.593331
     44          6           0       -2.212676   -5.127596    2.693716
     45          6           0        2.587049   -0.908503   -1.421350
     46          6           0        3.990821   -0.644380   -0.739859
     47          6           0        4.954079    0.283164   -1.055617
     48          6           0        4.971410    1.188368   -2.213180
     49          6           0        6.326241    0.351369   -0.162858
     50          6           0        7.601408   -0.204793   -0.889880
     51          6           0        8.868876   -0.118658   -0.057884
     52          6           0       10.039157   -0.740379   -0.783217
     53          6           0        9.885429   -2.252472   -0.913010
     54          6           0       11.398197   -0.248413    0.002656
     55          6           0       12.707981   -0.542482   -0.649217
     56          6           0       13.903929   -0.055496    0.235591
     57          6           0       15.331496   -0.316386   -0.367584
     58          6           0       15.724582   -1.767892   -0.666628
     59          6           0       16.295289    0.502229    0.441782
     60          6           0       17.702608    0.547760   -0.151672
     61          6           0       18.741521    1.313795    0.776948
     62          6           0       20.128074    1.605334    0.219434
     63          6           0       20.291340    2.229564   -1.203634
     64          6           0       21.021711    2.318842    1.221809
     65          1           0       -4.088253    3.682821    1.242739
     66          1           0       -9.996670    3.976985   -0.421842
     67          1           0      -10.680443   -2.380828   -1.020404
     68          1           0       -2.723066   -1.120588    1.986536
     69          1           0       -2.416387    1.655216    1.249773
     70          1           0       -1.758609    0.767211    3.409691
     71          1           0       -2.653682    2.361478    3.132877
     72          1           0       -3.551738    0.836993    3.729486
     73          1           0       -2.505613   -1.712782   -0.412736
     74          1           0       -2.220623   -0.131731   -0.925622
     75          1           0       -0.275538    0.180083    1.023857
     76          1           0       -0.445110   -1.367672    1.319985
     77          1           0       -4.599777    5.810497    0.596207
     78          1           0       -5.719944    7.107626    1.185858
     79          1           0       -5.185537    5.774992    2.226373
     80          1           0       -8.246243    6.777915    1.251124
     81          1           0       -9.613689    5.650630   -1.459855
     82          1           0       -9.857069    7.628333   -0.710996
     83          1           0      -12.093547    3.420375    0.236140
     84          1           0      -12.228366    3.506958   -1.680522
     85          1           0      -13.580506    2.384269   -1.038057
     86          1           0      -12.834719   -1.589005   -0.772348
     87          1           0      -13.509856   -0.000143   -1.003540
     88          1           0      -12.731228   -0.047096   -3.408744
     89          1           0      -11.803038   -1.659241   -3.261546
     90          1           0      -13.544929   -1.896114   -3.340166
     91          1           0       -9.467755   -5.077565   -0.119134
     92          1           0       -9.144691   -4.526944   -1.857755
     93          1           0       -8.043929   -5.577997   -0.926018
     94          1           0       -3.519494   -3.285814   -0.440029
     95          1           0       -1.625344   -5.837573    2.177089
     96          1           0       -1.534528   -4.315371    3.235154
     97          1           0       -2.689400   -5.631829    3.719037
     98          1           0        2.443966   -1.880593   -1.796018
     99          1           0        2.516577   -0.104605   -2.178123
    100          1           0        4.041523   -1.298229    0.209800
    101          1           0        5.128931    2.253348   -2.103732
    102          1           0        5.803157    0.877791   -3.144990
    103          1           0        4.030031    1.079039   -2.721032
    104          1           0        6.539866    1.404333   -0.057602
    105          1           0        6.111679   -0.037163    0.957348
    106          1           0        7.608766   -1.334079   -1.410669
    107          1           0        7.790775    0.586385   -1.794901
    108          1           0        9.081343    0.955992    0.249754
    109          1           0        8.718217   -0.346321    0.932085
    110          1           0       10.286426   -0.378232   -1.849219
    111          1           0        9.025418   -2.181915   -1.354343
    112          1           0       10.729032   -2.682110   -1.545225
    113          1           0        9.878706   -2.805070   -0.071511
    114          1           0       11.254510    0.591785    0.348590
    115          1           0       11.063207   -0.792238    0.989576
    116          1           0       12.699065   -1.668529   -0.779196
    117          1           0       12.739224   -0.103089   -1.638890
    118          1           0       13.589055    0.969527    0.572536
    119          1           0       13.776382   -0.474191    1.319091
    120          1           0       15.388865    0.223417   -1.386297
    121          1           0       14.905521   -2.384156   -1.412900
    122          1           0       16.776918   -1.876258   -1.028838
    123          1           0       15.769703   -2.374965    0.286856
    124          1           0       15.847140    1.670305    0.560556
    125          1           0       16.425050    0.126512    1.420209
    126          1           0       18.224274   -0.393942   -0.404279
    127          1           0       17.519820    1.041710   -1.090877
    128          1           0       18.069778    2.391459    1.097199
    129          1           0       18.591035    0.827172    1.860171
    130          1           0       20.578127    0.614898   -0.072876
    131          1           0       19.973779    3.316039   -1.198637
    132          1           0       21.350764    2.326722   -1.565658
    133          1           0       19.601378    1.684409   -1.819885
    134          1           0       21.173075    1.636823    2.286751
    135          1           0       22.008982    2.545855    0.761796
    136          1           0       20.563126    3.209749    1.240037
    137          1           0       -7.164930    1.834282    0.228907
    138          1           0       -7.489888   -0.322587    0.010063
 ---------------------------------------------------------------------

 SCF Done:  E(RB3LYP) =  -2732.96179808     A.U. after   17 cycles

 Excitation energies and oscillator strengths:

 Excited State   1:      Singlet-A      2.0946 eV  591.91 nm  f=0.1487  <S**2>=0.000
     235 -> 237        0.41073
     235 -> 238       -0.22434
     236 -> 237        0.47760
     236 -> 238        0.22521
 This state for optimization and/or second-order correction.
 Total Energy, E(TD-HF/TD-KS) =  -2732.88482181
 Copying the excited state density for this state as the 1-particle RhoCI density.

 The electronic state is 1-A.
 Alpha  occ. eigenvalues --  -19.18279 -19.16946 -19.13713 -19.12866 -19.10687
 Alpha  occ. eigenvalues --  -14.35882 -14.34827 -14.32549 -14.31337 -10.32007
 Alpha  occ. eigenvalues --  -10.31763 -10.26958 -10.25342 -10.24715 -10.24223
 Alpha  occ. eigenvalues --  -10.23537 -10.23501 -10.23330 -10.23256 -10.22992
 Alpha  occ. eigenvalues --  -10.22413 -10.22383 -10.22305 -10.22186 -10.21819
 Alpha  occ. eigenvalues --  -10.21816 -10.21668 -10.21431 -10.21371 -10.21282
 Alpha  occ. eigenvalues --  -10.21253 -10.21108 -10.20976 -10.20921 -10.20777
 Alpha  occ. eigenvalues --  -10.20738 -10.20625 -10.20615 -10.20606 -10.20584
 Alpha  occ. eigenvalues --  -10.20531 -10.20388 -10.20209 -10.20055 -10.19996
 Alpha  occ. eigenvalues --  -10.19853 -10.19725 -10.19722 -10.19642 -10.19586
 Alpha  occ. eigenvalues --  -10.19463 -10.19434 -10.19347 -10.19189 -10.18858
 Alpha  occ. eigenvalues --  -10.18507 -10.18263 -10.18249 -10.18208 -10.18120
 Alpha  occ. eigenvalues --  -10.18092 -10.18024 -10.16392 -10.15840  -1.09222
 Alpha  occ. eigenvalues --   -1.09212  -1.01829  -1.00174  -0.99471  -0.96868
 Alpha  occ. eigenvalues --   -0.95978  -0.93699  -0.92468  -0.85533  -0.83099
 Alpha  occ. eigenvalues --   -0.82240  -0.81396  -0.81276  -0.81015  -0.80377
 Alpha  occ. eigenvalues --   -0.80215  -0.79601  -0.79253  -0.78915  -0.77615
 Alpha  occ. eigenvalues --   -0.76898  -0.76392  -0.75720  -0.74804  -0.74283
 Alpha  occ. eigenvalues --   -0.73544  -0.73078  -0.72735  -0.72312  -0.71365
 Alpha  occ. eigenvalues --   -0.70334  -0.69117  -0.68522  -0.68012  -0.67795
 Alpha  occ. eigenvalues --   -0.67421  -0.66977  -0.66133  -0.65795  -0.65277
 Alpha  occ. eigenvalues --   -0.64241  -0.62907  -0.62067  -0.62021  -0.61400
 Alpha  occ. eigenvalues --   -0.61024  -0.58755  -0.58483  -0.58365  -0.57295
 Alpha  occ. eigenvalues --   -0.56845  -0.56547  -0.56475  -0.56165  -0.55361
 Alpha  occ. eigenvalues --   -0.54855  -0.53934  -0.53851  -0.53455  -0.53141
 Alpha  occ. eigenvalues --   -0.53062  -0.52101  -0.51550  -0.51315  -0.50994
 Alpha  occ. eigenvalues --   -0.50009  -0.49127  -0.48933  -0.48297  -0.47829
 Alpha  occ. eigenvalues --   -0.47712  -0.47265  -0.47058  -0.46837  -0.46527
 Alpha  occ. eigenvalues --   -0.46313  -0.46050  -0.45815  -0.45619  -0.45425
 Alpha  occ. eigenvalues --   -0.45304  -0.45137  -0.44952  -0.44597  -0.44526
 Alpha  occ. eigenvalues --   -0.44162  -0.44091  -0.43900  -0.43821  -0.43674
 Alpha  occ. eigenvalues --   -0.43596  -0.43434  -0.43132  -0.43046  -0.42594
 Alpha  occ. eigenvalues --   -0.42359  -0.42173  -0.41765  -0.41692  -0.41627
 Alpha  occ. eigenvalues --   -0.41329  -0.41218  -0.40787  -0.40662  -0.40547
 Alpha  occ. eigenvalues --   -0.40449  -0.40183  -0.40102  -0.39843  -0.39608
 Alpha  occ. eigenvalues --   -0.39312  -0.38978  -0.38699  -0.38541  -0.38470
 Alpha  occ. eigenvalues --   -0.38247  -0.38234  -0.38136  -0.37880  -0.37737
 Alpha  occ. eigenvalues --   -0.37565  -0.37201  -0.36814  -0.36697  -0.36622
 Alpha  occ. eigenvalues --   -0.36476  -0.36271  -0.36045  -0.35814  -0.35588
 Alpha  occ. eigenvalues --   -0.35413  -0.35378  -0.35065  -0.34791  -0.34666
 Alpha  occ. eigenvalues --   -0.34499  -0.34422  -0.34229  -0.33974  -0.33922
 Alpha  occ. eigenvalues --   -0.33513  -0.33377  -0.32985  -0.32522  -0.32489
 Alpha  occ. eigenvalues --   -0.32271  -0.32053  -0.31804  -0.31209  -0.31130
 Alpha  occ. eigenvalues --   -0.30541  -0.30324  -0.30135  -0.30105  -0.29849
 Alpha  occ. eigenvalues --   -0.29018  -0.28721  -0.28645  -0.28517  -0.28183
 Alpha  occ. eigenvalues --   -0.27769  -0.27422  -0.27147  -0.26454  -0.25207
 Alpha  occ. eigenvalues --   -0.24546  -0.24072  -0.23924  -0.23625  -0.20156
 Alpha  occ. eigenvalues --   -0.19590
 Alpha virt. eigenvalues --   -0.10980  -0.07926  -0.04679  -0.02272  -0.01609
 Alpha virt. eigenvalues --   -0.01283  -0.00645  -0.00020   0.01518   0.02353
 Alpha virt. eigenvalues --    0.03280   0.03495   0.03746   0.03934   0.04311

 Mulliken charges:
               1
     1  C    0.011424
     2  C   -0.053750
     3  C    0.032336
     4  C   -0.085056
     5  N   -0.245035
     6  C   -0.095626
     7  C    0.050948
     8  C   -0.015309
     9  C    0.056555
    10  C    0.082880
    11  C    0.043767
    12  C    0.032571
    13  C    0.209332
    14  O   -0.246303
    15  O   -0.324909
    16  N   -0.095615
    17  C    0.044871
    18  C   -0.058605
    19  C    0.010822
    20  C    0.008069
    21  C    0.025438
    22  C   -0.018764
    23  C   -0.081255
    24  N   -0.208912
    25  C    0.070322
    26  C   -0.105776
    27  C   -0.114781
    28  C    0.132735
    29  C    0.030150
    30  C    0.045408
    31  C   -0.052745
    32  N   -0.159697
    33  C    0.116174
    34  C   -0.169398
    35  C    0.005266
    36  C    0.122343
    37  C    0.142426
    38  C    0.043399
    39  O   -0.213503
    40  C   -0.057630
    41  C    0.207174
    42  O   -0.176745
    43  O   -0.303809
    44  C    0.126022
    45  C    0.290789
    46  C   -0.123732
    47  C   -0.091747
    48  C    0.031251
    49  C    0.053148
    50  C   -0.066182
    51  C    0.063513
    52  C   -0.130938
    53  C    0.188493
    54  C    0.069526
    55  C    0.122915
    56  C   -0.016037
    57  C   -0.011345
    58  C   -0.022300
    59  C   -0.008220
    60  C    0.019058
    61  C   -0.062678
    62  C   -0.070250
    63  C    0.001382
    64  C    0.062924
    65  H   -0.034534
    66  H   -0.133603
    67  H   -0.019321
    68  H   -0.018718
    69  H   -0.032228
    70  H    0.019878
    71  H    0.009803
    72  H    0.022456
    73  H    0.003210
    74  H    0.014718
    75  H    0.021095
    76  H    0.026328
    77  H    0.036947
    78  H    0.036197
    79  H    0.030464
    80  H    0.030797
    81  H    0.064234
    82  H    0.061634
    83  H    0.060571
    84  H    0.037805
    85  H    0.051369
    86  H    0.010274
    87  H   -0.004909
    88  H    0.025039
    89  H    0.036055
    90  H    0.029224
    91  H    0.018684
    92  H    0.023608
    93  H    0.031790
    94  H    0.105858
    95  H    0.027968
    96  H    0.020304
    97  H    0.038926
    98  H    0.035181
    99  H    0.013545
   100  H    0.015906
   101  H    0.027610
   102  H    0.047266
   103  H   -0.011268
   104  H   -0.005974
   105  H    0.024273
   106  H    0.049375
   107  H    0.020742
   108  H   -0.024928
   109  H   -0.041096
   110  H   -0.003946
   111  H   -0.076838
   112  H    0.009219
   113  H   -0.024172
   114  H   -0.116524
   115  H   -0.026368
   116  H    0.001353
   117  H   -0.007935
   118  H   -0.009139
   119  H   -0.009725
   120  H   -0.006016
   121  H    0.041181
   122  H    0.021334
   123  H    0.007231
   124  H    0.023410
   125  H   -0.024711
   126  H    0.007407
   127  H   -0.006724
   128  H   -0.012236
   129  H    0.020050
   130  H   -0.005117
   131  H   -0.002827
   132  H    0.023589
   133  H    0.012539
   134  H    0.038478
   135  H   -0.000873
   136  H   -0.023576
   137  H    0.088732
   138  H    0.192871
 Sum of Mulliken charges =   0.00000

 Dipole moment (field-independent basis, Debye):
    X=              2.0075    Y=              6.5410    Z=             -0.0782  Tot=              6.8425
 Quadrupole moment (field-independent basis, Debye-Ang):
   XX=           -344.8175   YY=           -391.1092   ZZ=           -398.7122
   XY=            -35.2976   XZ=              5.5004   YZ=              2.0511

 Normal termination of Gaussian 09 at Sat Aug  3 21:23:18 2019.
