 Gaussian 09, Revision D.01,
 Gaussian 09:  ES64L-G09RevD.01 24-Apr-2013

 --------------------------
 # td=(NStates=1) B3LYP/SVP
 --------------------------

 --
 TD
 --
 Symbolic Z-matrix:
 Charge =  0 Multiplicity = 1

                         Standard orientation:
 ---------------------------------------------------------------------
 Center     Atomic      Atomic             Coordinates (Angstroms)
 Number     Number       Type             X           Y           Z
 ---------------------------------------------------------------------
      1          6           0       -5.067355   -1.865095    0.475847
      2          6           0       -4.944891    2.806914    1.240090
      3          6           0       -9.506068    3.191001   -0.229570
      4          6           0       -9.729010   -1.626555   -0.909984
      5          7           0       -5.118332    0.550852    0.807109
      6          6           0       -4.430066   -0.619672    0.881841
      7          6           0       -2.922077   -0.457650    1.252242
      8          6           0       -3.097042    0.992495    1.845655
      9          6           0       -4.434858    1.598635    1.303707
     10          6           0       -2.957576    1.151738    3.265000
     11          6           0       -2.003382   -0.677021    0.172466
     12          6           0       -0.570263   -0.733207    0.602390
     13          6           0        0.379202   -0.947841   -0.630026
     14          8           0        0.056021   -1.293516   -1.729304
     15          8           0        1.619667   -0.744562   -0.275986
     16          7           0       -7.149060    2.629006    0.386074
     17          6           0       -6.091582    3.399492    0.886698
     18          6           0       -6.506995    4.810152    1.045979
     19          6           0       -7.733000    4.911458    0.502731
     20          6           0       -8.247665    3.605505    0.104735
     21          6           0       -5.602358    5.940245    1.334194
     22          6           0       -8.567823    6.063930    0.444212
     23          6           0       -9.372622    6.526173   -0.571369
     24          7           0       -9.245294    0.722191   -0.486134
     25          6           0       -9.920657    1.877738   -0.567216
     26          6           0      -11.464841    1.517062   -0.960616
     27          6           0      -11.439729    0.148259   -1.070474
     28          6           0      -10.073907   -0.299922   -0.810930
     29          6           0      -12.538651    2.527492   -1.109915
     30          6           0      -12.625120   -0.582204   -1.671476
     31          6           0      -12.476592   -0.933065   -3.196409
     32          7           0       -7.436317   -1.360363   -0.116554
     33          6           0       -8.415039   -2.123695   -0.580571
     34          6           0       -7.887135   -3.451362   -0.600981
     35          6           0       -6.661715   -3.462875   -0.209502
     36          6           0       -6.364204   -1.999879    0.098888
     37          6           0       -8.947584   -4.654480   -0.904694
     38          6           0       -5.414693   -4.300548    0.016046
     39          8           0       -5.331625   -5.465278    0.003860
     40          6           0       -4.312261   -3.168328    0.442960
     41          6           0       -3.666089   -3.639333    1.728853
     42          8           0       -3.991640   -3.245765    2.860532
     43          8           0       -2.797076   -4.609888    1.554901
     44          6           0       -2.257437   -5.192584    2.748457
     45          6           0        2.602399   -0.893884   -1.156688
     46          6           0        3.953268   -0.546357   -0.624996
     47          6           0        4.922268    0.346234   -1.123999
     48          6           0        4.701948    1.232672   -2.340043
     49          6           0        6.195468    0.490236   -0.346441
     50          6           0        7.527256   -0.230984   -0.983317
     51          6           0        8.802707   -0.027261   -0.120200
     52          6           0       10.054995   -0.595691   -0.759987
     53          6           0        9.916325   -2.143881   -0.865012
     54          6           0       11.267738   -0.184385    0.005450
     55          6           0       12.703993   -0.539264   -0.515369
     56          6           0       13.806639   -0.083411    0.268237
     57          6           0       15.142066   -0.252065   -0.319591
     58          6           0       15.598333   -1.783375   -0.540116
     59          6           0       16.342878    0.502819    0.527888
     60          6           0       17.720924    0.588214   -0.145735
     61          6           0       18.707749    1.472223    0.647674
     62          6           0       20.093023    1.459998    0.007950
     63          6           0       20.196031    2.205669   -1.357542
     64          6           0       21.095980    2.243859    0.908688
     65          1           0       -4.269568    3.606321    1.613155
     66          1           0      -10.219829    3.992592   -0.252091
     67          1           0      -10.445737   -2.503125   -1.156632
     68          1           0       -2.842118   -0.981590    2.171832
     69          1           0       -2.295999    1.538305    1.295844
     70          1           0       -1.871667    0.892276    3.532820
     71          1           0       -3.122058    2.193174    3.774861
     72          1           0       -3.901126    0.568711    3.613624
     73          1           0       -2.315378   -1.493937   -0.445491
     74          1           0       -2.024651    0.205103   -0.572670
     75          1           0       -0.278411    0.188923    0.955499
     76          1           0       -0.387916   -1.462722    1.220155
     77          1           0       -4.748331    5.692475    0.812837
     78          1           0       -6.068235    7.097217    0.971201
     79          1           0       -5.402133    6.034702    2.430953
     80          1           0       -8.373100    6.700014    1.249789
     81          1           0       -9.831890    5.980355   -1.364541
     82          1           0       -9.771970    7.571067   -0.476452
     83          1           0      -12.579822    3.151477   -0.271726
     84          1           0      -12.217228    2.997652   -2.082416
     85          1           0      -13.360911    2.031273   -1.235618
     86          1           0      -12.967908   -1.576010   -1.132403
     87          1           0      -13.368380    0.340083   -1.453641
     88          1           0      -12.415807   -0.164435   -3.898177
     89          1           0      -11.679660   -1.504758   -3.574056
     90          1           0      -13.520311   -1.387296   -3.430208
     91          1           0       -9.856993   -4.423401   -0.277989
     92          1           0       -9.198121   -4.613172   -1.922537
     93          1           0       -8.552119   -5.587078   -0.691658
     94          1           0       -3.569270   -3.193669   -0.562427
     95          1           0       -1.495907   -5.837900    2.510541
     96          1           0       -1.728653   -4.593892    3.520947
     97          1           0       -3.217993   -5.806034    3.362147
     98          1           0        2.627475   -2.101983   -1.413222
     99          1           0        2.547541   -0.256774   -2.331618
    100          1           0        4.154684   -0.933666    0.431277
    101          1           0        5.005306    2.260843   -2.141028
    102          1           0        5.313095    0.903622   -3.172258
    103          1           0        3.711114    1.318504   -2.625048
    104          1           0        6.530814    1.546308   -0.190520
    105          1           0        6.139859    0.144935    0.836052
    106          1           0        7.265940   -1.401698   -0.898231
    107          1           0        7.527968    0.083547   -2.053391
    108          1           0        8.943694    1.018712    0.228980
    109          1           0        8.769732   -0.711212    0.960390
    110          1           0       10.167962   -0.242117   -1.867539
    111          1           0        9.048553   -2.419601   -1.695233
    112          1           0       10.884097   -2.610524   -1.216122
    113          1           0        9.665260   -2.707515    0.091301
    114          1           0       11.554399    0.784515    0.279897
    115          1           0       11.251101   -0.645809    1.108458
    116          1           0       12.712717   -1.690352   -0.546731
    117          1           0       12.789733   -0.113834   -1.566107
    118          1           0       13.500623    0.906896    0.545098
    119          1           0       13.743030   -0.551617    1.245666
    120          1           0       15.173587    0.150383   -1.235749
    121          1           0       14.933558   -2.207375   -1.354197
    122          1           0       16.558694   -1.927729   -0.865699
    123          1           0       15.248960   -2.469407    0.285136
    124          1           0       15.852644    1.485563    0.778352
    125          1           0       16.304105    0.062077    1.443824
    126          1           0       18.123757   -0.355162   -0.306267
    127          1           0       17.576766    0.943188   -1.190953
    128          1           0       18.398600    2.586403    0.853953
    129          1           0       18.947959    1.101542    1.629156
    130          1           0       20.478330    0.509179   -0.025488
    131          1           0       20.032960    3.392381   -1.103092
    132          1           0       21.164523    2.107963   -1.696911
    133          1           0       19.428531    1.663349   -2.238212
    134          1           0       20.967965    1.570398    2.057156
    135          1           0       22.203208    2.144676    0.779153
    136          1           0       20.702189    3.242782    1.044582
    137          1           0       -7.264972    1.628703    0.412765
    138          1           0       -7.472042   -0.348573   -0.175187
 ---------------------------------------------------------------------

 SCF Done:  E(RB3LYP) =  -2733.01727348     A.U. after   17 cycles

 Excitation energies and oscillator strengths:

 Excited State   1:      Singlet-A      2.1126 eV  586.89 nm  f=0.2146  <S**2>=0.000
     235 -> 237       -0.11734
     235 -> 238       -0.28262
     236 -> 237        0.63021
     236 -> 238       -0.10044
 This state for optimization and/or second-order correction.
 Total Energy, E(TD-HF/TD-KS) =  -2732.93963852
 Copying the excited state density for this state as the 1-particle RhoCI density.

 The electronic state is 1-A.
 Alpha  occ. eigenvalues --  -19.19431 -19.19230 -19.13852 -19.12708 -19.11751
 Alpha  occ. eigenvalues --  -14.37317 -14.35880 -14.31382 -14.30216 -10.31887
 Alpha  occ. eigenvalues --  -10.31777 -10.29128 -10.27388 -10.25749 -10.23610
 Alpha  occ. eigenvalues --  -10.23276 -10.22999 -10.22810 -10.22595 -10.22584
 Alpha  occ. eigenvalues --  -10.22001 -10.21612 -10.21306 -10.21104 -10.20973
 Alpha  occ. eigenvalues --  -10.20899 -10.20661 -10.20614 -10.20434 -10.20430
 Alpha  occ. eigenvalues --  -10.20317 -10.20305 -10.20279 -10.20270 -10.20252
 Alpha  occ. eigenvalues --  -10.20186 -10.19877 -10.19820 -10.19793 -10.19764
 Alpha  occ. eigenvalues --  -10.19719 -10.19713 -10.19654 -10.19295 -10.19293
 Alpha  occ. eigenvalues --  -10.19131 -10.19010 -10.18929 -10.18796 -10.18794
 Alpha  occ. eigenvalues --  -10.18505 -10.18484 -10.18433 -10.18376 -10.18232
 Alpha  occ. eigenvalues --  -10.18195 -10.18101 -10.17916 -10.17865 -10.17848
 Alpha  occ. eigenvalues --  -10.17683 -10.17626 -10.17464 -10.16855  -1.14020
 Alpha  occ. eigenvalues --   -1.10746  -1.06384  -1.02623  -1.02207  -0.99152
 Alpha  occ. eigenvalues --   -0.95068  -0.93580  -0.92791  -0.84380  -0.83138
 Alpha  occ. eigenvalues --   -0.82809  -0.82652  -0.81396  -0.81303  -0.80930
 Alpha  occ. eigenvalues --   -0.80396  -0.80080  -0.79559  -0.78743  -0.78552
 Alpha  occ. eigenvalues --   -0.76954  -0.76327  -0.75766  -0.75703  -0.74357
 Alpha  occ. eigenvalues --   -0.73881  -0.73515  -0.72299  -0.71645  -0.70866
 Alpha  occ. eigenvalues --   -0.70434  -0.69995  -0.68909  -0.68494  -0.67835
 Alpha  occ. eigenvalues --   -0.67011  -0.66608  -0.65644  -0.65570  -0.65344
 Alpha  occ. eigenvalues --   -0.63907  -0.63051  -0.62520  -0.62392  -0.61578
 Alpha  occ. eigenvalues --   -0.61433  -0.59717  -0.59478  -0.57820  -0.57673
 Alpha  occ. eigenvalues --   -0.57468  -0.56625  -0.56552  -0.56253  -0.55582
 Alpha  occ. eigenvalues --   -0.55371  -0.55218  -0.54808  -0.53757  -0.53432
 Alpha  occ. eigenvalues --   -0.52705  -0.52197  -0.52049  -0.51689  -0.50856
 Alpha  occ. eigenvalues --   -0.50399  -0.49463  -0.49121  -0.49030  -0.48956
 Alpha  occ. eigenvalues --   -0.48434  -0.48015  -0.47763  -0.47438  -0.47319
 Alpha  occ. eigenvalues --   -0.47295  -0.46767  -0.46339  -0.46150  -0.45755
 Alpha  occ. eigenvalues --   -0.45666  -0.45514  -0.45408  -0.45103  -0.44649
 Alpha  occ. eigenvalues --   -0.44522  -0.44490  -0.44359  -0.44016  -0.43684
 Alpha  occ. eigenvalues --   -0.43576  -0.43271  -0.43099  -0.42758  -0.42650
 Alpha  occ. eigenvalues --   -0.42465  -0.41936  -0.41681  -0.41551  -0.41491
 Alpha  occ. eigenvalues --   -0.41420  -0.41160  -0.41069  -0.40665  -0.40609
 Alpha  occ. eigenvalues --   -0.40456  -0.40287  -0.40038  -0.39741  -0.39572
 Alpha  occ. eigenvalues --   -0.39408  -0.38979  -0.38877  -0.38672  -0.38514
 Alpha  occ. eigenvalues --   -0.38215  -0.38183  -0.38169  -0.37869  -0.37438
 Alpha  occ. eigenvalues --   -0.37225  -0.37124  -0.36986  -0.36733  -0.36664
 Alpha  occ. eigenvalues --   -0.36560  -0.36497  -0.36404  -0.36230  -0.36124
 Alpha  occ. eigenvalues --   -0.36014  -0.35892  -0.35433  -0.35402  -0.34731
 Alpha  occ. eigenvalues --   -0.34635  -0.33978  -0.33847  -0.33547  -0.33424
 Alpha  occ. eigenvalues --   -0.33256  -0.33230  -0.32734  -0.32604  -0.32390
 Alpha  occ. eigenvalues --   -0.32165  -0.31935  -0.31625  -0.31476  -0.30993
 Alpha  occ. eigenvalues --   -0.30752  -0.30555  -0.30359  -0.30137  -0.29709
 Alpha  occ. eigenvalues --   -0.29569  -0.29264  -0.28543  -0.28332  -0.28307
 Alpha  occ. eigenvalues --   -0.27800  -0.27243  -0.26833  -0.25826  -0.25587
 Alpha  occ. eigenvalues --   -0.25100  -0.24194  -0.23863  -0.22614  -0.20053
 Alpha  occ. eigenvalues --   -0.17874
 Alpha virt. eigenvalues --   -0.09181  -0.07157  -0.04064  -0.02470  -0.01525
 Alpha virt. eigenvalues --   -0.00612   0.00572   0.00964   0.02304   0.03410
 Alpha virt. eigenvalues --    0.03919   0.03958   0.04235   0.04598   0.04682

 Mulliken charges:
               1
     1  C   -0.017851
     2  C   -0.030101
     3  C   -0.086573
     4  C   -0.113037
     5  N   -0.188853
     6  C   -0.134045
     7  C    0.039346
     8  C   -0.008444
     9  C   -0.025168
    10  C    0.031559
    11  C    0.107286
    12  C    0.170783
    13  C    0.115604
    14  O   -0.211503
    15  O   -0.196737
    16  N   -0.158007
    17  C    0.081737
    18  C   -0.085681
    19  C    0.075166
    20  C    0.122978
    21  C    0.049491
    22  C   -0.061446
    23  C   -0.029565
    24  N   -0.213982
    25  C    0.054249
    26  C   -0.232132
    27  C   -0.083238
    28  C    0.123590
    29  C    0.259959
    30  C   -0.006485
    31  C    0.040671
    32  N    0.152454
    33  C   -0.032901
    34  C   -0.218024
    35  C   -0.024074
    36  C    0.031317
    37  C    0.144860
    38  C    0.109207
    39  O   -0.094122
    40  C   -0.152753
    41  C    0.224712
    42  O   -0.263038
    43  O   -0.254279
    44  C    0.159288
    45  C    0.130901
    46  C   -0.095986
    47  C   -0.127246
    48  C    0.130613
    49  C   -0.007655
    50  C   -0.015710
    51  C   -0.008415
    52  C   -0.008610
    53  C   -0.051544
    54  C    0.018161
    55  C   -0.020743
    56  C    0.090660
    57  C   -0.011654
    58  C    0.022822
    59  C    0.057030
    60  C    0.103257
    61  C    0.048419
    62  C   -0.076246
    63  C   -0.001435
    64  C   -0.049552
    65  H   -0.050241
    66  H   -0.038733
    67  H    0.009532
    68  H   -0.015579
    69  H   -0.030492
    70  H    0.027610
    71  H    0.025180
    72  H    0.037639
    73  H   -0.004152
    74  H    0.008280
    75  H   -0.004976
    76  H   -0.025184
    77  H    0.026187
    78  H    0.051341
    79  H    0.031567
    80  H   -0.015874
    81  H    0.025295
    82  H    0.031821
    83  H    0.020399
    84  H    0.034800
    85  H   -0.072103
    86  H    0.022013
    87  H    0.028357
    88  H   -0.018230
    89  H    0.004489
    90  H    0.014814
    91  H    0.037116
    92  H    0.009413
    93  H    0.007839
    94  H    0.101296
    95  H    0.007252
    96  H    0.036559
    97  H    0.059787
    98  H    0.032908
    99  H    0.043094
   100  H    0.006291
   101  H    0.007112
   102  H    0.020918
   103  H   -0.008719
   104  H    0.000073
   105  H    0.016541
   106  H    0.031525
   107  H    0.016108
   108  H    0.004476
   109  H    0.015122
   110  H    0.004788
   111  H    0.036053
   112  H    0.021831
   113  H    0.018487
   114  H   -0.040009
   115  H   -0.016705
   116  H    0.001879
   117  H   -0.006808
   118  H   -0.038238
   119  H   -0.030142
   120  H   -0.050508
   121  H   -0.000529
   122  H   -0.006918
   123  H    0.008275
   124  H   -0.018226
   125  H   -0.040520
   126  H   -0.027690
   127  H   -0.005542
   128  H    0.001337
   129  H   -0.019895
   130  H   -0.025116
   131  H    0.023333
   132  H   -0.006679
   133  H    0.029408
   134  H   -0.003073
   135  H    0.033392
   136  H    0.016340
   137  H    0.133982
   138  H    0.139734
 Sum of Mulliken charges =   0.00000

 Dipole moment (field-independent basis, Debye):
    X=              2.7204    Y=              4.1139    Z=              0.2669  Tot=              4.9393
 Quadrupole moment (field-independent basis, Debye-Ang):
   XX=           -349.2114   YY=           -380.3407   ZZ=           -397.6539
   XY=            -25.6714   XZ=              7.6779   YZ=             -0.3338

 Normal termination of Gaussian 09 at Thu Jul 25 18:35:19 2019.
