 Gaussian 09, Revision D.01,
 Gaussian 09:  ES64L-G09RevD.01 24-Apr-2013

 --------------------------
 # td=(NStates=1) B3LYP/SVP
 --------------------------

 --
 TD
 --
 Symbolic Z-matrix:
 Charge =  0 Multiplicity = 1

                         Standard orientation:
 ---------------------------------------------------------------------
 Center     Atomic      Atomic             Coordinates (Angstroms)
 Number     Number       Type             X           Y           Z
 ---------------------------------------------------------------------
      1          6           0       -5.056326   -1.865511    0.569939
      2          6           0       -4.746354    2.835665    1.501341
      3          6           0       -9.297056    3.300726   -0.263701
      4          6           0       -9.811990   -1.471729   -0.849783
      5          7           0       -5.169808    0.506888    1.006000
      6          6           0       -4.516161   -0.669864    0.892897
      7          6           0       -3.028555   -0.486575    1.253156
      8          6           0       -3.067245    0.857378    1.893292
      9          6           0       -4.446214    1.428582    1.472932
     10          6           0       -2.912399    0.743420    3.412912
     11          6           0       -2.132491   -0.681377    0.070412
     12          6           0       -0.705506   -0.884135    0.511777
     13          6           0        0.401568   -0.856041   -0.605272
     14          8           0        0.095407   -1.186557   -1.733133
     15          8           0        1.592414   -0.589413   -0.103940
     16          7           0       -6.984391    2.695899    0.515551
     17          6           0       -6.032642    3.361339    1.130055
     18          6           0       -6.362993    4.709904    1.185723
     19          6           0       -7.661110    4.895768    0.520874
     20          6           0       -8.007747    3.479114    0.169053
     21          6           0       -5.399986    5.908312    1.640916
     22          6           0       -8.449556    6.167480    0.443652
     23          6           0       -9.066154    6.671536   -0.592036
     24          7           0       -9.191833    0.850418   -0.558707
     25          6           0       -9.826234    2.034549   -0.721519
     26          6           0      -11.283782    1.802888   -0.978840
     27          6           0      -11.384419    0.412967   -1.186085
     28          6           0      -10.058005   -0.112885   -0.861160
     29          6           0      -12.222600    2.971461   -1.237824
     30          6           0      -12.512904   -0.408051   -1.668883
     31          6           0      -12.602156   -0.650719   -3.220440
     32          7           0       -7.452563   -1.211082   -0.206337
     33          6           0       -8.587495   -2.023072   -0.605513
     34          6           0       -8.123552   -3.374083   -0.614088
     35          6           0       -6.831181   -3.362205   -0.131834
     36          6           0       -6.404796   -2.034500    0.073345
     37          6           0       -8.909108   -4.600505   -1.199202
     38          6           0       -5.699988   -4.263700    0.015091
     39          8           0       -5.617717   -5.417032   -0.186007
     40          6           0       -4.551563   -3.452223    0.473430
     41          6           0       -3.906811   -3.846830    1.852671
     42          8           0       -4.137401   -3.477354    2.915476
     43          8           0       -3.090387   -4.841767    1.567135
     44          6           0       -2.583412   -5.585505    2.740746
     45          6           0        2.774542   -0.894781   -1.173315
     46          6           0        3.986578   -0.462964   -0.625607
     47          6           0        4.932569    0.190398   -1.227405
     48          6           0        4.953704    0.609377   -2.621475
     49          6           0        6.281773    0.390663   -0.412922
     50          6           0        7.399856   -0.481297   -1.113549
     51          6           0        8.744894   -0.101516   -0.329425
     52          6           0       10.120096   -0.728903   -0.852516
     53          6           0       10.032156   -2.351706   -0.844569
     54          6           0       11.327089   -0.048729   -0.051973
     55          6           0       12.689815   -0.523325   -0.548581
     56          6           0       13.825415    0.045827    0.324995
     57          6           0       15.179307   -0.135947   -0.306369
     58          6           0       15.592138   -1.578865   -0.506924
     59          6           0       16.189773    0.585633    0.471404
     60          6           0       17.662354    0.579348   -0.095409
     61          6           0       18.555269    1.676438    0.580650
     62          6           0       20.028856    1.551306    0.261176
     63          6           0       20.265826    1.895611   -1.235956
     64          6           0       21.027785    2.419790    1.082655
     65          1           0       -4.038543    3.433179    1.919411
     66          1           0       -9.902905    4.141285   -0.266665
     67          1           0      -10.588849   -2.123163   -1.142755
     68          1           0       -2.712881   -1.256594    2.178188
     69          1           0       -2.187658    1.667117    1.521329
     70          1           0       -1.663236    0.681492    3.673618
     71          1           0       -3.362224    1.790731    3.758648
     72          1           0       -3.517550   -0.162802    3.876415
     73          1           0       -2.510672   -1.644365   -0.367573
     74          1           0       -1.962520    0.057926   -0.694015
     75          1           0       -0.431320    0.094120    0.995863
     76          1           0       -0.318697   -1.733596    1.169230
     77          1           0       -4.417586    6.010895    1.230394
     78          1           0       -5.970500    6.789408    1.435431
     79          1           0       -5.258102    5.632622    2.572435
     80          1           0       -8.209098    6.916268    1.069060
     81          1           0       -8.990902    6.162235   -1.525297
     82          1           0       -9.459970    7.769688   -0.659495
     83          1           0      -12.175076    3.635972   -0.350484
     84          1           0      -12.056766    3.538462   -2.313173
     85          1           0      -13.253947    2.689814   -1.527580
     86          1           0      -12.615098   -1.259492   -1.209242
     87          1           0      -13.596361    0.226103   -1.586010
     88          1           0      -12.530648    0.226598   -3.715393
     89          1           0      -11.726546   -1.185413   -3.582332
     90          1           0      -13.410198   -1.418856   -3.448666
     91          1           0       -9.834828   -4.495557   -0.776845
     92          1           0       -9.236800   -4.399955   -2.228478
     93          1           0       -8.417835   -5.408768   -0.767973
     94          1           0       -3.827151   -3.487381   -0.291644
     95          1           0       -1.794129   -6.309465    2.507061
     96          1           0       -2.216985   -4.908679    3.320453
     97          1           0       -3.591085   -6.069477    3.336033
     98          1           0        2.728849   -1.910545   -1.459977
     99          1           0        2.305762   -0.318270   -2.103861
    100          1           0        4.300999   -0.787119    0.461041
    101          1           0        5.286043    1.826113   -2.742486
    102          1           0        5.492869   -0.017362   -3.252313
    103          1           0        4.118897    0.638684   -3.334006
    104          1           0        6.480885    1.536439   -0.431617
    105          1           0        5.920599    0.116374    0.648579
    106          1           0        7.226774   -1.687571   -1.024270
    107          1           0        7.588160   -0.151966   -2.248670
    108          1           0        8.910212    1.063594   -0.336251
    109          1           0        8.542958   -0.520319    0.612272
    110          1           0       10.373661   -0.445604   -2.029876
    111          1           0        9.089991   -2.537904   -1.463624
    112          1           0       10.956120   -2.720811   -1.338113
    113          1           0        9.906513   -2.628313    0.278043
    114          1           0       11.189298    1.102846   -0.121126
    115          1           0       11.442424   -0.236583    0.939992
    116          1           0       12.728088   -1.601034   -0.330347
    117          1           0       12.687789   -0.050468   -1.493472
    118          1           0       13.650920    1.036051    0.347174
    119          1           0       13.772596   -0.498477    1.294719
    120          1           0       15.207642    0.475692   -1.352641
    121          1           0       14.775403   -2.207387   -1.018394
    122          1           0       16.416213   -1.489384   -1.128040
    123          1           0       15.864913   -2.241244    0.531281
    124          1           0       15.941783    1.734500    0.400423
    125          1           0       16.100706    0.112384    1.555894
    126          1           0       17.941537   -0.503823    0.067512
    127          1           0       17.650247    0.597087   -1.226833
    128          1           0       18.296412    2.569606    0.394053
    129          1           0       18.411283    1.390118    1.669248
    130          1           0       20.200275    0.482472    0.477253
    131          1           0       20.047299    2.987875   -1.606676
    132          1           0       21.310807    1.726335   -1.322465
    133          1           0       19.850802    1.144821   -2.063795
    134          1           0       21.155463    2.050958    2.078207
    135          1           0       22.077315    2.266698    0.601805
    136          1           0       20.622942    3.402804    1.014428
    137          1           0       -7.018242    1.612454    0.005863
    138          1           0       -7.612132   -0.245568   -0.208190
 ---------------------------------------------------------------------

 SCF Done:  E(RB3LYP) =  -2732.98252197     A.U. after   16 cycles

 Excitation energies and oscillator strengths:

 Excited State   1:      Singlet-A      2.1499 eV  576.70 nm  f=0.1226  <S**2>=0.000
     235 -> 237       -0.31829
     235 -> 238        0.25686
     236 -> 237        0.52221
     236 -> 238        0.23447
 This state for optimization and/or second-order correction.
 Total Energy, E(TD-HF/TD-KS) =  -2732.90351477
 Copying the excited state density for this state as the 1-particle RhoCI density.

 The electronic state is 1-A.
 Alpha  occ. eigenvalues --  -19.17357 -19.17306 -19.12780 -19.11510 -19.10884
 Alpha  occ. eigenvalues --  -14.37572 -14.36073 -14.31045 -14.29966 -10.31159
 Alpha  occ. eigenvalues --  -10.30028 -10.26618 -10.25691 -10.24820 -10.23442
 Alpha  occ. eigenvalues --  -10.23390 -10.23189 -10.22520 -10.22299 -10.22090
 Alpha  occ. eigenvalues --  -10.22028 -10.21462 -10.21256 -10.21251 -10.21126
 Alpha  occ. eigenvalues --  -10.21062 -10.20994 -10.20943 -10.20536 -10.20451
 Alpha  occ. eigenvalues --  -10.20324 -10.20290 -10.20128 -10.20104 -10.20051
 Alpha  occ. eigenvalues --  -10.19960 -10.19871 -10.19858 -10.19818 -10.19582
 Alpha  occ. eigenvalues --  -10.19430 -10.19404 -10.19385 -10.19253 -10.19006
 Alpha  occ. eigenvalues --  -10.18868 -10.18853 -10.18825 -10.18820 -10.18745
 Alpha  occ. eigenvalues --  -10.18734 -10.18703 -10.18630 -10.18565 -10.18559
 Alpha  occ. eigenvalues --  -10.18491 -10.18398 -10.18037 -10.17794 -10.17769
 Alpha  occ. eigenvalues --  -10.17763 -10.17223 -10.16981 -10.16804  -1.11408
 Alpha  occ. eigenvalues --   -1.07230  -1.04731  -1.02376  -0.99564  -0.98810
 Alpha  occ. eigenvalues --   -0.97074  -0.96047  -0.93806  -0.83937  -0.83773
 Alpha  occ. eigenvalues --   -0.82807  -0.81487  -0.81037  -0.80767  -0.80572
 Alpha  occ. eigenvalues --   -0.79856  -0.79280  -0.79105  -0.78541  -0.77160
 Alpha  occ. eigenvalues --   -0.76629  -0.76277  -0.75581  -0.74676  -0.74237
 Alpha  occ. eigenvalues --   -0.73658  -0.72970  -0.72746  -0.71536  -0.70572
 Alpha  occ. eigenvalues --   -0.70443  -0.69606  -0.68736  -0.67812  -0.67301
 Alpha  occ. eigenvalues --   -0.66943  -0.66837  -0.66406  -0.65980  -0.64648
 Alpha  occ. eigenvalues --   -0.63568  -0.62542  -0.62103  -0.61780  -0.61167
 Alpha  occ. eigenvalues --   -0.60803  -0.58812  -0.58485  -0.58134  -0.56398
 Alpha  occ. eigenvalues --   -0.56245  -0.56036  -0.55698  -0.55576  -0.54649
 Alpha  occ. eigenvalues --   -0.54537  -0.54332  -0.53468  -0.53187  -0.52941
 Alpha  occ. eigenvalues --   -0.52582  -0.52266  -0.51143  -0.51090  -0.50066
 Alpha  occ. eigenvalues --   -0.49915  -0.49788  -0.49368  -0.49076  -0.48240
 Alpha  occ. eigenvalues --   -0.48105  -0.47695  -0.47525  -0.47511  -0.46900
 Alpha  occ. eigenvalues --   -0.46546  -0.46318  -0.46011  -0.45958  -0.45699
 Alpha  occ. eigenvalues --   -0.45555  -0.45179  -0.44820  -0.44763  -0.44696
 Alpha  occ. eigenvalues --   -0.44486  -0.44119  -0.44020  -0.43793  -0.43519
 Alpha  occ. eigenvalues --   -0.43465  -0.43349  -0.43100  -0.43065  -0.42964
 Alpha  occ. eigenvalues --   -0.42887  -0.42417  -0.42119  -0.42080  -0.41843
 Alpha  occ. eigenvalues --   -0.41676  -0.41412  -0.40937  -0.40850  -0.40593
 Alpha  occ. eigenvalues --   -0.40218  -0.39999  -0.39575  -0.39487  -0.39288
 Alpha  occ. eigenvalues --   -0.39167  -0.39042  -0.38739  -0.38553  -0.38272
 Alpha  occ. eigenvalues --   -0.38126  -0.38065  -0.37676  -0.37435  -0.37364
 Alpha  occ. eigenvalues --   -0.37159  -0.36875  -0.36778  -0.36715  -0.36648
 Alpha  occ. eigenvalues --   -0.36384  -0.36084  -0.35892  -0.35755  -0.35707
 Alpha  occ. eigenvalues --   -0.35346  -0.35240  -0.34910  -0.34600  -0.34348
 Alpha  occ. eigenvalues --   -0.34301  -0.34081  -0.33971  -0.33552  -0.33431
 Alpha  occ. eigenvalues --   -0.33386  -0.33145  -0.32711  -0.32410  -0.32083
 Alpha  occ. eigenvalues --   -0.31802  -0.31714  -0.31675  -0.31071  -0.31030
 Alpha  occ. eigenvalues --   -0.30839  -0.30791  -0.30754  -0.30279  -0.30228
 Alpha  occ. eigenvalues --   -0.30197  -0.29805  -0.28788  -0.28359  -0.27932
 Alpha  occ. eigenvalues --   -0.26665  -0.26547  -0.26425  -0.26122  -0.25587
 Alpha  occ. eigenvalues --   -0.24964  -0.24926  -0.23769  -0.22307  -0.19606
 Alpha  occ. eigenvalues --   -0.18870
 Alpha virt. eigenvalues --   -0.09838  -0.07436  -0.03596  -0.01585  -0.00750
 Alpha virt. eigenvalues --    0.00710   0.01988   0.02138   0.02679   0.03345
 Alpha virt. eigenvalues --    0.03662   0.03814   0.03889   0.04620   0.04801

 Mulliken charges:
               1
     1  C    0.046342
     2  C   -0.047023
     3  C   -0.068945
     4  C   -0.083030
     5  N   -0.088526
     6  C   -0.134672
     7  C   -0.097240
     8  C   -0.113353
     9  C   -0.026044
    10  C   -0.037980
    11  C    0.172159
    12  C   -0.024746
    13  C    0.152078
    14  O   -0.263697
    15  O   -0.336922
    16  N   -0.053874
    17  C    0.125202
    18  C   -0.190891
    19  C   -0.027336
    20  C    0.102849
    21  C    0.186335
    22  C    0.027963
    23  C   -0.057932
    24  N   -0.230909
    25  C    0.058640
    26  C   -0.140704
    27  C   -0.063139
    28  C    0.077483
    29  C    0.033856
    30  C    0.056607
    31  C    0.054125
    32  N   -0.051697
    33  C    0.089418
    34  C   -0.194364
    35  C   -0.052253
    36  C    0.094442
    37  C    0.251505
    38  C    0.043326
    39  O   -0.125026
    40  C    0.014332
    41  C    0.175784
    42  O   -0.155551
    43  O   -0.300826
    44  C    0.207953
    45  C    0.238281
    46  C   -0.055239
    47  C   -0.136820
    48  C    0.036829
    49  C    0.033357
    50  C   -0.072138
    51  C    0.037032
    52  C   -0.122901
    53  C   -0.019527
    54  C    0.035177
    55  C    0.051782
    56  C    0.112445
    57  C   -0.120710
    58  C    0.009389
    59  C   -0.018159
    60  C   -0.032170
    61  C    0.163925
    62  C   -0.117598
    63  C   -0.020672
    64  C    0.059879
    65  H   -0.072512
    66  H   -0.044599
    67  H   -0.051053
    68  H    0.048610
    69  H    0.020426
    70  H    0.043335
    71  H    0.022289
    72  H    0.063716
    73  H    0.003408
    74  H    0.004650
    75  H    0.009909
    76  H    0.039721
    77  H    0.018182
    78  H    0.007926
    79  H   -0.012353
    80  H   -0.035766
    81  H    0.021470
    82  H    0.047696
    83  H    0.045157
    84  H    0.035154
    85  H    0.001705
    86  H   -0.039771
    87  H    0.016004
    88  H   -0.011001
    89  H   -0.018270
    90  H    0.021378
    91  H   -0.029805
    92  H    0.021908
    93  H    0.023446
    94  H    0.036036
    95  H    0.044287
    96  H   -0.016738
    97  H    0.057227
    98  H    0.031962
    99  H    0.066085
   100  H    0.013519
   101  H    0.031506
   102  H    0.015391
   103  H   -0.001432
   104  H    0.027617
   105  H    0.019585
   106  H    0.041827
   107  H    0.038459
   108  H    0.020225
   109  H   -0.011470
   110  H    0.001487
   111  H    0.029731
   112  H    0.034227
   113  H    0.029456
   114  H   -0.002605
   115  H   -0.046375
   116  H    0.009683
   117  H   -0.022089
   118  H   -0.055226
   119  H   -0.008049
   120  H   -0.004407
   121  H    0.019841
   122  H   -0.001636
   123  H    0.022755
   124  H    0.001911
   125  H    0.005940
   126  H    0.000705
   127  H    0.001117
   128  H   -0.069420
   129  H   -0.003590
   130  H   -0.014453
   131  H    0.024997
   132  H   -0.010712
   133  H    0.021552
   134  H    0.001690
   135  H    0.017053
   136  H    0.006785
   137  H    0.246988
   138  H    0.081714
 Sum of Mulliken charges =   0.00000

 Dipole moment (field-independent basis, Debye):
    X=              3.9914    Y=              3.2091    Z=             -0.4806  Tot=              5.1440
 Quadrupole moment (field-independent basis, Debye-Ang):
   XX=           -352.1601   YY=           -375.3171   ZZ=           -395.1609
   XY=            -22.8874   XZ=             12.7541   YZ=             -7.7300

 Normal termination of Gaussian 09 at Fri Aug  2 03:21:32 2019.
