 Gaussian 09, Revision D.01,
 Gaussian 09:  ES64L-G09RevD.01 24-Apr-2013

 --------------------------
 # td=(NStates=1) B3LYP/SVP
 --------------------------

 --
 TD
 --
 Symbolic Z-matrix:
 Charge =  0 Multiplicity = 1

                         Standard orientation:
 ---------------------------------------------------------------------
 Center     Atomic      Atomic             Coordinates (Angstroms)
 Number     Number       Type             X           Y           Z
 ---------------------------------------------------------------------
      1          6           0       -5.162190   -1.986551    0.311723
      2          6           0       -4.675159    2.512867    1.628386
      3          6           0       -9.103318    3.554187   -0.082345
      4          6           0       -9.829735   -1.128997   -1.064260
      5          7           0       -5.207575    0.278369    0.923742
      6          6           0       -4.615342   -0.898208    0.927266
      7          6           0       -3.084129   -0.806048    1.377263
      8          6           0       -2.998859    0.617930    1.871442
      9          6           0       -4.343824    1.204809    1.511851
     10          6           0       -2.987221    0.556158    3.468782
     11          6           0       -2.043064   -1.037911    0.151435
     12          6           0       -0.599458   -1.007008    0.670182
     13          6           0        0.419878   -1.438130   -0.476745
     14          8           0        0.042517   -1.877271   -1.558767
     15          8           0        1.602280   -1.039707   -0.215789
     16          7           0       -6.880387    2.871509    0.708603
     17          6           0       -5.749001    3.331288    1.289623
     18          6           0       -5.928560    4.706484    1.150285
     19          6           0       -7.116170    4.989514    0.588926
     20          6           0       -7.745429    3.729425    0.311023
     21          6           0       -4.763692    5.701263    1.533303
     22          6           0       -7.614933    6.360783    0.327896
     23          6           0       -8.448606    6.760604   -0.731302
     24          7           0       -9.174934    1.189629   -0.375402
     25          6           0       -9.680562    2.338596   -0.387493
     26          6           0      -11.202728    2.283330   -0.948245
     27          6           0      -11.396499    0.907281   -1.153463
     28          6           0      -10.065591    0.257792   -0.917724
     29          6           0      -12.111956    3.448401   -0.993443
     30          6           0      -12.595127    0.147612   -1.608886
     31          6           0      -12.671728   -0.213899   -3.186826
     32          7           0       -7.495453   -1.196282   -0.424175
     33          6           0       -8.596490   -1.837561   -0.756344
     34          6           0       -8.324420   -3.258322   -0.897549
     35          6           0       -6.982937   -3.344303   -0.372891
     36          6           0       -6.487677   -2.046218   -0.143077
     37          6           0       -9.251749   -4.416091   -1.353029
     38          6           0       -5.968267   -4.308393   -0.125391
     39          8           0       -5.994753   -5.505404   -0.270382
     40          6           0       -4.702831   -3.478789    0.453024
     41          6           0       -4.078795   -3.985226    1.666043
     42          8           0       -4.393377   -3.592959    2.750204
     43          8           0       -3.277081   -4.988791    1.414714
     44          6           0       -2.983006   -5.707230    2.532729
     45          6           0        2.619437   -1.262364   -1.164303
     46          6           0        4.022344   -0.689013   -0.571923
     47          6           0        4.941015    0.080995   -1.109910
     48          6           0        4.855372    0.596617   -2.521083
     49          6           0        6.234410    0.237580   -0.349349
     50          6           0        7.435011   -0.317031   -1.008724
     51          6           0        8.672434   -0.212900   -0.226001
     52          6           0       10.067632   -0.780208   -0.813737
     53          6           0        9.936201   -2.245011   -0.888286
     54          6           0       11.208356   -0.260899    0.083487
     55          6           0       12.551065   -0.526935   -0.434886
     56          6           0       13.739066    0.133904    0.361531
     57          6           0       15.171488   -0.211523   -0.205751
     58          6           0       15.471441   -1.716163   -0.257713
     59          6           0       16.195116    0.657776    0.481475
     60          6           0       17.567349    0.704365   -0.155840
     61          6           0       18.533495    1.812458    0.524121
     62          6           0       19.991000    1.703047   -0.064128
     63          6           0       20.261044    2.063395   -1.379297
     64          6           0       20.897746    2.489076    0.912112
     65          1           0       -3.907886    3.102481    2.132486
     66          1           0       -9.714890    4.528184   -0.063729
     67          1           0      -10.768422   -1.592205   -1.236603
     68          1           0       -2.843735   -1.541191    2.246773
     69          1           0       -2.240985    1.213907    1.531931
     70          1           0       -1.891630    0.488234    3.831506
     71          1           0       -3.365879    1.596370    3.668413
     72          1           0       -3.685989   -0.201692    3.874118
     73          1           0       -2.107550   -1.976600   -0.434223
     74          1           0       -2.257297   -0.080367   -0.527259
     75          1           0       -0.325998   -0.023776    1.001867
     76          1           0       -0.476000   -1.722412    1.255779
     77          1           0       -4.091920    5.642169    0.675885
     78          1           0       -5.159614    6.834649    1.534863
     79          1           0       -4.123861    5.501047    2.457334
     80          1           0       -7.247046    7.085915    1.148456
     81          1           0       -8.718770    6.141793   -1.687597
     82          1           0       -8.573245    7.891758   -1.007583
     83          1           0      -12.441872    3.823785   -0.009676
     84          1           0      -11.597356    4.290081   -1.586087
     85          1           0      -13.093155    3.019210   -1.362638
     86          1           0      -12.705275   -0.783931   -0.878739
     87          1           0      -13.504888    0.935305   -1.639668
     88          1           0      -12.602963    0.624292   -3.874735
     89          1           0      -11.762143   -0.741782   -3.505378
     90          1           0      -13.757165   -0.519665   -3.179750
     91          1           0      -10.143397   -4.351107   -0.781676
     92          1           0       -9.713859   -4.198108   -2.380497
     93          1           0       -8.724405   -5.437759   -1.065222
     94          1           0       -3.995818   -3.628525   -0.582793
     95          1           0       -2.539663   -6.699712    2.397273
     96          1           0       -2.398712   -5.009443    3.106254
     97          1           0       -3.706130   -6.096941    3.191835
     98          1           0        2.637315   -2.228902   -1.236784
     99          1           0        2.302309   -1.031681   -2.081665
    100          1           0        4.177901   -1.168842    0.645152
    101          1           0        5.096532    1.608659   -2.529131
    102          1           0        5.748910    0.199987   -3.055754
    103          1           0        3.994421    0.721606   -2.970020
    104          1           0        6.551366    1.370076   -0.287924
    105          1           0        6.165437   -0.010901    0.675651
    106          1           0        7.228126   -1.499406   -1.144713
    107          1           0        7.491007    0.254746   -2.043025
    108          1           0        8.747951    0.809829   -0.145524
    109          1           0        8.901658   -0.633412    0.858059
    110          1           0       10.176870   -0.406196   -1.926620
    111          1           0        9.159402   -2.707643   -1.733856
    112          1           0       10.922999   -2.729458   -1.229898
    113          1           0        9.823001   -2.724912    0.148897
    114          1           0       10.969457    0.819417    0.308558
    115          1           0       11.045053   -0.923665    0.979776
    116          1           0       12.908407   -1.545148   -0.710706
    117          1           0       12.693871    0.007688   -1.423458
    118          1           0       13.461476    1.127188    0.613436
    119          1           0       13.711773   -0.310204    1.355842
    120          1           0       15.451154    0.291753   -1.139956
    121          1           0       14.643734   -2.212167   -0.846494
    122          1           0       16.311074   -1.864732   -0.758333
    123          1           0       15.552248   -2.137161    0.865639
    124          1           0       15.732970    1.625076    0.416662
    125          1           0       16.340354    0.469633    1.537726
    126          1           0       18.084625   -0.294085   -0.048627
    127          1           0       17.495726    0.834149   -1.358818
    128          1           0       18.337306    2.871249    0.384341
    129          1           0       18.484967    1.588636    1.541443
    130          1           0       20.126423    0.576982    0.245180
    131          1           0       20.448795    3.262419   -1.448167
    132          1           0       21.247120    1.596346   -1.826480
    133          1           0       19.405394    1.816507   -2.289960
    134          1           0       21.169728    1.944517    1.796344
    135          1           0       21.796333    2.738350    0.427338
    136          1           0       20.638917    3.650929    1.071738
    137          1           0       -7.211861    1.811626    0.717936
    138          1           0       -7.602070   -0.251958   -0.097726
 ---------------------------------------------------------------------

 SCF Done:  E(RB3LYP) =  -2733.01398037     A.U. after   17 cycles

 Excitation energies and oscillator strengths:

 Excited State   1:      Singlet-A      2.0297 eV  610.86 nm  f=0.2501  <S**2>=0.000
     235 -> 237       -0.23017
     235 -> 238        0.23455
     236 -> 237        0.61519
     236 -> 238        0.11257
 This state for optimization and/or second-order correction.
 Total Energy, E(TD-HF/TD-KS) =  -2732.93939192
 Copying the excited state density for this state as the 1-particle RhoCI density.

 The electronic state is 1-A.
 Alpha  occ. eigenvalues --  -19.18698 -19.18510 -19.11881 -19.11830 -19.11386
 Alpha  occ. eigenvalues --  -14.37028 -14.36975 -14.32083 -14.30223 -10.31067
 Alpha  occ. eigenvalues --  -10.30985 -10.27390 -10.23821 -10.23704 -10.23135
 Alpha  occ. eigenvalues --  -10.23030 -10.22955 -10.22744 -10.22461 -10.22272
 Alpha  occ. eigenvalues --  -10.22141 -10.22116 -10.21843 -10.21661 -10.21605
 Alpha  occ. eigenvalues --  -10.21449 -10.21427 -10.21224 -10.21217 -10.20621
 Alpha  occ. eigenvalues --  -10.20578 -10.20518 -10.20500 -10.20285 -10.20213
 Alpha  occ. eigenvalues --  -10.19943 -10.19930 -10.19924 -10.19917 -10.19883
 Alpha  occ. eigenvalues --  -10.19763 -10.19575 -10.19571 -10.19529 -10.19461
 Alpha  occ. eigenvalues --  -10.19452 -10.19430 -10.19328 -10.19290 -10.19259
 Alpha  occ. eigenvalues --  -10.19242 -10.19133 -10.19036 -10.18682 -10.18472
 Alpha  occ. eigenvalues --  -10.18409 -10.18317 -10.18262 -10.18246 -10.18217
 Alpha  occ. eigenvalues --  -10.18053 -10.17912 -10.17804 -10.17111  -1.12769
 Alpha  occ. eigenvalues --   -1.12457  -1.02764  -1.02047  -1.01244  -1.00262
 Alpha  occ. eigenvalues --   -0.99900  -0.94346  -0.94157  -0.84702  -0.83669
 Alpha  occ. eigenvalues --   -0.82280  -0.81623  -0.81544  -0.81134  -0.80708
 Alpha  occ. eigenvalues --   -0.80483  -0.79693  -0.79305  -0.78558  -0.78081
 Alpha  occ. eigenvalues --   -0.77426  -0.76592  -0.75499  -0.74834  -0.74253
 Alpha  occ. eigenvalues --   -0.73872  -0.73522  -0.72471  -0.72393  -0.70290
 Alpha  occ. eigenvalues --   -0.70040  -0.69615  -0.69090  -0.68116  -0.68019
 Alpha  occ. eigenvalues --   -0.67340  -0.67104  -0.66870  -0.66826  -0.66305
 Alpha  occ. eigenvalues --   -0.63633  -0.63353  -0.62057  -0.61635  -0.61509
 Alpha  occ. eigenvalues --   -0.61156  -0.59124  -0.59034  -0.58723  -0.58142
 Alpha  occ. eigenvalues --   -0.57863  -0.56993  -0.56589  -0.55788  -0.55432
 Alpha  occ. eigenvalues --   -0.55270  -0.54678  -0.54088  -0.53254  -0.52972
 Alpha  occ. eigenvalues --   -0.52645  -0.52177  -0.52071  -0.51688  -0.51167
 Alpha  occ. eigenvalues --   -0.50482  -0.49600  -0.49421  -0.49182  -0.49006
 Alpha  occ. eigenvalues --   -0.48641  -0.48355  -0.47789  -0.47457  -0.47117
 Alpha  occ. eigenvalues --   -0.46723  -0.46422  -0.46366  -0.46033  -0.45927
 Alpha  occ. eigenvalues --   -0.45810  -0.45638  -0.45139  -0.45065  -0.44544
 Alpha  occ. eigenvalues --   -0.44326  -0.44101  -0.44014  -0.43393  -0.43334
 Alpha  occ. eigenvalues --   -0.43174  -0.42975  -0.42888  -0.42765  -0.42450
 Alpha  occ. eigenvalues --   -0.42184  -0.42068  -0.41753  -0.41405  -0.41187
 Alpha  occ. eigenvalues --   -0.41034  -0.41013  -0.40583  -0.40419  -0.40304
 Alpha  occ. eigenvalues --   -0.40167  -0.39982  -0.39859  -0.39385  -0.39295
 Alpha  occ. eigenvalues --   -0.39248  -0.39070  -0.38803  -0.38338  -0.38147
 Alpha  occ. eigenvalues --   -0.38088  -0.38005  -0.37815  -0.37736  -0.37601
 Alpha  occ. eigenvalues --   -0.37540  -0.37418  -0.37364  -0.37298  -0.37219
 Alpha  occ. eigenvalues --   -0.37107  -0.37025  -0.36676  -0.36155  -0.36066
 Alpha  occ. eigenvalues --   -0.36007  -0.35485  -0.35265  -0.34997  -0.34571
 Alpha  occ. eigenvalues --   -0.34494  -0.34418  -0.33918  -0.33621  -0.33594
 Alpha  occ. eigenvalues --   -0.33458  -0.33239  -0.32986  -0.32880  -0.32403
 Alpha  occ. eigenvalues --   -0.32185  -0.31693  -0.31434  -0.31124  -0.30787
 Alpha  occ. eigenvalues --   -0.30750  -0.30536  -0.30457  -0.30407  -0.30097
 Alpha  occ. eigenvalues --   -0.29807  -0.28808  -0.28391  -0.27847  -0.27806
 Alpha  occ. eigenvalues --   -0.27515  -0.26814  -0.26744  -0.25795  -0.25702
 Alpha  occ. eigenvalues --   -0.25633  -0.24657  -0.23900  -0.22617  -0.19715
 Alpha  occ. eigenvalues --   -0.18756
 Alpha virt. eigenvalues --   -0.10686  -0.06763  -0.03968  -0.02453  -0.00185
 Alpha virt. eigenvalues --    0.00495   0.00707   0.01444   0.02531   0.03697
 Alpha virt. eigenvalues --    0.03938   0.04095   0.04360   0.04510   0.04861

 Mulliken charges:
               1
     1  C    0.025637
     2  C   -0.009188
     3  C   -0.132256
     4  C   -0.035525
     5  N   -0.169544
     6  C   -0.060772
     7  C   -0.043706
     8  C    0.005022
     9  C   -0.038426
    10  C    0.035063
    11  C   -0.015617
    12  C    0.174725
    13  C    0.100794
    14  O   -0.268597
    15  O   -0.240454
    16  N   -0.010726
    17  C    0.052310
    18  C   -0.095315
    19  C   -0.008269
    20  C    0.011990
    21  C    0.039985
    22  C   -0.049542
    23  C   -0.109791
    24  N   -0.168514
    25  C    0.033864
    26  C   -0.165690
    27  C   -0.051702
    28  C    0.009568
    29  C    0.078366
    30  C   -0.054882
    31  C    0.014524
    32  N    0.063761
    33  C    0.037296
    34  C   -0.139294
    35  C   -0.017706
    36  C    0.060444
    37  C    0.102974
    38  C    0.037091
    39  O   -0.159877
    40  C   -0.135237
    41  C    0.201983
    42  O   -0.222267
    43  O   -0.224415
    44  C    0.218296
    45  C    0.398050
    46  C   -0.153558
    47  C   -0.107250
    48  C    0.201636
    49  C    0.075754
    50  C   -0.007173
    51  C    0.037543
    52  C   -0.112357
    53  C   -0.029012
    54  C    0.072914
    55  C    0.023455
    56  C    0.056239
    57  C   -0.091066
    58  C    0.084869
    59  C    0.087382
    60  C   -0.056556
    61  C    0.082205
    62  C   -0.115050
    63  C   -0.044082
    64  C    0.051550
    65  H   -0.040624
    66  H    0.022431
    67  H   -0.039535
    68  H    0.032195
    69  H   -0.027828
    70  H    0.028114
    71  H   -0.001536
    72  H    0.047633
    73  H    0.034565
    74  H    0.022569
    75  H    0.022172
    76  H   -0.060307
    77  H    0.027321
    78  H    0.026231
    79  H    0.046112
    80  H    0.038760
    81  H    0.058470
    82  H    0.044347
    83  H    0.028487
    84  H    0.046530
    85  H    0.006828
    86  H    0.048911
    87  H    0.016825
    88  H    0.005428
    89  H    0.019548
    90  H    0.036082
    91  H    0.003555
    92  H    0.032923
    93  H    0.073526
    94  H    0.089366
    95  H    0.016161
    96  H    0.001941
    97  H    0.003239
    98  H   -0.054079
    99  H   -0.034179
   100  H    0.031378
   101  H   -0.028624
   102  H    0.027994
   103  H   -0.034170
   104  H   -0.009683
   105  H   -0.017124
   106  H    0.010110
   107  H    0.021637
   108  H   -0.044682
   109  H    0.005745
   110  H   -0.007168
   111  H    0.041638
   112  H    0.008788
   113  H    0.008371
   114  H    0.009484
   115  H   -0.006254
   116  H   -0.002614
   117  H   -0.017372
   118  H   -0.028437
   119  H   -0.030133
   120  H   -0.019667
   121  H    0.012539
   122  H   -0.030055
   123  H    0.024290
   124  H   -0.020014
   125  H   -0.028220
   126  H    0.001630
   127  H    0.009308
   128  H   -0.014282
   129  H   -0.019695
   130  H    0.001356
   131  H    0.021124
   132  H    0.035431
   133  H    0.030264
   134  H    0.008158
   135  H   -0.028068
   136  H    0.008628
   137  H    0.187136
   138  H    0.127204
 Sum of Mulliken charges =   0.00000

 Dipole moment (field-independent basis, Debye):
    X=              3.8609    Y=              4.4396    Z=              0.5841  Tot=              5.9125
 Quadrupole moment (field-independent basis, Debye-Ang):
   XX=           -332.7960   YY=           -388.6718   ZZ=           -395.6604
   XY=            -19.5189   XZ=              8.2145   YZ=             -7.4764

 Normal termination of Gaussian 09 at Fri Aug  2 11:02:17 2019.
