 Gaussian 09, Revision D.01,
 Gaussian 09:  ES64L-G09RevD.01 24-Apr-2013

 --------------------------
 # td=(NStates=1) B3LYP/SVP
 --------------------------

 --
 TD
 --
 Symbolic Z-matrix:
 Charge =  0 Multiplicity = 1

                         Standard orientation:
 ---------------------------------------------------------------------
 Center     Atomic      Atomic             Coordinates (Angstroms)
 Number     Number       Type             X           Y           Z
 ---------------------------------------------------------------------
      1          6           0       -5.163219   -1.942558    0.434676
      2          6           0       -4.740845    2.701869    1.415127
      3          6           0       -9.231984    3.471072   -0.225601
      4          6           0       -9.818348   -1.369215   -1.064003
      5          7           0       -5.177215    0.363736    0.906942
      6          6           0       -4.545602   -0.812702    0.875210
      7          6           0       -3.102075   -0.699163    1.393402
      8          6           0       -3.048363    0.785877    1.787683
      9          6           0       -4.349957    1.320301    1.392884
     10          6           0       -2.842125    1.014986    3.269781
     11          6           0       -2.050094   -0.966266    0.257298
     12          6           0       -0.527046   -0.726867    0.728307
     13          6           0        0.425080   -1.099638   -0.430809
     14          8           0        0.049112   -1.506691   -1.506930
     15          8           0        1.580627   -0.671493   -0.168398
     16          7           0       -7.082423    2.779049    0.413020
     17          6           0       -5.999023    3.321769    1.035444
     18          6           0       -6.061984    4.736740    1.006029
     19          6           0       -7.359994    5.069722    0.519202
     20          6           0       -7.968293    3.737346    0.119581
     21          6           0       -5.052236    5.706580    1.496765
     22          6           0       -8.003684    6.456833    0.351920
     23          6           0       -8.949234    6.784224   -0.512058
     24          7           0       -9.195438    0.991653   -0.432305
     25          6           0       -9.862985    2.156739   -0.586301
     26          6           0      -11.259085    1.966213   -0.938122
     27          6           0      -11.385086    0.579453   -1.115968
     28          6           0      -10.019480    0.035228   -0.927719
     29          6           0      -12.326690    3.019969   -1.077227
     30          6           0      -12.635932    0.070692   -1.699417
     31          6           0      -12.483610   -0.328537   -3.222963
     32          7           0       -7.596132   -1.285242   -0.229266
     33          6           0       -8.639283   -2.027479   -0.706702
     34          6           0       -8.181262   -3.348679   -0.856448
     35          6           0       -6.927371   -3.470041   -0.350636
     36          6           0       -6.428599   -2.074125   -0.016983
     37          6           0       -9.016818   -4.575759   -1.180166
     38          6           0       -5.817543   -4.325913   -0.153301
     39          8           0       -5.737200   -5.531348   -0.341412
     40          6           0       -4.626108   -3.489638    0.441378
     41          6           0       -4.151632   -3.828956    1.795846
     42          8           0       -4.485577   -3.442385    2.860533
     43          8           0       -3.256061   -4.817976    1.609669
     44          6           0       -2.731081   -5.486670    2.753240
     45          6           0        2.549407   -0.976903   -1.101999
     46          6           0        3.933367   -0.613653   -0.545140
     47          6           0        5.027800   -0.126661   -1.051202
     48          6           0        5.063215    0.619603   -2.356696
     49          6           0        6.246730    0.048528   -0.118452
     50          6           0        7.473043   -0.583851   -0.873306
     51          6           0        8.776108   -0.475320   -0.003367
     52          6           0       10.119204   -0.824708   -0.662317
     53          6           0       10.010676   -2.415205   -1.105890
     54          6           0       11.357197   -0.669366    0.095198
     55          6           0       12.672180   -0.633150   -0.561868
     56          6           0       13.888038   -0.146857    0.355788
     57          6           0       15.264362   -0.225662   -0.286898
     58          6           0       15.777127   -1.602972   -0.539111
     59          6           0       16.313212    0.590425    0.446943
     60          6           0       17.655560    0.720716   -0.282279
     61          6           0       18.534771    1.812478    0.495198
     62          6           0       20.068892    1.885732    0.052399
     63          6           0       20.063302    2.365796   -1.441282
     64          6           0       20.887277    2.747686    1.010174
     65          1           0       -3.922474    3.371842    1.692892
     66          1           0      -10.013053    4.226331   -0.535723
     67          1           0      -10.602900   -1.953519   -1.315667
     68          1           0       -3.100085   -1.188161    2.479921
     69          1           0       -2.164624    1.491377    1.478315
     70          1           0       -1.881767    0.295185    3.659019
     71          1           0       -2.758903    2.032353    3.627937
     72          1           0       -3.596858    0.505142    3.874145
     73          1           0       -2.055204   -1.902424   -0.021129
     74          1           0       -2.335239   -0.311061   -0.580179
     75          1           0       -0.425124    0.273248    0.870783
     76          1           0       -0.467879   -1.376697    1.644926
     77          1           0       -4.141017    5.554167    1.015091
     78          1           0       -5.581264    6.677147    1.504580
     79          1           0       -4.653298    5.555888    2.510213
     80          1           0       -7.657062    7.290154    1.073410
     81          1           0       -9.562262    5.925932   -1.273934
     82          1           0       -9.419733    7.811872   -0.518610
     83          1           0      -12.284909    3.871034   -0.184299
     84          1           0      -11.982146    3.667998   -1.880987
     85          1           0      -13.328090    2.701973   -1.391605
     86          1           0      -12.855156   -0.838412   -0.966956
     87          1           0      -13.433972    0.775051   -1.588190
     88          1           0      -12.530563    0.491304   -3.829018
     89          1           0      -11.585923   -0.977614   -3.536018
     90          1           0      -13.414186   -0.844798   -3.635182
     91          1           0      -10.033481   -4.420615   -0.465577
     92          1           0       -9.398003   -4.653230   -2.208997
     93          1           0       -8.424377   -5.434144   -0.727458
     94          1           0       -3.743656   -3.477876   -0.198570
     95          1           0       -2.037167   -6.073296    2.427634
     96          1           0       -2.283675   -4.790137    3.394861
     97          1           0       -3.412615   -6.181883    3.306389
     98          1           0        2.566098   -2.026328   -1.350843
     99          1           0        2.427037   -0.530488   -2.132167
    100          1           0        4.123437   -1.151902    0.405226
    101          1           0        5.366947    1.593365   -2.254236
    102          1           0        5.764319    0.277844   -3.150110
    103          1           0        4.065751    0.473156   -2.994933
    104          1           0        6.388905    1.118846   -0.180505
    105          1           0        6.149692   -0.462587    0.822690
    106          1           0        7.439511   -1.576426   -1.152753
    107          1           0        7.692036   -0.029555   -1.748978
    108          1           0        8.728191    0.803099    0.164057
    109          1           0        8.435861   -0.760201    1.173821
    110          1           0       10.134758   -0.243732   -1.684539
    111          1           0        9.263134   -2.732979   -1.914307
    112          1           0       11.116617   -2.573641   -1.584401
    113          1           0       10.038578   -3.208446   -0.284130
    114          1           0       11.462594    0.512180    0.374106
    115          1           0       11.182030   -1.067148    1.053229
    116          1           0       12.958384   -1.679776   -0.891624
    117          1           0       12.809263    0.016074   -1.535296
    118          1           0       13.617238    0.827137    0.558133
    119          1           0       13.790952   -0.832533    1.202019
    120          1           0       15.259548    0.306266   -1.329609
    121          1           0       15.012835   -2.150412   -1.117989
    122          1           0       16.650362   -1.639777   -1.156614
    123          1           0       15.940962   -2.121414    0.445416
    124          1           0       15.704622    1.602948    0.795319
    125          1           0       16.572096    0.104518    1.555063
    126          1           0       18.050462   -0.213013   -0.345705
    127          1           0       17.704560    0.996917   -1.416162
    128          1           0       18.136616    2.831379    0.528767
    129          1           0       18.631211    1.263923    1.544081
    130          1           0       20.422100    0.914346   -0.055601
    131          1           0       19.681941    3.341084   -1.525772
    132          1           0       21.124320    2.449910   -1.760768
    133          1           0       19.578582    1.574875   -2.092619
    134          1           0       20.985000    2.406266    1.978212
    135          1           0       21.813415    2.861216    0.748679
    136          1           0       20.420006    3.708977    0.987954
    137          1           0       -7.364784    1.876653    0.347234
    138          1           0       -7.406519   -0.300362   -0.174243
 ---------------------------------------------------------------------

 SCF Done:  E(RB3LYP) =  -2733.07578984     A.U. after   16 cycles

 Excitation energies and oscillator strengths:

 Excited State   1:      Singlet-A      2.0598 eV  601.93 nm  f=0.1443  <S**2>=0.000
     235 -> 237       -0.15182
     235 -> 238       -0.32661
     236 -> 237        0.59623
     236 -> 238       -0.10474
 This state for optimization and/or second-order correction.
 Total Energy, E(TD-HF/TD-KS) =  -2733.00009396
 Copying the excited state density for this state as the 1-particle RhoCI density.

 The electronic state is 1-A.
 Alpha  occ. eigenvalues --  -19.19853 -19.16961 -19.12424 -19.12053 -19.11522
 Alpha  occ. eigenvalues --  -14.36794 -14.36327 -14.31886 -14.29671 -10.31478
 Alpha  occ. eigenvalues --  -10.30944 -10.27428 -10.25399 -10.24499 -10.23481
 Alpha  occ. eigenvalues --  -10.23158 -10.22992 -10.22919 -10.22642 -10.22622
 Alpha  occ. eigenvalues --  -10.22003 -10.21930 -10.21513 -10.21506 -10.21362
 Alpha  occ. eigenvalues --  -10.21350 -10.21252 -10.21166 -10.21089 -10.20892
 Alpha  occ. eigenvalues --  -10.20825 -10.20713 -10.20500 -10.20150 -10.20122
 Alpha  occ. eigenvalues --  -10.20075 -10.20014 -10.20012 -10.20007 -10.19974
 Alpha  occ. eigenvalues --  -10.19957 -10.19754 -10.19719 -10.19704 -10.19636
 Alpha  occ. eigenvalues --  -10.19583 -10.19548 -10.19522 -10.19062 -10.19008
 Alpha  occ. eigenvalues --  -10.18979 -10.18880 -10.18580 -10.18574 -10.18515
 Alpha  occ. eigenvalues --  -10.18341 -10.18208 -10.18139 -10.18008 -10.17906
 Alpha  occ. eigenvalues --  -10.17820 -10.17528 -10.17467 -10.15583  -1.14824
 Alpha  occ. eigenvalues --   -1.09927  -1.01767  -1.01577  -1.01434  -0.99775
 Alpha  occ. eigenvalues --   -0.97135  -0.95157  -0.93186  -0.84322  -0.83110
 Alpha  occ. eigenvalues --   -0.82440  -0.82299  -0.81220  -0.80945  -0.80677
 Alpha  occ. eigenvalues --   -0.79975  -0.79408  -0.79278  -0.78979  -0.78382
 Alpha  occ. eigenvalues --   -0.77380  -0.76361  -0.76031  -0.75144  -0.74262
 Alpha  occ. eigenvalues --   -0.73756  -0.73585  -0.72105  -0.71912  -0.71723
 Alpha  occ. eigenvalues --   -0.70157  -0.69406  -0.68810  -0.68713  -0.68345
 Alpha  occ. eigenvalues --   -0.67559  -0.67193  -0.66145  -0.65615  -0.65423
 Alpha  occ. eigenvalues --   -0.64484  -0.63051  -0.62592  -0.62313  -0.62032
 Alpha  occ. eigenvalues --   -0.61219  -0.59888  -0.58937  -0.58700  -0.58062
 Alpha  occ. eigenvalues --   -0.57484  -0.56980  -0.56654  -0.55782  -0.55558
 Alpha  occ. eigenvalues --   -0.55286  -0.54915  -0.54014  -0.53596  -0.53407
 Alpha  occ. eigenvalues --   -0.52665  -0.52334  -0.52117  -0.51613  -0.50922
 Alpha  occ. eigenvalues --   -0.50465  -0.49615  -0.49232  -0.48924  -0.48903
 Alpha  occ. eigenvalues --   -0.48775  -0.48050  -0.47863  -0.47490  -0.47132
 Alpha  occ. eigenvalues --   -0.46929  -0.46757  -0.46412  -0.45929  -0.45867
 Alpha  occ. eigenvalues --   -0.45692  -0.45365  -0.45311  -0.44868  -0.44733
 Alpha  occ. eigenvalues --   -0.44610  -0.44551  -0.44277  -0.43921  -0.43863
 Alpha  occ. eigenvalues --   -0.43420  -0.43350  -0.43073  -0.42930  -0.42795
 Alpha  occ. eigenvalues --   -0.42666  -0.42402  -0.42215  -0.41870  -0.41350
 Alpha  occ. eigenvalues --   -0.41132  -0.40760  -0.40692  -0.40338  -0.40231
 Alpha  occ. eigenvalues --   -0.40159  -0.39728  -0.39615  -0.39564  -0.39412
 Alpha  occ. eigenvalues --   -0.39325  -0.39224  -0.38924  -0.38808  -0.38738
 Alpha  occ. eigenvalues --   -0.38481  -0.38327  -0.38141  -0.37851  -0.37791
 Alpha  occ. eigenvalues --   -0.37599  -0.37270  -0.37198  -0.36831  -0.36696
 Alpha  occ. eigenvalues --   -0.36468  -0.36390  -0.36231  -0.36007  -0.35942
 Alpha  occ. eigenvalues --   -0.35566  -0.35416  -0.35363  -0.35301  -0.35020
 Alpha  occ. eigenvalues --   -0.34789  -0.34507  -0.34219  -0.34140  -0.33604
 Alpha  occ. eigenvalues --   -0.33492  -0.33195  -0.33139  -0.32862  -0.32752
 Alpha  occ. eigenvalues --   -0.32386  -0.32010  -0.31766  -0.31724  -0.31277
 Alpha  occ. eigenvalues --   -0.30939  -0.30875  -0.30550  -0.30245  -0.29731
 Alpha  occ. eigenvalues --   -0.29546  -0.28995  -0.28426  -0.28123  -0.27943
 Alpha  occ. eigenvalues --   -0.27296  -0.26899  -0.26700  -0.26319  -0.26028
 Alpha  occ. eigenvalues --   -0.25685  -0.24813  -0.24525  -0.21633  -0.19915
 Alpha  occ. eigenvalues --   -0.18645
 Alpha virt. eigenvalues --   -0.09883  -0.08248  -0.04649  -0.01370   0.00229
 Alpha virt. eigenvalues --    0.00361   0.00976   0.01123   0.02446   0.03225
 Alpha virt. eigenvalues --    0.03392   0.03809   0.04564   0.04806   0.04987

 Mulliken charges:
               1
     1  C    0.038576
     2  C   -0.094986
     3  C   -0.063067
     4  C   -0.038152
     5  N   -0.153773
     6  C   -0.169941
     7  C    0.015126
     8  C   -0.095797
     9  C    0.023073
    10  C   -0.002343
    11  C    0.117800
    12  C    0.051998
    13  C    0.134543
    14  O   -0.246359
    15  O   -0.191411
    16  N    0.058668
    17  C    0.141238
    18  C   -0.175749
    19  C    0.002980
    20  C    0.084172
    21  C    0.169886
    22  C   -0.020861
    23  C   -0.106197
    24  N   -0.232170
    25  C   -0.027150
    26  C   -0.111567
    27  C   -0.132701
    28  C    0.081873
    29  C    0.082661
    30  C    0.064420
    31  C    0.019153
    32  N   -0.067693
    33  C    0.117466
    34  C   -0.142632
    35  C    0.035318
    36  C    0.039743
    37  C    0.027803
    38  C    0.073017
    39  O   -0.179086
    40  C   -0.010292
    41  C    0.189148
    42  O   -0.187787
    43  O   -0.316177
    44  C    0.277263
    45  C    0.259650
    46  C   -0.114994
    47  C   -0.120520
    48  C    0.058594
    49  C    0.136812
    50  C    0.030786
    51  C   -0.082932
    52  C   -0.020157
    53  C   -0.082212
    54  C    0.069600
    55  C   -0.031448
    56  C    0.094394
    57  C   -0.086985
    58  C    0.057699
    59  C   -0.045331
    60  C    0.045897
    61  C   -0.011410
    62  C   -0.086517
    63  C    0.016950
    64  C    0.179473
    65  H   -0.041571
    66  H   -0.021639
    67  H   -0.070852
    68  H    0.042702
    69  H    0.022590
    70  H    0.017653
    71  H    0.020585
    72  H    0.011723
    73  H   -0.033629
    74  H    0.021629
    75  H   -0.000244
    76  H    0.042330
    77  H    0.004346
    78  H    0.020301
    79  H    0.007818
    80  H    0.031874
    81  H    0.067208
    82  H    0.038367
    83  H    0.037680
    84  H    0.007735
    85  H    0.015125
    86  H    0.016016
    87  H   -0.011123
    88  H   -0.016291
    89  H    0.031711
    90  H    0.003564
    91  H    0.039065
    92  H    0.039317
    93  H    0.062086
    94  H    0.048540
    95  H   -0.032857
    96  H    0.002297
    97  H    0.030327
    98  H    0.015818
    99  H    0.014112
   100  H   -0.014383
   101  H   -0.001035
   102  H    0.015241
   103  H    0.021418
   104  H    0.007995
   105  H    0.001869
   106  H   -0.017828
   107  H   -0.017609
   108  H   -0.015302
   109  H    0.018210
   110  H    0.008893
   111  H    0.039060
   112  H    0.013429
   113  H    0.022874
   114  H   -0.006124
   115  H   -0.013031
   116  H   -0.000649
   117  H    0.011514
   118  H   -0.025938
   119  H   -0.005940
   120  H   -0.007068
   121  H   -0.002399
   122  H    0.002787
   123  H    0.006078
   124  H    0.008345
   125  H    0.004723
   126  H   -0.028479
   127  H    0.003462
   128  H    0.009444
   129  H    0.007344
   130  H   -0.035761
   131  H   -0.008457
   132  H   -0.004231
   133  H    0.023851
   134  H   -0.018258
   135  H   -0.052057
   136  H   -0.013182
   137  H    0.085992
   138  H    0.143507
 Sum of Mulliken charges =   0.00000

 Dipole moment (field-independent basis, Debye):
    X=              4.3708    Y=              4.6843    Z=              0.4380  Tot=              6.4217
 Quadrupole moment (field-independent basis, Debye-Ang):
   XX=           -349.8548   YY=           -384.2660   ZZ=           -394.3012
   XY=            -34.1229   XZ=              9.3406   YZ=             -3.8703

 Normal termination of Gaussian 09 at Mon Jul 29 07:31:04 2019.
