 Gaussian 09, Revision D.01,
 Gaussian 09:  ES64L-G09RevD.01 24-Apr-2013

 --------------------------
 # td=(NStates=1) B3LYP/SVP
 --------------------------

 --
 TD
 --
 Symbolic Z-matrix:
 Charge =  0 Multiplicity = 1

                         Standard orientation:
 ---------------------------------------------------------------------
 Center     Atomic      Atomic             Coordinates (Angstroms)
 Number     Number       Type             X           Y           Z
 ---------------------------------------------------------------------
      1          6           0       -4.976385   -1.936911    0.458095
      2          6           0       -4.962168    2.869540    1.305099
      3          6           0       -9.492210    3.194642   -0.281554
      4          6           0       -9.834057   -1.649899   -0.815747
      5          7           0       -5.133821    0.471078    0.724852
      6          6           0       -4.353880   -0.665730    0.748343
      7          6           0       -2.967609   -0.559103    1.198146
      8          6           0       -2.963704    1.044577    1.718531
      9          6           0       -4.393148    1.500220    1.205767
     10          6           0       -2.932182    1.182153    3.101469
     11          6           0       -2.085780   -0.688371    0.048512
     12          6           0       -0.519659   -0.461318    0.375334
     13          6           0        0.539244   -0.975949   -0.680963
     14          8           0        0.162107   -1.611547   -1.624090
     15          8           0        1.755917   -0.445285   -0.302702
     16          7           0       -7.149579    2.728500    0.417556
     17          6           0       -6.137349    3.428119    0.881257
     18          6           0       -6.473416    4.848776    0.904984
     19          6           0       -7.743493    4.909483    0.496176
     20          6           0       -8.239511    3.513143    0.137367
     21          6           0       -5.598661    5.802049    1.511649
     22          6           0       -8.515130    6.219662    0.476784
     23          6           0       -9.515059    6.509756   -0.494059
     24          7           0       -9.248644    0.740394   -0.437177
     25          6           0       -9.986621    1.897467   -0.496194
     26          6           0      -11.466384    1.545871   -0.911852
     27          6           0      -11.496080    0.265720   -1.108205
     28          6           0      -10.102644   -0.285320   -0.844262
     29          6           0      -12.555406    2.581112   -0.977499
     30          6           0      -12.711811   -0.587423   -1.464999
     31          6           0      -12.645655   -0.680560   -3.103790
     32          7           0       -7.427128   -1.268534   -0.274406
     33          6           0       -8.534543   -2.120171   -0.545617
     34          6           0       -8.018255   -3.461079   -0.528312
     35          6           0       -6.652679   -3.369817   -0.220531
     36          6           0       -6.350644   -2.077437   -0.092186
     37          6           0       -8.935264   -4.618913   -0.910587
     38          6           0       -5.595955   -4.320829   -0.000109
     39          8           0       -5.491242   -5.494490    0.018549
     40          6           0       -4.342533   -3.319514    0.461655
     41          6           0       -3.859068   -3.741988    1.850518
     42          8           0       -4.159043   -3.207142    2.886141
     43          8           0       -2.960310   -4.698848    1.673654
     44          6           0       -2.504929   -5.366328    2.908424
     45          6           0        2.743244   -0.826385   -1.307693
     46          6           0        4.050892   -0.559865   -0.702155
     47          6           0        5.033031    0.314304   -1.133019
     48          6           0        4.840451    1.181642   -2.476487
     49          6           0        6.339554    0.471920   -0.412355
     50          6           0        7.578083   -0.264918   -1.037832
     51          6           0        8.796838   -0.009424   -0.205205
     52          6           0       10.105141   -0.749539   -0.852207
     53          6           0        9.913934   -2.209398   -0.901132
     54          6           0       11.393869   -0.186225   -0.035893
     55          6           0       12.736232   -0.480947   -0.728091
     56          6           0       13.906075   -0.068945    0.220272
     57          6           0       15.251759   -0.332826   -0.311096
     58          6           0       15.751445   -1.784687   -0.091981
     59          6           0       16.255251    0.645641    0.402104
     60          6           0       17.752913    0.563402   -0.107843
     61          6           0       18.604089    1.682924    0.675799
     62          6           0       20.111003    1.501697    0.216334
     63          6           0       20.399965    1.784174   -1.259680
     64          6           0       20.900345    2.455361    1.158578
     65          1           0       -4.169238    3.487455    1.713481
     66          1           0      -10.125116    3.962803   -0.450330
     67          1           0      -10.572229   -2.448617   -1.445032
     68          1           0       -2.729028   -1.086713    2.145680
     69          1           0       -2.173787    1.711932    1.290265
     70          1           0       -2.099270    0.761243    3.320383
     71          1           0       -2.808079    2.211507    3.661514
     72          1           0       -3.814260    0.691322    3.823067
     73          1           0       -2.097608   -1.603966   -0.661424
     74          1           0       -2.288012    0.052137   -0.582662
     75          1           0       -0.302631    0.714888    0.638300
     76          1           0       -0.141462   -1.093248    1.305621
     77          1           0       -4.589630    6.014946    0.990468
     78          1           0       -6.218881    6.854702    1.317227
     79          1           0       -5.162668    5.688716    2.536350
     80          1           0       -8.342130    7.002671    1.278632
     81          1           0       -9.665983    5.647186   -1.308982
     82          1           0       -9.696185    7.542695   -0.719142
     83          1           0      -12.825238    2.992459   -0.020561
     84          1           0      -12.270984    3.363303   -1.836599
     85          1           0      -13.479837    2.216108   -1.254664
     86          1           0      -12.761774   -1.523658   -1.115303
     87          1           0      -13.539333   -0.097381   -1.067021
     88          1           0      -12.540441    0.429080   -3.580000
     89          1           0      -11.750217   -1.366287   -3.265142
     90          1           0      -13.598798   -1.104557   -3.483500
     91          1           0      -10.062672   -4.511505   -0.487211
     92          1           0       -9.157719   -4.894010   -2.107022
     93          1           0       -8.309091   -5.463218   -0.523822
     94          1           0       -3.487848   -3.444764   -0.235112
     95          1           0       -1.690602   -6.103374    2.623201
     96          1           0       -2.181238   -4.503713    3.714142
     97          1           0       -3.406194   -6.084460    3.243535
     98          1           0        2.796425   -2.059666   -1.459936
     99          1           0        2.545052   -0.194616   -2.338424
    100          1           0        4.289394   -1.001577    0.128568
    101          1           0        5.012285    2.207973   -2.678809
    102          1           0        5.432381    0.593561   -3.257661
    103          1           0        3.985579    1.099183   -3.245199
    104          1           0        6.730822    1.564249   -0.269077
    105          1           0        6.020142   -0.043134    0.479602
    106          1           0        7.345409   -1.303053   -0.978713
    107          1           0        7.716183    0.105817   -2.135038
    108          1           0        9.107253    1.044470   -0.176204
    109          1           0        8.606311   -0.516368    0.847519
    110          1           0       10.042856   -0.278169   -1.930615
    111          1           0        8.979335   -2.764651   -1.243330
    112          1           0       10.746078   -2.596165   -1.602038
    113          1           0       10.211823   -2.756474    0.069782
    114          1           0       11.185794    0.859381    0.036547
    115          1           0       11.366427   -0.531795    1.012577
    116          1           0       12.799752   -1.489697   -0.796056
    117          1           0       12.998079   -0.116865   -1.678320
    118          1           0       13.660050    1.096991    0.298137
    119          1           0       13.804158   -0.390093    1.319079
    120          1           0       15.251555    0.037542   -1.277022
    121          1           0       15.093251   -2.545782   -0.673984
    122          1           0       16.824137   -2.012201   -0.477932
    123          1           0       15.701547   -2.213323    0.981665
    124          1           0       15.883522    1.744803    0.084063
    125          1           0       16.179957    0.350165    1.439304
    126          1           0       18.238995   -0.469777    0.032332
    127          1           0       17.777275    0.659259   -1.275671
    128          1           0       18.088524    2.707867    0.575155
    129          1           0       18.429631    1.436385    1.805281
    130          1           0       20.142499    0.535900    0.456110
    131          1           0       20.096160    2.845813   -1.559022
    132          1           0       21.400723    1.645088   -1.634481
    133          1           0       19.784983    1.032287   -1.760967
    134          1           0       20.953138    1.902817    2.198351
    135          1           0       21.907307    2.628530    0.613319
    136          1           0       20.653808    3.512703    1.422342
    137          1           0       -7.042449    1.566086    0.556931
    138          1           0       -7.682113   -0.271930   -0.127063
 ---------------------------------------------------------------------

 SCF Done:  E(RB3LYP) =  -2733.01310817     A.U. after   16 cycles

 Excitation energies and oscillator strengths:

 Excited State   1:      Singlet-A      2.1021 eV  589.80 nm  f=0.1757  <S**2>=0.000
     235 -> 238       -0.30143
     236 -> 237        0.63635
 This state for optimization and/or second-order correction.
 Total Energy, E(TD-HF/TD-KS) =  -2732.93585561
 Copying the excited state density for this state as the 1-particle RhoCI density.

 The electronic state is 1-A.
 Alpha  occ. eigenvalues --  -19.19049 -19.17587 -19.13805 -19.12625 -19.11480
 Alpha  occ. eigenvalues --  -14.37605 -14.36117 -14.32724 -14.30893 -10.32228
 Alpha  occ. eigenvalues --  -10.30528 -10.27608 -10.26922 -10.26638 -10.24490
 Alpha  occ. eigenvalues --  -10.23587 -10.23134 -10.22730 -10.22548 -10.22464
 Alpha  occ. eigenvalues --  -10.22379 -10.21967 -10.21883 -10.21759 -10.21576
 Alpha  occ. eigenvalues --  -10.21371 -10.21359 -10.21095 -10.21007 -10.20949
 Alpha  occ. eigenvalues --  -10.20916 -10.20541 -10.20442 -10.20253 -10.20163
 Alpha  occ. eigenvalues --  -10.20094 -10.20075 -10.19826 -10.19780 -10.19738
 Alpha  occ. eigenvalues --  -10.19719 -10.19485 -10.19404 -10.19347 -10.19071
 Alpha  occ. eigenvalues --  -10.19046 -10.19033 -10.19008 -10.18988 -10.18844
 Alpha  occ. eigenvalues --  -10.18828 -10.18706 -10.18624 -10.18577 -10.18560
 Alpha  occ. eigenvalues --  -10.18488 -10.18304 -10.18261 -10.18147 -10.18146
 Alpha  occ. eigenvalues --  -10.18000 -10.17991 -10.17699 -10.17084  -1.09163
 Alpha  occ. eigenvalues --   -1.09041  -1.04644  -1.02498  -1.00164  -0.99170
 Alpha  occ. eigenvalues --   -0.97120  -0.93491  -0.92044  -0.83632  -0.82262
 Alpha  occ. eigenvalues --   -0.82232  -0.81762  -0.81634  -0.81035  -0.80087
 Alpha  occ. eigenvalues --   -0.79509  -0.79465  -0.79300  -0.78522  -0.77200
 Alpha  occ. eigenvalues --   -0.76711  -0.75036  -0.74940  -0.74497  -0.73846
 Alpha  occ. eigenvalues --   -0.72752  -0.72387  -0.71634  -0.71138  -0.69863
 Alpha  occ. eigenvalues --   -0.69358  -0.68579  -0.68282  -0.67546  -0.67129
 Alpha  occ. eigenvalues --   -0.66612  -0.66519  -0.65377  -0.64944  -0.64364
 Alpha  occ. eigenvalues --   -0.63175  -0.62259  -0.61972  -0.61730  -0.61367
 Alpha  occ. eigenvalues --   -0.60725  -0.58368  -0.57926  -0.57718  -0.57296
 Alpha  occ. eigenvalues --   -0.56801  -0.55960  -0.55472  -0.55314  -0.55074
 Alpha  occ. eigenvalues --   -0.54440  -0.54341  -0.53887  -0.53151  -0.52908
 Alpha  occ. eigenvalues --   -0.52247  -0.51617  -0.50960  -0.50108  -0.49918
 Alpha  occ. eigenvalues --   -0.49316  -0.49175  -0.48825  -0.48188  -0.48151
 Alpha  occ. eigenvalues --   -0.48065  -0.47573  -0.47381  -0.47264  -0.46950
 Alpha  occ. eigenvalues --   -0.46473  -0.46270  -0.45991  -0.45518  -0.45497
 Alpha  occ. eigenvalues --   -0.45327  -0.45021  -0.44709  -0.44410  -0.44170
 Alpha  occ. eigenvalues --   -0.44088  -0.43965  -0.43784  -0.43685  -0.43412
 Alpha  occ. eigenvalues --   -0.42933  -0.42776  -0.42559  -0.42484  -0.42308
 Alpha  occ. eigenvalues --   -0.41966  -0.41792  -0.41446  -0.41381  -0.41018
 Alpha  occ. eigenvalues --   -0.40822  -0.40666  -0.40404  -0.40374  -0.40239
 Alpha  occ. eigenvalues --   -0.39775  -0.39662  -0.39592  -0.39454  -0.38842
 Alpha  occ. eigenvalues --   -0.38566  -0.38489  -0.38358  -0.38212  -0.38151
 Alpha  occ. eigenvalues --   -0.37787  -0.37497  -0.37437  -0.37333  -0.36923
 Alpha  occ. eigenvalues --   -0.36900  -0.36883  -0.36742  -0.36467  -0.36391
 Alpha  occ. eigenvalues --   -0.36211  -0.36164  -0.35812  -0.35641  -0.35475
 Alpha  occ. eigenvalues --   -0.35301  -0.35162  -0.35002  -0.34887  -0.34745
 Alpha  occ. eigenvalues --   -0.34688  -0.34636  -0.34231  -0.34221  -0.34132
 Alpha  occ. eigenvalues --   -0.33725  -0.33430  -0.33380  -0.33270  -0.32941
 Alpha  occ. eigenvalues --   -0.32701  -0.32612  -0.31818  -0.31809  -0.31492
 Alpha  occ. eigenvalues --   -0.31383  -0.30830  -0.30330  -0.30276  -0.29798
 Alpha  occ. eigenvalues --   -0.29620  -0.28704  -0.28199  -0.27987  -0.27307
 Alpha  occ. eigenvalues --   -0.27199  -0.26843  -0.26554  -0.25846  -0.25266
 Alpha  occ. eigenvalues --   -0.24301  -0.24205  -0.24176  -0.23568  -0.19448
 Alpha  occ. eigenvalues --   -0.18460
 Alpha virt. eigenvalues --   -0.09619  -0.06971  -0.04205  -0.02673  -0.00917
 Alpha virt. eigenvalues --   -0.00050   0.00274   0.01327   0.02538   0.03551
 Alpha virt. eigenvalues --    0.03799   0.03984   0.04219   0.04266   0.04786

 Mulliken charges:
               1
     1  C   -0.001867
     2  C   -0.072470
     3  C   -0.058541
     4  C   -0.133304
     5  N   -0.188277
     6  C   -0.057023
     7  C    0.019558
     8  C   -0.060950
     9  C   -0.037351
    10  C    0.074158
    11  C    0.127104
    12  C   -0.087456
    13  C    0.198857
    14  O   -0.202122
    15  O   -0.317230
    16  N   -0.087001
    17  C    0.103898
    18  C   -0.043972
    19  C   -0.003871
    20  C    0.159902
    21  C    0.008431
    22  C   -0.090261
    23  C   -0.060504
    24  N   -0.273639
    25  C    0.055113
    26  C   -0.139761
    27  C   -0.109378
    28  C    0.075522
    29  C    0.128819
    30  C    0.164912
    31  C   -0.063229
    32  N   -0.073821
    33  C    0.053192
    34  C   -0.097681
    35  C   -0.028840
    36  C    0.127155
    37  C   -0.034645
    38  C    0.077585
    39  O   -0.121890
    40  C   -0.119362
    41  C    0.203478
    42  O   -0.223864
    43  O   -0.292875
    44  C    0.096510
    45  C    0.213650
    46  C   -0.024951
    47  C   -0.097291
    48  C   -0.008652
    49  C    0.072250
    50  C    0.026659
    51  C   -0.008308
    52  C   -0.112894
    53  C   -0.001336
    54  C    0.064924
    55  C    0.168382
    56  C   -0.081570
    57  C    0.048653
    58  C   -0.026632
    59  C   -0.015448
    60  C   -0.056901
    61  C   -0.036541
    62  C   -0.004774
    63  C    0.040416
    64  C   -0.006417
    65  H   -0.045087
    66  H   -0.086754
    67  H    0.054407
    68  H    0.028012
    69  H    0.009710
    70  H   -0.045687
    71  H    0.018540
    72  H    0.045436
    73  H    0.047205
    74  H   -0.036627
    75  H    0.052417
    76  H    0.038271
    77  H    0.025702
    78  H    0.028782
    79  H    0.043676
    80  H    0.043481
    81  H    0.060131
    82  H    0.033171
    83  H    0.019921
    84  H    0.037818
    85  H   -0.029288
    86  H   -0.034779
    87  H   -0.020832
    88  H    0.042384
    89  H    0.034695
    90  H    0.021634
    91  H    0.047686
    92  H    0.050084
    93  H    0.046382
    94  H    0.054320
    95  H    0.049515
    96  H    0.076819
    97  H    0.061170
    98  H    0.058099
    99  H    0.060854
   100  H   -0.079561
   101  H    0.015067
   102  H    0.016133
   103  H   -0.004989
   104  H    0.021031
   105  H   -0.009400
   106  H   -0.014189
   107  H    0.014702
   108  H   -0.001533
   109  H    0.006605
   110  H    0.001724
   111  H    0.031834
   112  H    0.010704
   113  H    0.007803
   114  H   -0.023913
   115  H   -0.002063
   116  H   -0.050934
   117  H   -0.022692
   118  H   -0.007965
   119  H   -0.004248
   120  H   -0.046859
   121  H    0.011497
   122  H    0.027464
   123  H    0.020235
   124  H    0.017356
   125  H   -0.006377
   126  H    0.009612
   127  H    0.014989
   128  H    0.007807
   129  H    0.009728
   130  H   -0.042940
   131  H    0.018679
   132  H    0.009236
   133  H   -0.001526
   134  H    0.015771
   135  H    0.002223
   136  H    0.018080
   137  H    0.233763
   138  H    0.139651
 Sum of Mulliken charges =   0.00000

 Dipole moment (field-independent basis, Debye):
    X=              3.3603    Y=              4.3458    Z=              0.3625  Tot=              5.5054
 Quadrupole moment (field-independent basis, Debye-Ang):
   XX=           -355.6535   YY=           -381.7475   ZZ=           -394.0033
   XY=            -33.5034   XZ=              1.5755   YZ=             -3.4179

 Normal termination of Gaussian 09 at Sun Jul 28 18:13:04 2019.
