 Gaussian 09, Revision D.01,
 Gaussian 09:  ES64L-G09RevD.01 24-Apr-2013

 --------------------------
 # td=(NStates=1) B3LYP/SVP
 --------------------------

 --
 TD
 --
 Symbolic Z-matrix:
 Charge =  0 Multiplicity = 1

                         Standard orientation:
 ---------------------------------------------------------------------
 Center     Atomic      Atomic             Coordinates (Angstroms)
 Number     Number       Type             X           Y           Z
 ---------------------------------------------------------------------
      1          6           0       -5.145167   -1.944697    0.542394
      2          6           0       -4.644059    2.763148    1.498865
      3          6           0       -9.195288    3.359101   -0.241511
      4          6           0       -9.758782   -1.293639   -1.179424
      5          7           0       -5.089289    0.369607    0.835714
      6          6           0       -4.458375   -0.724155    0.832080
      7          6           0       -2.972798   -0.653541    1.273687
      8          6           0       -2.989378    0.887482    1.857243
      9          6           0       -4.301339    1.418441    1.288193
     10          6           0       -2.893829    0.864686    3.294040
     11          6           0       -2.013523   -0.859635    0.157789
     12          6           0       -0.581147   -0.864182    0.564032
     13          6           0        0.401416   -1.147939   -0.552079
     14          8           0        0.066236   -1.190532   -1.801054
     15          8           0        1.616703   -0.964808   -0.220629
     16          7           0       -6.959391    2.813194    0.525082
     17          6           0       -5.853905    3.387728    1.063356
     18          6           0       -6.095732    4.859423    1.164509
     19          6           0       -7.499487    4.948260    0.647960
     20          6           0       -7.941286    3.667283    0.250933
     21          6           0       -5.037337    5.766318    1.547779
     22          6           0       -8.102180    6.280304    0.483296
     23          6           0       -9.023951    6.705190   -0.407652
     24          7           0       -9.148903    0.880279   -0.587814
     25          6           0       -9.722338    2.154032   -0.505735
     26          6           0      -11.153986    1.940545   -0.993968
     27          6           0      -11.359433    0.634601   -1.289178
     28          6           0      -10.142901    0.012898   -1.016773
     29          6           0      -12.147998    3.062701   -1.291942
     30          6           0      -12.518444   -0.098543   -1.890799
     31          6           0      -12.481776   -0.499558   -3.367913
     32          7           0       -7.563473   -1.210774   -0.190559
     33          6           0       -8.593787   -1.980536   -0.663845
     34          6           0       -8.198402   -3.268762   -0.706102
     35          6           0       -6.888743   -3.304985   -0.274042
     36          6           0       -6.465329   -2.053169    0.043792
     37          6           0       -9.111831   -4.386600   -1.063808
     38          6           0       -5.832205   -4.271414    0.130946
     39          8           0       -5.702418   -5.467135    0.042561
     40          6           0       -4.624590   -3.345147    0.583130
     41          6           0       -4.007715   -3.858541    1.860325
     42          8           0       -4.414971   -3.397771    2.974401
     43          8           0       -3.042256   -4.781589    1.670208
     44          6           0       -2.725507   -5.483389    2.874345
     45          6           0        2.589933   -1.114299   -1.197875
     46          6           0        3.941536   -0.804753   -0.483135
     47          6           0        5.016773   -0.171744   -0.979335
     48          6           0        4.902131    0.449031   -2.448258
     49          6           0        6.197327   -0.014886   -0.328758
     50          6           0        7.457844   -0.536086   -0.981036
     51          6           0        8.729579   -0.193617   -0.170751
     52          6           0       10.074258   -0.896909   -0.859204
     53          6           0        9.880489   -2.407613   -1.040032
     54          6           0       11.243687   -0.549031    0.069959
     55          6           0       12.614793   -0.727743   -0.621429
     56          6           0       13.724469   -0.091619    0.156103
     57          6           0       15.276860   -0.342078   -0.393481
     58          6           0       15.600414   -1.734981   -0.433939
     59          6           0       16.138675    0.664717    0.326579
     60          6           0       17.655686    0.649891   -0.127193
     61          6           0       18.455209    1.702758    0.551789
     62          6           0       20.047483    1.914804    0.073346
     63          6           0       20.029003    2.580863   -1.343928
     64          6           0       20.775887    2.819737    1.168892
     65          1           0       -3.846083    3.418480    1.731972
     66          1           0       -9.813573    4.247841   -0.339023
     67          1           0      -10.550764   -2.110794   -1.491929
     68          1           0       -2.956661   -1.193536    2.202275
     69          1           0       -2.404798    1.504322    1.367408
     70          1           0       -1.983150    0.271121    3.642665
     71          1           0       -2.783723    1.840582    3.634490
     72          1           0       -3.679140    0.524510    3.896682
     73          1           0       -2.229604   -1.807505   -0.534325
     74          1           0       -2.353861   -0.206866   -0.729003
     75          1           0       -0.377561   -0.051970    1.153314
     76          1           0       -0.416467   -1.742017    1.299553
     77          1           0       -4.118982    5.676995    0.927100
     78          1           0       -5.284848    6.738889    1.722886
     79          1           0       -4.980147    5.579549    2.567939
     80          1           0       -7.874570    7.025664    1.318290
     81          1           0       -9.247370    6.167503   -1.254197
     82          1           0       -9.313470    7.814053   -0.336000
     83          1           0      -12.283820    4.065186   -0.464181
     84          1           0      -11.967438    3.605925   -2.135498
     85          1           0      -13.349690    2.735446   -1.255679
     86          1           0      -12.716192   -1.109164   -1.246231
     87          1           0      -13.243266    0.461717   -1.723679
     88          1           0      -12.431770    0.458902   -3.704889
     89          1           0      -11.558059   -1.165334   -3.623880
     90          1           0      -13.537500   -0.776237   -3.518555
     91          1           0      -10.120759   -4.432731   -0.683605
     92          1           0       -9.031981   -4.408864   -2.296632
     93          1           0       -8.700580   -5.353570   -0.869142
     94          1           0       -3.718428   -3.537379   -0.094902
     95          1           0       -1.580668   -5.704902    2.496230
     96          1           0       -2.515633   -4.741374    3.842631
     97          1           0       -3.491861   -6.273313    3.330389
     98          1           0        2.551389   -2.138748   -1.763268
     99          1           0        2.313427   -0.420682   -2.011846
    100          1           0        3.895879   -1.240334    0.421620
    101          1           0        5.531957    1.526994   -2.485211
    102          1           0        5.381542   -0.215388   -3.095387
    103          1           0        3.901914    0.509836   -2.668605
    104          1           0        6.505903    1.124074    0.023074
    105          1           0        6.236348   -0.738318    0.589198
    106          1           0        7.351452   -1.635244   -1.063244
    107          1           0        7.782251   -0.432098   -2.085057
    108          1           0        9.007213    0.895794   -0.270632
    109          1           0        8.724136   -0.589190    0.980554
    110          1           0       10.162581   -0.505562   -1.944972
    111          1           0        9.362023   -2.500451   -2.008378
    112          1           0       10.874533   -2.881506   -1.223910
    113          1           0        9.295574   -3.045211   -0.186338
    114          1           0       11.045515    0.485354    0.338699
    115          1           0       11.335651   -1.253043    0.904617
    116          1           0       12.910707   -1.844428   -0.804490
    117          1           0       12.520383   -0.104388   -1.724038
    118          1           0       13.559050    1.105713    0.498607
    119          1           0       13.707309   -0.740821    1.166537
    120          1           0       15.358076    0.046692   -1.445032
    121          1           0       14.615367   -2.255564   -0.993485
    122          1           0       16.595036   -1.733978   -0.984635
    123          1           0       15.719901   -2.135879    0.586029
    124          1           0       15.829243    1.676395    0.453669
    125          1           0       16.261067    0.336356    1.419076
    126          1           0       18.192416   -0.379252   -0.085500
    127          1           0       17.828390    1.093896   -1.132632
    128          1           0       17.921747    2.641360    0.615794
    129          1           0       18.517820    1.414695    1.689757
    130          1           0       20.566364    0.964294   -0.052684
    131          1           0       19.433746    3.403452   -1.199644
    132          1           0       20.986927    2.867089   -1.745921
    133          1           0       19.594441    1.826018   -2.186060
    134          1           0       20.821634    2.187792    2.138292
    135          1           0       21.785179    2.979602    0.703737
    136          1           0       20.384815    3.883813    1.457121
    137          1           0       -6.804267    1.727183    0.296734
    138          1           0       -7.586618   -0.199797   -0.068890
 ---------------------------------------------------------------------

 SCF Done:  E(RB3LYP) =  -2732.98874386     A.U. after   18 cycles

 Excitation energies and oscillator strengths:

 Excited State   1:      Singlet-A      2.0507 eV  604.60 nm  f=0.2029  <S**2>=0.000
     235 -> 237        0.29215
     235 -> 238        0.22803
     236 -> 237        0.57184
     236 -> 238       -0.18585
 This state for optimization and/or second-order correction.
 Total Energy, E(TD-HF/TD-KS) =  -2732.91338265
 Copying the excited state density for this state as the 1-particle RhoCI density.

 The electronic state is 1-A.
 Alpha  occ. eigenvalues --  -19.19925 -19.19706 -19.12541 -19.11992 -19.11483
 Alpha  occ. eigenvalues --  -14.37724 -14.35489 -14.32486 -14.29794 -10.32076
 Alpha  occ. eigenvalues --  -10.31855 -10.28178 -10.27356 -10.25894 -10.23791
 Alpha  occ. eigenvalues --  -10.23400 -10.22978 -10.22883 -10.22632 -10.22502
 Alpha  occ. eigenvalues --  -10.21545 -10.21184 -10.21160 -10.20970 -10.20831
 Alpha  occ. eigenvalues --  -10.20800 -10.20756 -10.20724 -10.20550 -10.20440
 Alpha  occ. eigenvalues --  -10.20390 -10.20375 -10.20374 -10.20303 -10.20286
 Alpha  occ. eigenvalues --  -10.20283 -10.20205 -10.19982 -10.19955 -10.19939
 Alpha  occ. eigenvalues --  -10.19912 -10.19908 -10.19667 -10.19591 -10.19560
 Alpha  occ. eigenvalues --  -10.19405 -10.19401 -10.19170 -10.19064 -10.18996
 Alpha  occ. eigenvalues --  -10.18974 -10.18906 -10.18692 -10.18559 -10.18492
 Alpha  occ. eigenvalues --  -10.18415 -10.18400 -10.18399 -10.18313 -10.18247
 Alpha  occ. eigenvalues --  -10.18237 -10.17971 -10.17863 -10.17734  -1.13629
 Alpha  occ. eigenvalues --   -1.09682  -1.03265  -0.98903  -0.98374  -0.98091
 Alpha  occ. eigenvalues --   -0.97110  -0.95849  -0.92568  -0.84919  -0.83805
 Alpha  occ. eigenvalues --   -0.82287  -0.81914  -0.81733  -0.81093  -0.80693
 Alpha  occ. eigenvalues --   -0.80418  -0.80259  -0.79718  -0.78713  -0.78408
 Alpha  occ. eigenvalues --   -0.77524  -0.76280  -0.75881  -0.75213  -0.74739
 Alpha  occ. eigenvalues --   -0.73952  -0.73333  -0.72805  -0.72251  -0.71404
 Alpha  occ. eigenvalues --   -0.70491  -0.69530  -0.68842  -0.68491  -0.67390
 Alpha  occ. eigenvalues --   -0.66930  -0.66749  -0.66699  -0.66464  -0.65642
 Alpha  occ. eigenvalues --   -0.64355  -0.62534  -0.62224  -0.61880  -0.61495
 Alpha  occ. eigenvalues --   -0.60296  -0.59306  -0.58610  -0.58371  -0.57804
 Alpha  occ. eigenvalues --   -0.57599  -0.56368  -0.55645  -0.55599  -0.55416
 Alpha  occ. eigenvalues --   -0.54942  -0.54559  -0.53971  -0.53824  -0.53695
 Alpha  occ. eigenvalues --   -0.53099  -0.52264  -0.51745  -0.51366  -0.50959
 Alpha  occ. eigenvalues --   -0.49565  -0.49344  -0.49019  -0.48828  -0.48572
 Alpha  occ. eigenvalues --   -0.47915  -0.47720  -0.47539  -0.47158  -0.46946
 Alpha  occ. eigenvalues --   -0.46859  -0.46727  -0.46347  -0.46270  -0.45800
 Alpha  occ. eigenvalues --   -0.45671  -0.45661  -0.45270  -0.45072  -0.44869
 Alpha  occ. eigenvalues --   -0.44693  -0.44540  -0.44021  -0.43897  -0.43652
 Alpha  occ. eigenvalues --   -0.43460  -0.43433  -0.43136  -0.42989  -0.42784
 Alpha  occ. eigenvalues --   -0.42415  -0.42216  -0.42022  -0.41801  -0.41541
 Alpha  occ. eigenvalues --   -0.41490  -0.41195  -0.41058  -0.40881  -0.40374
 Alpha  occ. eigenvalues --   -0.40248  -0.40201  -0.40044  -0.39751  -0.39546
 Alpha  occ. eigenvalues --   -0.39392  -0.39268  -0.39002  -0.38820  -0.38743
 Alpha  occ. eigenvalues --   -0.38404  -0.38158  -0.38087  -0.37834  -0.37555
 Alpha  occ. eigenvalues --   -0.37466  -0.37247  -0.36881  -0.36852  -0.36776
 Alpha  occ. eigenvalues --   -0.36658  -0.36523  -0.36337  -0.36042  -0.35835
 Alpha  occ. eigenvalues --   -0.35657  -0.35412  -0.34989  -0.34942  -0.34466
 Alpha  occ. eigenvalues --   -0.34383  -0.34108  -0.33842  -0.33719  -0.33664
 Alpha  occ. eigenvalues --   -0.33421  -0.33137  -0.33102  -0.33026  -0.32726
 Alpha  occ. eigenvalues --   -0.32456  -0.32107  -0.31307  -0.30959  -0.30733
 Alpha  occ. eigenvalues --   -0.30616  -0.30341  -0.30282  -0.29793  -0.29509
 Alpha  occ. eigenvalues --   -0.29194  -0.28948  -0.28309  -0.27609  -0.27509
 Alpha  occ. eigenvalues --   -0.27094  -0.26763  -0.26305  -0.25948  -0.25611
 Alpha  occ. eigenvalues --   -0.24988  -0.24946  -0.23062  -0.22937  -0.19922
 Alpha  occ. eigenvalues --   -0.18949
 Alpha virt. eigenvalues --   -0.10795  -0.07354  -0.04200  -0.02067  -0.01869
 Alpha virt. eigenvalues --   -0.01352  -0.00440  -0.00016   0.02649   0.03590
 Alpha virt. eigenvalues --    0.03737   0.03985   0.04353   0.04602   0.04676

 Mulliken charges:
               1
     1  C    0.081886
     2  C   -0.027676
     3  C   -0.110237
     4  C   -0.092212
     5  N   -0.122464
     6  C   -0.167806
     7  C    0.004648
     8  C    0.003795
     9  C   -0.024595
    10  C    0.153519
    11  C    0.014651
    12  C    0.109203
    13  C    0.179896
    14  O   -0.325085
    15  O   -0.209935
    16  N   -0.064470
    17  C    0.021894
    18  C   -0.170712
    19  C    0.005990
    20  C    0.092701
    21  C    0.215332
    22  C   -0.069231
    23  C   -0.022062
    24  N   -0.291214
    25  C    0.148711
    26  C   -0.109453
    27  C   -0.065372
    28  C    0.091533
    29  C   -0.026647
    30  C    0.133904
    31  C    0.072241
    32  N   -0.061553
    33  C    0.036176
    34  C   -0.141177
    35  C    0.006534
    36  C    0.075964
    37  C    0.080590
    38  C    0.101659
    39  O   -0.153617
    40  C   -0.066203
    41  C    0.198298
    42  O   -0.285973
    43  O   -0.269235
    44  C    0.067167
    45  C    0.204029
    46  C   -0.066300
    47  C   -0.079070
    48  C    0.106326
    49  C    0.072354
    50  C   -0.037535
    51  C   -0.021973
    52  C   -0.150919
    53  C    0.001472
    54  C    0.113235
    55  C   -0.050368
    56  C   -0.067267
    57  C   -0.028053
    58  C    0.007185
    59  C    0.041423
    60  C    0.024184
    61  C   -0.036246
    62  C   -0.086088
    63  C    0.027400
    64  C   -0.027989
    65  H   -0.031928
    66  H   -0.033463
    67  H    0.007373
    68  H   -0.000503
    69  H   -0.063987
    70  H    0.011475
    71  H   -0.024180
    72  H    0.006760
    73  H    0.025125
    74  H    0.020298
    75  H    0.001809
    76  H    0.028227
    77  H    0.056382
    78  H   -0.042971
    79  H   -0.003000
    80  H    0.018667
    81  H    0.003960
    82  H    0.034969
    83  H    0.026390
    84  H    0.013160
    85  H    0.043697
    86  H    0.004621
    87  H   -0.104852
    88  H   -0.019199
    89  H    0.050685
    90  H    0.014381
    91  H    0.037865
    92  H    0.040384
    93  H    0.010800
    94  H    0.058300
    95  H    0.058057
    96  H    0.055515
    97  H    0.084782
    98  H    0.048072
    99  H    0.020408
   100  H   -0.057341
   101  H    0.033683
   102  H    0.014729
   103  H   -0.014707
   104  H    0.032515
   105  H    0.009306
   106  H   -0.007219
   107  H   -0.001026
   108  H    0.016165
   109  H    0.024471
   110  H    0.008234
   111  H    0.003867
   112  H    0.004300
   113  H    0.033458
   114  H   -0.008256
   115  H   -0.001226
   116  H    0.027673
   117  H    0.003594
   118  H    0.023427
   119  H   -0.003368
   120  H   -0.010256
   121  H    0.039052
   122  H    0.030392
   123  H    0.007900
   124  H   -0.017069
   125  H   -0.017247
   126  H    0.016351
   127  H   -0.016400
   128  H   -0.010790
   129  H   -0.018471
   130  H   -0.000051
   131  H   -0.008525
   132  H    0.003019
   133  H    0.029995
   134  H    0.031250
   135  H    0.014638
   136  H    0.030264
   137  H    0.205520
   138  H    0.124910
 Sum of Mulliken charges =   0.00000

 Dipole moment (field-independent basis, Debye):
    X=              3.4873    Y=              3.9571    Z=              0.8580  Tot=              5.3438
 Quadrupole moment (field-independent basis, Debye-Ang):
   XX=           -359.0483   YY=           -381.7870   ZZ=           -398.1723
   XY=            -21.1483   XZ=              8.3359   YZ=              0.6638

 Normal termination of Gaussian 09 at Sat Aug  3 09:45:14 2019.
