 Gaussian 09, Revision D.01,
 Gaussian 09:  ES64L-G09RevD.01 24-Apr-2013

 --------------------------
 # td=(NStates=1) B3LYP/SVP
 --------------------------

 --
 TD
 --
 Symbolic Z-matrix:
 Charge =  0 Multiplicity = 1

                         Standard orientation:
 ---------------------------------------------------------------------
 Center     Atomic      Atomic             Coordinates (Angstroms)
 Number     Number       Type             X           Y           Z
 ---------------------------------------------------------------------
      1          6           0       -5.154869   -1.952877    0.469727
      2          6           0       -4.579714    2.618657    1.505596
      3          6           0       -9.068834    3.385091   -0.202067
      4          6           0       -9.896117   -1.357351   -1.128024
      5          7           0       -5.095389    0.422417    0.896990
      6          6           0       -4.436596   -0.748781    0.837385
      7          6           0       -3.059786   -0.716805    1.414092
      8          6           0       -3.000276    0.711400    1.922710
      9          6           0       -4.220882    1.352451    1.427539
     10          6           0       -2.866556    0.717210    3.445012
     11          6           0       -2.119743   -1.007707    0.173832
     12          6           0       -0.693438   -0.926861    0.560409
     13          6           0        0.264667   -1.420000   -0.504241
     14          8           0       -0.096871   -1.815032   -1.542961
     15          8           0        1.524221   -1.028617   -0.170603
     16          7           0       -6.828538    2.727552    0.501331
     17          6           0       -5.699074    3.372752    0.969586
     18          6           0       -6.023728    4.744539    1.100680
     19          6           0       -7.348318    5.040271    0.630204
     20          6           0       -7.793562    3.721789    0.210821
     21          6           0       -5.090498    5.796223    1.613566
     22          6           0       -7.892850    6.404364    0.375366
     23          6           0       -8.712420    6.831875   -0.509927
     24          7           0       -9.159001    1.019925   -0.524155
     25          6           0       -9.801207    2.212315   -0.524968
     26          6           0      -11.112394    2.155086   -0.989623
     27          6           0      -11.446454    0.776740   -1.286318
     28          6           0      -10.145260    0.081381   -0.937261
     29          6           0      -12.095570    3.330997   -1.010792
     30          6           0      -12.667101    0.175267   -1.778989
     31          6           0      -12.637388   -0.148012   -3.232031
     32          7           0       -7.568766   -1.143622   -0.206384
     33          6           0       -8.550983   -1.897150   -0.762527
     34          6           0       -8.201322   -3.278533   -0.845896
     35          6           0       -6.965508   -3.351305   -0.288079
     36          6           0       -6.486006   -1.955892   -0.008493
     37          6           0       -9.043551   -4.430492   -1.304577
     38          6           0       -5.833921   -4.253184    0.015216
     39          8           0       -5.776564   -5.487224   -0.226173
     40          6           0       -4.712245   -3.402534    0.462330
     41          6           0       -4.073012   -3.915397    1.813988
     42          8           0       -4.343659   -3.523587    2.933695
     43          8           0       -3.285658   -4.925513    1.563540
     44          6           0       -2.654727   -5.703738    2.616471
     45          6           0        2.614150   -1.270688   -1.039651
     46          6           0        3.975877   -0.926618   -0.364301
     47          6           0        4.958345   -0.213901   -0.983025
     48          6           0        4.768714    0.362192   -2.292504
     49          6           0        6.201582    0.093343   -0.199611
     50          6           0        7.465368   -0.504644   -0.845463
     51          6           0        8.701401   -0.305409   -0.046921
     52          6           0       10.039941   -0.829290   -0.717938
     53          6           0       10.006500   -2.372232   -0.949721
     54          6           0       11.314028   -0.387750   -0.034065
     55          6           0       12.623940   -0.704686   -0.686722
     56          6           0       13.847913    0.010464    0.063526
     57          6           0       15.223971   -0.201116   -0.559108
     58          6           0       15.760387   -1.619797   -0.443295
     59          6           0       16.228958    0.643050    0.209055
     60          6           0       17.593629    0.755629   -0.464341
     61          6           0       18.478492    1.606508    0.580782
     62          6           0       19.950640    1.977436    0.060079
     63          6           0       19.936591    2.995518   -1.273202
     64          6           0       20.718495    2.577133    1.201203
     65          1           0       -3.963757    3.353876    1.807648
     66          1           0       -9.643406    4.463591   -0.267920
     67          1           0      -10.791788   -1.921967   -1.403004
     68          1           0       -2.823207   -1.356240    2.103234
     69          1           0       -2.057104    1.227613    1.704690
     70          1           0       -1.821520    0.195320    3.691170
     71          1           0       -2.575839    1.753156    3.989659
     72          1           0       -3.690115    0.268035    3.906890
     73          1           0       -2.413182   -2.083880   -0.349738
     74          1           0       -2.272795   -0.203499   -0.485491
     75          1           0       -0.589799    0.138127    0.978891
     76          1           0       -0.449178   -1.509772    1.436511
     77          1           0       -4.215132    5.840790    0.913254
     78          1           0       -5.571191    6.901743    1.718151
     79          1           0       -4.650856    5.567929    2.475611
     80          1           0       -7.339877    7.125049    1.038734
     81          1           0       -9.475914    6.147239   -1.140552
     82          1           0       -8.734896    7.945603   -0.851061
     83          1           0      -12.102990    3.869419   -0.155254
     84          1           0      -11.699574    4.191515   -1.736713
     85          1           0      -13.072751    2.967035   -1.357141
     86          1           0      -12.918879   -0.835782   -1.263052
     87          1           0      -13.538903    0.952612   -1.650527
     88          1           0      -12.740395    0.777165   -3.747427
     89          1           0      -11.758211   -0.976556   -3.443262
     90          1           0      -13.544760   -0.389828   -3.601345
     91          1           0       -9.788810   -4.797382   -0.605520
     92          1           0       -9.646081   -4.089698   -2.237434
     93          1           0       -8.339975   -5.266863   -1.433579
     94          1           0       -4.030898   -3.695387   -0.301621
     95          1           0       -1.907141   -6.240828    2.147490
     96          1           0       -2.412784   -4.819303    3.444605
     97          1           0       -3.548963   -6.392429    2.885060
     98          1           0        2.611264   -2.515683   -1.231946
     99          1           0        2.463125   -1.068026   -2.015633
    100          1           0        4.172860   -1.240284    0.780795
    101          1           0        5.447031    1.413109   -2.270941
    102          1           0        5.447214   -0.010691   -3.162147
    103          1           0        3.894129    0.690979   -2.624394
    104          1           0        6.386221    1.092354    0.106864
    105          1           0        5.951500   -0.404449    0.769018
    106          1           0        7.557219   -1.591612   -0.961963
    107          1           0        7.658349   -0.079351   -1.949107
    108          1           0        8.950711    0.812290   -0.194485
    109          1           0        8.774533   -0.460713    0.979822
    110          1           0       10.042827   -0.434488   -1.695121
    111          1           0        9.218522   -2.820598   -1.413945
    112          1           0       10.899165   -2.735158   -1.610337
    113          1           0       10.126875   -2.925840    0.025309
    114          1           0       11.287719    0.728379    0.166811
    115          1           0       11.480667   -0.957155    0.900148
    116          1           0       12.737997   -1.814065   -0.736971
    117          1           0       12.746432   -0.239520   -1.775322
    118          1           0       13.412063    0.935082    0.095876
    119          1           0       13.947148   -0.416528    0.976265
    120          1           0       15.216445    0.013796   -1.723240
    121          1           0       15.044987   -2.297696   -1.071147
    122          1           0       16.775173   -1.994674   -0.910666
    123          1           0       15.785842   -1.876449    0.795086
    124          1           0       15.734915    1.618456    0.773760
    125          1           0       16.147488    0.083928    1.189063
    126          1           0       18.000289   -0.335230   -0.574286
    127          1           0       17.887783    1.120172   -1.584720
    128          1           0       17.900895    2.494491    0.636422
    129          1           0       18.563990    0.967146    1.549917
    130          1           0       20.549182    0.984205   -0.178632
    131          1           0       19.360077    4.018775   -0.943736
    132          1           0       21.005545    3.026972   -1.507492
    133          1           0       19.427896    2.352617   -2.078082
    134          1           0       20.660472    2.002310    2.015763
    135          1           0       21.693526    2.724109    0.984378
    136          1           0       20.153021    3.578269    1.356557
    137          1           0       -6.819574    1.698263    0.310661
    138          1           0       -7.318804   -0.069624   -0.336577
 ---------------------------------------------------------------------

 SCF Done:  E(RB3LYP) =  -2733.00382232     A.U. after   17 cycles

 Excitation energies and oscillator strengths:

 Excited State   1:      Singlet-A      2.0233 eV  612.78 nm  f=0.1815  <S**2>=0.000
     235 -> 237       -0.25440
     235 -> 238        0.25499
     236 -> 237        0.57025
     236 -> 238        0.20088
 This state for optimization and/or second-order correction.
 Total Energy, E(TD-HF/TD-KS) =  -2732.92946762
 Copying the excited state density for this state as the 1-particle RhoCI density.

 The electronic state is 1-A.
 Alpha  occ. eigenvalues --  -19.17874 -19.17851 -19.13448 -19.12162 -19.11475
 Alpha  occ. eigenvalues --  -14.37819 -14.36741 -14.32480 -14.29343 -10.31890
 Alpha  occ. eigenvalues --  -10.31778 -10.27398 -10.26404 -10.25933 -10.24205
 Alpha  occ. eigenvalues --  -10.23733 -10.23556 -10.23535 -10.23487 -10.22110
 Alpha  occ. eigenvalues --  -10.21753 -10.21553 -10.21417 -10.21161 -10.21043
 Alpha  occ. eigenvalues --  -10.20955 -10.20798 -10.20784 -10.20761 -10.20757
 Alpha  occ. eigenvalues --  -10.20603 -10.20483 -10.20458 -10.20370 -10.20326
 Alpha  occ. eigenvalues --  -10.20290 -10.20140 -10.20120 -10.20081 -10.19991
 Alpha  occ. eigenvalues --  -10.19948 -10.19931 -10.19924 -10.19860 -10.19692
 Alpha  occ. eigenvalues --  -10.19655 -10.19534 -10.19352 -10.19323 -10.19138
 Alpha  occ. eigenvalues --  -10.18885 -10.18880 -10.18822 -10.18732 -10.18726
 Alpha  occ. eigenvalues --  -10.18632 -10.18535 -10.18449 -10.18160 -10.18120
 Alpha  occ. eigenvalues --  -10.17864 -10.17748 -10.17046 -10.15950  -1.10531
 Alpha  occ. eigenvalues --   -1.10309  -1.03089  -1.00282  -1.00030  -0.98347
 Alpha  occ. eigenvalues --   -0.96792  -0.95125  -0.91543  -0.84760  -0.83276
 Alpha  occ. eigenvalues --   -0.82542  -0.82293  -0.81770  -0.81042  -0.80964
 Alpha  occ. eigenvalues --   -0.80161  -0.79714  -0.78717  -0.78576  -0.77675
 Alpha  occ. eigenvalues --   -0.77153  -0.76954  -0.75814  -0.75051  -0.74499
 Alpha  occ. eigenvalues --   -0.73642  -0.73380  -0.72131  -0.71674  -0.70885
 Alpha  occ. eigenvalues --   -0.70155  -0.69690  -0.69110  -0.68667  -0.67313
 Alpha  occ. eigenvalues --   -0.67240  -0.66818  -0.65994  -0.65653  -0.64924
 Alpha  occ. eigenvalues --   -0.64258  -0.62895  -0.62220  -0.61835  -0.61001
 Alpha  occ. eigenvalues --   -0.60685  -0.58968  -0.58686  -0.58269  -0.57394
 Alpha  occ. eigenvalues --   -0.56848  -0.56779  -0.55754  -0.55609  -0.55094
 Alpha  occ. eigenvalues --   -0.54870  -0.54677  -0.54032  -0.53676  -0.53404
 Alpha  occ. eigenvalues --   -0.53009  -0.52564  -0.51537  -0.50888  -0.50492
 Alpha  occ. eigenvalues --   -0.50374  -0.49713  -0.49591  -0.49393  -0.49183
 Alpha  occ. eigenvalues --   -0.48812  -0.48231  -0.47994  -0.47348  -0.47325
 Alpha  occ. eigenvalues --   -0.47019  -0.46317  -0.46245  -0.45851  -0.45593
 Alpha  occ. eigenvalues --   -0.45476  -0.45181  -0.45106  -0.44782  -0.44733
 Alpha  occ. eigenvalues --   -0.44575  -0.44507  -0.44191  -0.43916  -0.43734
 Alpha  occ. eigenvalues --   -0.43597  -0.43185  -0.43026  -0.42966  -0.42739
 Alpha  occ. eigenvalues --   -0.42484  -0.42213  -0.41930  -0.41803  -0.41246
 Alpha  occ. eigenvalues --   -0.41145  -0.40714  -0.40609  -0.40460  -0.40329
 Alpha  occ. eigenvalues --   -0.40023  -0.39764  -0.39638  -0.39548  -0.39292
 Alpha  occ. eigenvalues --   -0.39214  -0.39053  -0.38914  -0.38786  -0.38687
 Alpha  occ. eigenvalues --   -0.38387  -0.38138  -0.37988  -0.37906  -0.37427
 Alpha  occ. eigenvalues --   -0.37260  -0.37115  -0.36950  -0.36933  -0.36567
 Alpha  occ. eigenvalues --   -0.36105  -0.36062  -0.35966  -0.35942  -0.35726
 Alpha  occ. eigenvalues --   -0.35555  -0.35513  -0.35033  -0.34992  -0.34858
 Alpha  occ. eigenvalues --   -0.34679  -0.34035  -0.33901  -0.33735  -0.33638
 Alpha  occ. eigenvalues --   -0.33577  -0.33302  -0.32919  -0.32560  -0.32279
 Alpha  occ. eigenvalues --   -0.32259  -0.31699  -0.31627  -0.30914  -0.30749
 Alpha  occ. eigenvalues --   -0.30672  -0.30433  -0.30388  -0.30312  -0.30268
 Alpha  occ. eigenvalues --   -0.29728  -0.29435  -0.29077  -0.28200  -0.27941
 Alpha  occ. eigenvalues --   -0.27502  -0.27058  -0.26770  -0.26218  -0.25995
 Alpha  occ. eigenvalues --   -0.24659  -0.24431  -0.24027  -0.21312  -0.19975
 Alpha  occ. eigenvalues --   -0.18418
 Alpha virt. eigenvalues --   -0.10200  -0.08042  -0.04487  -0.01603  -0.01129
 Alpha virt. eigenvalues --   -0.00151   0.00072   0.00885   0.01649   0.03524
 Alpha virt. eigenvalues --    0.03661   0.03823   0.04064   0.04256   0.04365

 Mulliken charges:
               1
     1  C    0.036877
     2  C   -0.024344
     3  C   -0.073653
     4  C   -0.055235
     5  N   -0.208291
     6  C   -0.040458
     7  C    0.053751
     8  C    0.010433
     9  C    0.114074
    10  C   -0.002090
    11  C    0.016858
    12  C    0.026447
    13  C    0.184325
    14  O   -0.175302
    15  O   -0.308314
    16  N   -0.107249
    17  C    0.039381
    18  C   -0.137800
    19  C    0.030834
    20  C    0.025338
    21  C    0.104249
    22  C    0.032983
    23  C   -0.111406
    24  N   -0.274805
    25  C    0.101877
    26  C   -0.156055
    27  C   -0.058658
    28  C    0.022890
    29  C    0.141995
    30  C   -0.022236
    31  C    0.083739
    32  N   -0.040330
    33  C    0.085678
    34  C   -0.162822
    35  C   -0.017909
    36  C    0.024760
    37  C    0.090129
    38  C    0.059531
    39  O   -0.221961
    40  C    0.027728
    41  C    0.173240
    42  O   -0.235056
    43  O   -0.283614
    44  C    0.144752
    45  C    0.251665
    46  C   -0.092047
    47  C   -0.122834
    48  C    0.070005
    49  C    0.145458
    50  C    0.000678
    51  C    0.030707
    52  C   -0.018326
    53  C    0.003721
    54  C    0.040989
    55  C   -0.051262
    56  C    0.120704
    57  C   -0.045512
    58  C   -0.080151
    59  C   -0.011463
    60  C   -0.000880
    61  C    0.016727
    62  C   -0.175857
    63  C   -0.026120
    64  C    0.151973
    65  H   -0.093854
    66  H    0.000450
    67  H   -0.007013
    68  H   -0.067806
    69  H   -0.010470
    70  H    0.016755
    71  H    0.026123
    72  H    0.028381
    73  H    0.058553
    74  H   -0.011043
    75  H    0.034623
    76  H    0.002188
    77  H    0.025060
    78  H    0.035440
    79  H   -0.010615
    80  H    0.004835
    81  H    0.057061
    82  H    0.046224
    83  H   -0.007843
    84  H    0.009420
    85  H    0.008289
    86  H    0.019212
    87  H    0.007697
    88  H   -0.023435
    89  H    0.043953
    90  H   -0.037129
    91  H    0.031310
    92  H    0.031749
    93  H    0.043461
    94  H    0.040156
    95  H    0.034068
    96  H    0.078712
    97  H    0.063232
    98  H    0.011939
    99  H   -0.019955
   100  H    0.028131
   101  H    0.000720
   102  H    0.036343
   103  H   -0.003177
   104  H   -0.002567
   105  H   -0.019578
   106  H   -0.005473
   107  H    0.010226
   108  H   -0.015987
   109  H   -0.018276
   110  H   -0.034322
   111  H   -0.012550
   112  H    0.015257
   113  H    0.000248
   114  H   -0.003262
   115  H   -0.009681
   116  H    0.011705
   117  H   -0.003513
   118  H   -0.024690
   119  H   -0.047233
   120  H    0.001301
   121  H    0.018017
   122  H    0.044464
   123  H    0.022440
   124  H   -0.003087
   125  H   -0.016665
   126  H    0.000848
   127  H    0.024620
   128  H   -0.004172
   129  H    0.018658
   130  H   -0.003355
   131  H    0.049909
   132  H    0.022672
   133  H    0.027760
   134  H   -0.030815
   135  H   -0.026044
   136  H   -0.003152
   137  H    0.148457
   138  H    0.213642
 Sum of Mulliken charges =   0.00000

 Dipole moment (field-independent basis, Debye):
    X=              4.0493    Y=              3.6401    Z=              0.4094  Tot=              5.4603
 Quadrupole moment (field-independent basis, Debye-Ang):
   XX=           -368.3076   YY=           -381.3949   ZZ=           -397.3904
   XY=            -28.6188   XZ=             13.9660   YZ=             -3.6653

 Normal termination of Gaussian 09 at Thu Aug  1 04:03:54 2019.
