 Gaussian 09, Revision D.01,
 Gaussian 09:  ES64L-G09RevD.01 24-Apr-2013

 --------------------------
 # td=(NStates=1) B3LYP/SVP
 --------------------------

 --
 TD
 --
 Symbolic Z-matrix:
 Charge =  0 Multiplicity = 1

                         Standard orientation:
 ---------------------------------------------------------------------
 Center     Atomic      Atomic             Coordinates (Angstroms)
 Number     Number       Type             X           Y           Z
 ---------------------------------------------------------------------
      1          6           0       -5.105443   -1.855216    0.343317
      2          6           0       -4.779266    2.759486    1.436060
      3          6           0       -9.445037    3.356906   -0.183378
      4          6           0       -9.802773   -1.505654   -0.995233
      5          7           0       -5.146263    0.481260    0.830916
      6          6           0       -4.572185   -0.641903    0.785487
      7          6           0       -3.005260   -0.548463    1.261413
      8          6           0       -3.008015    0.908520    1.829549
      9          6           0       -4.402551    1.463033    1.328902
     10          6           0       -2.853217    0.974596    3.298687
     11          6           0       -2.044494   -0.744462    0.176631
     12          6           0       -0.536624   -0.678807    0.577333
     13          6           0        0.368792   -1.054979   -0.542114
     14          8           0        0.135646   -1.519793   -1.698315
     15          8           0        1.692742   -0.713612   -0.203526
     16          7           0       -7.054597    2.718277    0.431168
     17          6           0       -5.993388    3.388703    1.091038
     18          6           0       -6.283483    4.745492    1.017778
     19          6           0       -7.521162    4.995808    0.595295
     20          6           0       -8.099333    3.629615    0.172888
     21          6           0       -5.319624    5.837800    1.405750
     22          6           0       -8.027109    6.387324    0.338837
     23          6           0       -8.937565    6.588758   -0.643076
     24          7           0       -9.182620    0.918281   -0.443826
     25          6           0       -9.900517    2.060844   -0.541425
     26          6           0      -11.301289    1.760349   -1.046373
     27          6           0      -11.410173    0.475631   -1.301729
     28          6           0      -10.127534   -0.119879   -0.964331
     29          6           0      -12.321806    2.918516   -1.165797
     30          6           0      -12.578606   -0.287206   -1.600653
     31          6           0      -12.831553   -0.477607   -3.196184
     32          7           0       -7.456780   -1.276623   -0.210435
     33          6           0       -8.612153   -1.989523   -0.641958
     34          6           0       -8.189282   -3.418839   -0.656148
     35          6           0       -6.837622   -3.400746   -0.157610
     36          6           0       -6.426417   -2.077736    0.006461
     37          6           0       -8.970298   -4.707018   -1.072782
     38          6           0       -5.670911   -4.314568    0.011740
     39          8           0       -5.631316   -5.520266   -0.081198
     40          6           0       -4.567325   -3.276628    0.423409
     41          6           0       -4.088664   -3.790136    1.743907
     42          8           0       -4.384305   -3.294769    2.850354
     43          8           0       -3.200511   -4.824679    1.624376
     44          6           0       -2.591443   -5.390463    2.769999
     45          6           0        2.672770   -1.024878   -1.086537
     46          6           0        3.989655   -0.726679   -0.484764
     47          6           0        5.001686    0.135058   -1.014638
     48          6           0        4.863985    0.692374   -2.397749
     49          6           0        6.280208    0.333720   -0.275285
     50          6           0        7.527179   -0.458481   -0.966277
     51          6           0        8.845740   -0.114680   -0.162280
     52          6           0       10.082820   -0.746879   -0.826759
     53          6           0       10.017601   -2.365936   -0.798633
     54          6           0       11.333987   -0.309447    0.050187
     55          6           0       12.610568   -0.639010   -0.575127
     56          6           0       13.759552    0.106306    0.112082
     57          6           0       15.274203   -0.213380   -0.430725
     58          6           0       15.511748   -1.769640   -0.433833
     59          6           0       16.292985    0.543951    0.469764
     60          6           0       17.713531    0.792677   -0.266682
     61          6           0       18.619216    1.669688    0.403485
     62          6           0       20.139591    1.611502    0.139988
     63          6           0       20.483938    2.064762   -1.297704
     64          6           0       20.928228    2.398118    1.147809
     65          1           0       -4.050371    3.433538    2.056144
     66          1           0      -10.205908    4.081581   -0.240141
     67          1           0      -10.611424   -2.110888   -1.381316
     68          1           0       -2.784500   -1.334202    2.094002
     69          1           0       -2.185923    1.345033    1.280853
     70          1           0       -1.815513    0.487530    3.648559
     71          1           0       -3.271875    1.836404    3.692795
     72          1           0       -3.559580    0.305590    3.630060
     73          1           0       -2.211624   -1.593951   -0.388120
     74          1           0       -2.158347   -0.125723   -0.625409
     75          1           0       -0.277501    0.376040    1.067603
     76          1           0       -0.538185   -1.548614    1.405375
     77          1           0       -4.257229    5.546726    1.032876
     78          1           0       -5.722416    6.906447    1.245199
     79          1           0       -5.391423    5.896554    2.661633
     80          1           0       -7.887174    7.054554    1.227130
     81          1           0       -9.205590    5.952461   -1.388330
     82          1           0       -9.510150    7.656928   -0.502304
     83          1           0      -12.170506    3.620910   -0.181461
     84          1           0      -12.146111    3.620033   -2.176376
     85          1           0      -13.288614    2.378537   -1.221356
     86          1           0      -12.727079   -1.259427   -0.802724
     87          1           0      -13.352424    0.522577   -1.313289
     88          1           0      -12.700312    0.510427   -3.434364
     89          1           0      -11.937847   -0.881200   -3.760303
     90          1           0      -13.758006   -1.001531   -3.446293
     91          1           0       -9.775648   -4.836441   -0.416328
     92          1           0       -9.493980   -4.590933   -2.087088
     93          1           0       -8.539404   -5.733130   -1.041945
     94          1           0       -3.644052   -3.457640   -0.322032
     95          1           0       -2.147858   -6.317035    2.360963
     96          1           0       -1.803125   -4.844176    3.342894
     97          1           0       -3.446342   -5.604925    3.621601
     98          1           0        2.564930   -2.183549   -1.366130
     99          1           0        2.314721   -0.443193   -2.033876
    100          1           0        4.224954   -1.143708    0.318130
    101          1           0        5.460356    1.787026   -2.211036
    102          1           0        5.631499    0.222639   -3.197946
    103          1           0        3.964935    0.828869   -2.643846
    104          1           0        6.450124    1.451604   -0.254016
    105          1           0        6.453239    0.224614    1.110698
    106          1           0        7.091530   -1.649994   -0.782831
    107          1           0        7.792451   -0.180503   -1.961899
    108          1           0        8.870907    1.070372   -0.181627
    109          1           0        8.826203   -0.243099    1.032658
    110          1           0       10.066293   -0.565902   -1.953574
    111          1           0        9.042811   -2.632935   -1.329126
    112          1           0       10.793045   -2.856174   -1.351620
    113          1           0       10.103369   -2.816512    0.293717
    114          1           0       11.320978    0.709424    0.325952
    115          1           0       11.057577   -0.885005    1.045053
    116          1           0       12.892107   -1.748451   -0.513339
    117          1           0       12.890287   -0.357140   -1.735150
    118          1           0       13.524421    1.334778   -0.066071
    119          1           0       13.968819   -0.117220    1.341005
    120          1           0       15.293533    0.190846   -1.677350
    121          1           0       14.832084   -2.179368   -1.147456
    122          1           0       16.501415   -2.070007   -0.655679
    123          1           0       15.273687   -2.184233    0.505525
    124          1           0       15.911979    1.676463    0.675705
    125          1           0       16.121392   -0.031774    1.268139
    126          1           0       18.200860   -0.170711   -0.723088
    127          1           0       17.453922    1.277238   -1.257114
    128          1           0       18.094164    2.652282    0.321455
    129          1           0       18.611532    1.453331    1.645311
    130          1           0       20.397583    0.524101    0.403807
    131          1           0       20.317567    3.265292   -1.603167
    132          1           0       21.644943    1.704898   -1.706193
    133          1           0       19.829943    1.427803   -2.009916
    134          1           0       20.793415    2.313071    2.275072
    135          1           0       21.950469    2.615957    0.989330
    136          1           0       20.741499    3.435815    1.194959
    137          1           0       -7.244277    1.642563    0.458164
    138          1           0       -7.406612   -0.249167    0.058502
 ---------------------------------------------------------------------

 SCF Done:  E(RB3LYP) =  -2732.91906935     A.U. after   17 cycles

 Excitation energies and oscillator strengths:

 Excited State   1:      Singlet-A      2.0560 eV  603.04 nm  f=0.1706  <S**2>=0.000
     235 -> 237        0.16385
     235 -> 238       -0.28890
     236 -> 237        0.61025
     236 -> 238        0.12297
 This state for optimization and/or second-order correction.
 Total Energy, E(TD-HF/TD-KS) =  -2732.84351274
 Copying the excited state density for this state as the 1-particle RhoCI density.

 The electronic state is 1-A.
 Alpha  occ. eigenvalues --  -19.17841 -19.16976 -19.13542 -19.12729 -19.12096
 Alpha  occ. eigenvalues --  -14.37839 -14.37138 -14.32260 -14.31035 -10.32731
 Alpha  occ. eigenvalues --  -10.31873 -10.28289 -10.25461 -10.25135 -10.24727
 Alpha  occ. eigenvalues --  -10.24274 -10.24210 -10.23367 -10.23069 -10.23038
 Alpha  occ. eigenvalues --  -10.22919 -10.22637 -10.22463 -10.22243 -10.22190
 Alpha  occ. eigenvalues --  -10.21963 -10.21952 -10.21648 -10.21625 -10.21541
 Alpha  occ. eigenvalues --  -10.21398 -10.21225 -10.21190 -10.21169 -10.20854
 Alpha  occ. eigenvalues --  -10.20806 -10.20624 -10.20548 -10.20426 -10.20376
 Alpha  occ. eigenvalues --  -10.20373 -10.20313 -10.20285 -10.20249 -10.20107
 Alpha  occ. eigenvalues --  -10.20070 -10.19951 -10.19650 -10.19648 -10.19607
 Alpha  occ. eigenvalues --  -10.19182 -10.19159 -10.19067 -10.19043 -10.18975
 Alpha  occ. eigenvalues --  -10.18853 -10.18762 -10.18760 -10.18217 -10.17966
 Alpha  occ. eigenvalues --  -10.17788 -10.17446 -10.17125 -10.16647  -1.08670
 Alpha  occ. eigenvalues --   -1.08290  -1.03096  -0.99243  -0.98949  -0.98322
 Alpha  occ. eigenvalues --   -0.96985  -0.96206  -0.91617  -0.85311  -0.82382
 Alpha  occ. eigenvalues --   -0.82233  -0.81549  -0.81520  -0.81249  -0.80660
 Alpha  occ. eigenvalues --   -0.80506  -0.80111  -0.78967  -0.78739  -0.77914
 Alpha  occ. eigenvalues --   -0.76707  -0.76027  -0.75601  -0.74697  -0.73943
 Alpha  occ. eigenvalues --   -0.73877  -0.73634  -0.72498  -0.71379  -0.70420
 Alpha  occ. eigenvalues --   -0.70037  -0.69172  -0.68787  -0.68002  -0.67514
 Alpha  occ. eigenvalues --   -0.67123  -0.66631  -0.66448  -0.65700  -0.64850
 Alpha  occ. eigenvalues --   -0.63662  -0.62773  -0.62400  -0.61819  -0.61496
 Alpha  occ. eigenvalues --   -0.60680  -0.59225  -0.58514  -0.58288  -0.57430
 Alpha  occ. eigenvalues --   -0.56200  -0.56094  -0.55272  -0.55177  -0.55036
 Alpha  occ. eigenvalues --   -0.54664  -0.54613  -0.54283  -0.53221  -0.52534
 Alpha  occ. eigenvalues --   -0.52308  -0.52162  -0.51527  -0.51253  -0.50101
 Alpha  occ. eigenvalues --   -0.49758  -0.49450  -0.48866  -0.48320  -0.47851
 Alpha  occ. eigenvalues --   -0.47746  -0.47442  -0.47338  -0.47003  -0.46927
 Alpha  occ. eigenvalues --   -0.46893  -0.46151  -0.45948  -0.45529  -0.45500
 Alpha  occ. eigenvalues --   -0.45279  -0.45127  -0.44764  -0.44619  -0.44375
 Alpha  occ. eigenvalues --   -0.44081  -0.43897  -0.43696  -0.43536  -0.43479
 Alpha  occ. eigenvalues --   -0.43125  -0.43072  -0.42946  -0.42637  -0.42500
 Alpha  occ. eigenvalues --   -0.42331  -0.42255  -0.42092  -0.41912  -0.41473
 Alpha  occ. eigenvalues --   -0.41219  -0.41153  -0.40679  -0.40448  -0.40214
 Alpha  occ. eigenvalues --   -0.40105  -0.39864  -0.39728  -0.39423  -0.39021
 Alpha  occ. eigenvalues --   -0.38957  -0.38893  -0.38719  -0.38704  -0.38398
 Alpha  occ. eigenvalues --   -0.38256  -0.38202  -0.37758  -0.37544  -0.37302
 Alpha  occ. eigenvalues --   -0.37029  -0.36975  -0.36854  -0.36623  -0.36462
 Alpha  occ. eigenvalues --   -0.36324  -0.36143  -0.36105  -0.35892  -0.35624
 Alpha  occ. eigenvalues --   -0.35518  -0.35326  -0.35058  -0.34810  -0.34587
 Alpha  occ. eigenvalues --   -0.34521  -0.34470  -0.34294  -0.33830  -0.33696
 Alpha  occ. eigenvalues --   -0.33390  -0.32796  -0.32657  -0.32617  -0.32435
 Alpha  occ. eigenvalues --   -0.32200  -0.31275  -0.31178  -0.31061  -0.30874
 Alpha  occ. eigenvalues --   -0.30552  -0.30373  -0.30211  -0.29683  -0.29497
 Alpha  occ. eigenvalues --   -0.29216  -0.29054  -0.28911  -0.28466  -0.28058
 Alpha  occ. eigenvalues --   -0.27461  -0.27057  -0.27018  -0.26419  -0.26054
 Alpha  occ. eigenvalues --   -0.25107  -0.24977  -0.23555  -0.23073  -0.20478
 Alpha  occ. eigenvalues --   -0.19083
 Alpha virt. eigenvalues --   -0.10524  -0.08244  -0.04321  -0.02769  -0.02675
 Alpha virt. eigenvalues --   -0.01536  -0.00745   0.00534   0.01848   0.03102
 Alpha virt. eigenvalues --    0.03219   0.03635   0.03793   0.03959   0.04141

 Mulliken charges:
               1
     1  C    0.123718
     2  C   -0.084513
     3  C   -0.033515
     4  C   -0.113592
     5  N   -0.073699
     6  C   -0.125041
     7  C   -0.119280
     8  C    0.006807
     9  C   -0.054916
    10  C    0.164136
    11  C    0.142152
    12  C   -0.042227
    13  C    0.230855
    14  O   -0.269045
    15  O   -0.306806
    16  N   -0.152785
    17  C    0.116603
    18  C   -0.098228
    19  C   -0.031005
    20  C    0.111561
    21  C    0.015597
    22  C   -0.029796
    23  C   -0.019471
    24  N   -0.305597
    25  C    0.041717
    26  C   -0.113050
    27  C   -0.056168
    28  C    0.034527
    29  C    0.003094
    30  C   -0.056046
    31  C    0.054915
    32  N   -0.062927
    33  C    0.202709
    34  C   -0.131905
    35  C   -0.033090
    36  C    0.004576
    37  C    0.101994
    38  C    0.083772
    39  O   -0.151487
    40  C   -0.121240
    41  C    0.231780
    42  O   -0.259512
    43  O   -0.298149
    44  C    0.132112
    45  C    0.208691
    46  C    0.056738
    47  C   -0.152572
    48  C    0.109892
    49  C   -0.036474
    50  C   -0.008123
    51  C   -0.032805
    52  C   -0.093392
    53  C   -0.020833
    54  C    0.080936
    55  C    0.025615
    56  C   -0.109579
    57  C   -0.173277
    58  C    0.093321
    59  C    0.075015
    60  C    0.023929
    61  C   -0.033447
    62  C   -0.014455
    63  C   -0.083629
    64  C    0.072113
    65  H    0.014009
    66  H   -0.044749
    67  H   -0.017301
    68  H    0.023911
    69  H   -0.019589
    70  H    0.033343
    71  H   -0.023803
    72  H   -0.017897
    73  H   -0.030912
    74  H   -0.037564
    75  H    0.076259
    76  H    0.060114
    77  H    0.059837
    78  H    0.034739
    79  H    0.036957
    80  H    0.034813
    81  H    0.012307
    82  H    0.042438
    83  H    0.058012
    84  H    0.057781
    85  H    0.016557
    86  H    0.044043
    87  H    0.011099
    88  H   -0.013095
    89  H    0.014381
    90  H    0.037127
    91  H    0.004716
    92  H    0.026742
    93  H    0.045702
    94  H    0.087632
    95  H    0.042894
    96  H    0.034537
    97  H    0.049511
    98  H    0.026481
    99  H    0.020112
   100  H   -0.109549
   101  H    0.007440
   102  H    0.057014
   103  H   -0.037506
   104  H    0.013348
   105  H    0.025998
   106  H    0.051374
   107  H    0.011705
   108  H    0.008050
   109  H    0.012452
   110  H    0.006989
   111  H    0.018926
   112  H    0.009926
   113  H    0.019805
   114  H   -0.021545
   115  H    0.014558
   116  H    0.010788
   117  H    0.025074
   118  H    0.024293
   119  H    0.012360
   120  H   -0.001140
   121  H    0.008710
   122  H   -0.001621
   123  H   -0.009319
   124  H    0.013861
   125  H   -0.033538
   126  H   -0.000767
   127  H   -0.000373
   128  H    0.000154
   129  H    0.005883
   130  H    0.016266
   131  H    0.047150
   132  H    0.030115
   133  H    0.022534
   134  H   -0.001069
   135  H   -0.022356
   136  H   -0.043057
   137  H    0.192302
   138  H    0.166428
 Sum of Mulliken charges =   0.00000

 Dipole moment (field-independent basis, Debye):
    X=             -0.3235    Y=              4.4419    Z=              0.5048  Tot=              4.4822
 Quadrupole moment (field-independent basis, Debye-Ang):
   XX=           -342.4085   YY=           -384.3522   ZZ=           -397.5489
   XY=            -26.3107   XZ=              7.8774   YZ=              1.7769

 Normal termination of Gaussian 09 at Wed Jul 31 19:14:11 2019.
