 Gaussian 09, Revision D.01,
 Gaussian 09:  ES64L-G09RevD.01 24-Apr-2013

 --------------------------
 # td=(NStates=1) B3LYP/SVP
 --------------------------

 --
 TD
 --
 Symbolic Z-matrix:
 Charge =  0 Multiplicity = 1

                         Standard orientation:
 ---------------------------------------------------------------------
 Center     Atomic      Atomic             Coordinates (Angstroms)
 Number     Number       Type             X           Y           Z
 ---------------------------------------------------------------------
      1          6           0       -5.220621   -1.825330    0.468587
      2          6           0       -4.662778    2.803839    1.350928
      3          6           0       -9.269425    3.398357   -0.105151
      4          6           0       -9.892001   -1.409939   -0.874782
      5          7           0       -5.194254    0.505485    0.751773
      6          6           0       -4.531505   -0.700282    0.879125
      7          6           0       -3.018071   -0.672521    1.275422
      8          6           0       -3.040591    0.872694    1.683664
      9          6           0       -4.262622    1.470758    1.188803
     10          6           0       -2.982677    0.986098    3.201014
     11          6           0       -2.116923   -0.882486    0.007416
     12          6           0       -0.647761   -0.839232    0.437651
     13          6           0        0.326217   -1.189105   -0.660614
     14          8           0       -0.027839   -1.601036   -1.755389
     15          8           0        1.623208   -1.060950   -0.300472
     16          7           0       -6.975088    2.829784    0.500486
     17          6           0       -5.837384    3.458125    0.944705
     18          6           0       -6.088432    4.887001    0.900075
     19          6           0       -7.361947    5.033664    0.474803
     20          6           0       -7.941415    3.746385    0.082191
     21          6           0       -5.000863    5.874464    1.377001
     22          6           0       -8.076210    6.314034    0.262689
     23          6           0       -8.985377    6.765032   -0.713792
     24          7           0       -9.229618    0.975850   -0.607728
     25          6           0       -9.847144    2.120017   -0.379813
     26          6           0      -11.295472    1.934621   -0.816679
     27          6           0      -11.437216    0.651885   -1.127988
     28          6           0      -10.145033    0.052406   -0.910966
     29          6           0      -12.193514    3.044052   -1.096168
     30          6           0      -12.678874   -0.144590   -1.394940
     31          6           0      -12.692031   -0.570486   -2.961655
     32          7           0       -7.626069   -1.220052   -0.223277
     33          6           0       -8.632626   -1.880937   -0.686147
     34          6           0       -8.263828   -3.318403   -0.558532
     35          6           0       -6.970949   -3.378217   -0.146186
     36          6           0       -6.494620   -1.979629    0.055293
     37          6           0       -9.222693   -4.509893   -0.962366
     38          6           0       -5.733428   -4.253277    0.105374
     39          8           0       -5.752401   -5.447604   -0.032910
     40          6           0       -4.551992   -3.204861    0.537497
     41          6           0       -3.965217   -3.774419    1.768099
     42          8           0       -4.156500   -3.266996    2.896027
     43          8           0       -3.221460   -4.884284    1.493962
     44          6           0       -2.533925   -5.477672    2.650650
     45          6           0        2.656102   -1.361243   -1.271741
     46          6           0        4.040814   -1.111177   -0.574182
     47          6           0        4.981663   -0.332855   -1.030759
     48          6           0        4.848416    0.605915   -2.336853
     49          6           0        6.315169   -0.150968   -0.218795
     50          6           0        7.531496   -0.567394   -0.949062
     51          6           0        8.712024   -0.378323    0.035016
     52          6           0       10.130963   -0.843783   -0.764925
     53          6           0       10.145516   -2.458587   -0.985581
     54          6           0       11.343200   -0.416202   -0.017539
     55          6           0       12.767856   -0.524605   -0.646398
     56          6           0       13.843918   -0.096467    0.276466
     57          6           0       15.203973   -0.260194   -0.446178
     58          6           0       15.597503   -1.659615   -0.704653
     59          6           0       16.288953    0.597565    0.254210
     60          6           0       17.771086    0.722554   -0.289473
     61          6           0       18.561899    1.801598    0.605478
     62          6           0       20.056352    1.866116    0.237291
     63          6           0       20.210134    2.481545   -1.092800
     64          6           0       20.733735    2.797343    1.344737
     65          1           0       -3.836532    3.501844    1.763992
     66          1           0       -9.876707    4.410808   -0.424963
     67          1           0      -10.878627   -1.880369   -1.055223
     68          1           0       -2.799527   -1.418854    2.021894
     69          1           0       -2.240747    1.556956    1.320297
     70          1           0       -1.910252    0.621340    3.542671
     71          1           0       -2.967453    2.144777    3.606212
     72          1           0       -3.927137    0.463910    3.854674
     73          1           0       -2.319368   -2.048779   -0.209682
     74          1           0       -2.286886   -0.240179   -0.811935
     75          1           0       -0.293493    0.170789    0.889322
     76          1           0       -0.411156   -1.623485    1.212111
     77          1           0       -4.179012    5.961485    0.750827
     78          1           0       -5.304495    6.933529    1.594009
     79          1           0       -4.597150    5.477902    2.267970
     80          1           0       -8.033570    6.988940    1.071377
     81          1           0       -9.104431    6.005182   -1.542291
     82          1           0       -9.358669    7.809220   -0.538529
     83          1           0      -12.185809    3.899880   -0.262750
     84          1           0      -11.891164    3.457989   -2.186578
     85          1           0      -13.395322    2.619097   -1.283806
     86          1           0      -12.834995   -1.068993   -0.858485
     87          1           0      -13.553502    0.417068   -1.326828
     88          1           0      -12.789762    0.347784   -3.595379
     89          1           0      -11.903162   -1.303103   -3.311153
     90          1           0      -13.639006   -1.283862   -3.169384
     91          1           0       -9.853832   -4.696011   -0.068172
     92          1           0       -9.656909   -4.534896   -1.813923
     93          1           0       -8.612646   -5.489309   -1.005314
     94          1           0       -3.891169   -3.319753   -0.117719
     95          1           0       -1.907471   -6.300291    2.372173
     96          1           0       -2.071706   -4.711935    3.355504
     97          1           0       -3.354110   -5.967772    3.414251
     98          1           0        2.602269   -2.331454   -1.621651
     99          1           0        2.530118   -0.757676   -2.312607
    100          1           0        3.925554   -1.491913    0.392473
    101          1           0        5.226578    1.682055   -1.858892
    102          1           0        5.463510    0.188150   -3.112753
    103          1           0        3.830426    0.990099   -2.625111
    104          1           0        6.488137    0.979545    0.030594
    105          1           0        6.185996   -0.616481    0.857331
    106          1           0        7.470354   -1.725971   -1.156142
    107          1           0        7.870445   -0.094723   -1.847260
    108          1           0        8.854080    0.665247    0.314363
    109          1           0        8.579855   -1.152346    0.811742
    110          1           0       10.207056   -0.252327   -1.687591
    111          1           0        9.242572   -2.984402   -1.669967
    112          1           0       11.199584   -2.725971   -1.754942
    113          1           0       10.196335   -2.867164    0.101834
    114          1           0       11.254974    0.701482    0.328826
    115          1           0       11.409812   -0.867851    1.101474
    116          1           0       13.186386   -1.559443   -0.847171
    117          1           0       12.809143   -0.040752   -1.576279
    118          1           0       13.758948    1.011889    0.694108
    119          1           0       13.824911   -0.644882    1.212657
    120          1           0       15.336220    0.356962   -1.421107
    121          1           0       14.907544   -2.263726   -1.171284
    122          1           0       16.738973   -1.694556   -1.242923
    123          1           0       15.846962   -2.117197    0.315998
    124          1           0       16.016029    1.674733    0.496679
    125          1           0       16.277627    0.196882    1.498505
    126          1           0       18.395048   -0.170742   -0.435514
    127          1           0       17.394941    0.915955   -1.455570
    128          1           0       18.080518    2.868883    0.387004
    129          1           0       18.413251    1.640396    1.772085
    130          1           0       20.477032    0.846542    0.338057
    131          1           0       19.587039    3.352228   -1.456573
    132          1           0       21.163027    2.553937   -1.401726
    133          1           0       19.805571    1.742038   -1.842792
    134          1           0       20.824114    2.411478    2.362809
    135          1           0       21.758336    2.948768    1.198160
    136          1           0       20.379448    3.874098    1.060483
    137          1           0       -7.241476    1.829114    0.445400
    138          1           0       -7.787254   -0.202568   -0.113198
 ---------------------------------------------------------------------

 SCF Done:  E(RB3LYP) =  -2733.02325378     A.U. after   17 cycles

 Excitation energies and oscillator strengths:

 Excited State   1:      Singlet-A      2.0714 eV  598.54 nm  f=0.1401  <S**2>=0.000
     235 -> 238       -0.32852
     236 -> 237        0.62366
 This state for optimization and/or second-order correction.
 Total Energy, E(TD-HF/TD-KS) =  -2732.94712999
 Copying the excited state density for this state as the 1-particle RhoCI density.

 The electronic state is 1-A.
 Alpha  occ. eigenvalues --  -19.19528 -19.18136 -19.13787 -19.12854 -19.12106
 Alpha  occ. eigenvalues --  -14.36791 -14.36679 -14.32527 -14.29874 -10.32571
 Alpha  occ. eigenvalues --  -10.31596 -10.29485 -10.26514 -10.25146 -10.24054
 Alpha  occ. eigenvalues --  -10.23636 -10.23056 -10.23032 -10.23000 -10.22678
 Alpha  occ. eigenvalues --  -10.22433 -10.21965 -10.21685 -10.21653 -10.21646
 Alpha  occ. eigenvalues --  -10.21511 -10.21411 -10.21174 -10.21130 -10.20941
 Alpha  occ. eigenvalues --  -10.20932 -10.20921 -10.20793 -10.20720 -10.20677
 Alpha  occ. eigenvalues --  -10.20585 -10.20575 -10.20410 -10.20343 -10.20300
 Alpha  occ. eigenvalues --  -10.20244 -10.20187 -10.20101 -10.20068 -10.20048
 Alpha  occ. eigenvalues --  -10.19905 -10.19697 -10.19546 -10.19524 -10.19502
 Alpha  occ. eigenvalues --  -10.19474 -10.19408 -10.19322 -10.19020 -10.19000
 Alpha  occ. eigenvalues --  -10.18985 -10.18864 -10.18601 -10.18525 -10.17958
 Alpha  occ. eigenvalues --  -10.17864 -10.17702 -10.17153 -10.17059  -1.08948
 Alpha  occ. eigenvalues --   -1.08770  -1.04315  -1.00002  -0.99676  -0.99547
 Alpha  occ. eigenvalues --   -0.97495  -0.94751  -0.93253  -0.85487  -0.82196
 Alpha  occ. eigenvalues --   -0.81759  -0.81309  -0.81134  -0.80487  -0.80356
 Alpha  occ. eigenvalues --   -0.79472  -0.79455  -0.79301  -0.78573  -0.78078
 Alpha  occ. eigenvalues --   -0.77061  -0.76051  -0.75239  -0.74226  -0.73762
 Alpha  occ. eigenvalues --   -0.73433  -0.72755  -0.71876  -0.71265  -0.70901
 Alpha  occ. eigenvalues --   -0.69944  -0.69661  -0.68498  -0.68043  -0.67273
 Alpha  occ. eigenvalues --   -0.66674  -0.66282  -0.65378  -0.65095  -0.64584
 Alpha  occ. eigenvalues --   -0.63778  -0.62581  -0.62110  -0.61479  -0.61174
 Alpha  occ. eigenvalues --   -0.61097  -0.59100  -0.58272  -0.57921  -0.57429
 Alpha  occ. eigenvalues --   -0.57111  -0.56569  -0.56381  -0.56017  -0.55635
 Alpha  occ. eigenvalues --   -0.55386  -0.55253  -0.53595  -0.53084  -0.53058
 Alpha  occ. eigenvalues --   -0.52390  -0.52236  -0.52008  -0.51715  -0.50935
 Alpha  occ. eigenvalues --   -0.49577  -0.49451  -0.48621  -0.48052  -0.47989
 Alpha  occ. eigenvalues --   -0.47890  -0.47574  -0.47127  -0.46981  -0.46701
 Alpha  occ. eigenvalues --   -0.46557  -0.46381  -0.46147  -0.45868  -0.45607
 Alpha  occ. eigenvalues --   -0.45351  -0.45249  -0.44944  -0.44635  -0.44477
 Alpha  occ. eigenvalues --   -0.44263  -0.44023  -0.43978  -0.43972  -0.43792
 Alpha  occ. eigenvalues --   -0.43500  -0.43431  -0.42852  -0.42713  -0.42450
 Alpha  occ. eigenvalues --   -0.42295  -0.41981  -0.41796  -0.41541  -0.41367
 Alpha  occ. eigenvalues --   -0.41291  -0.41017  -0.40834  -0.40723  -0.40296
 Alpha  occ. eigenvalues --   -0.39975  -0.39781  -0.39588  -0.39524  -0.39289
 Alpha  occ. eigenvalues --   -0.38863  -0.38646  -0.38396  -0.38170  -0.37994
 Alpha  occ. eigenvalues --   -0.37613  -0.37336  -0.37236  -0.37092  -0.37081
 Alpha  occ. eigenvalues --   -0.36997  -0.36933  -0.36778  -0.36692  -0.36547
 Alpha  occ. eigenvalues --   -0.36311  -0.36126  -0.35806  -0.35719  -0.35654
 Alpha  occ. eigenvalues --   -0.35561  -0.35449  -0.35327  -0.35003  -0.34954
 Alpha  occ. eigenvalues --   -0.34757  -0.34592  -0.34501  -0.34387  -0.34308
 Alpha  occ. eigenvalues --   -0.34047  -0.33508  -0.32767  -0.32554  -0.31996
 Alpha  occ. eigenvalues --   -0.31958  -0.31903  -0.31648  -0.31492  -0.31087
 Alpha  occ. eigenvalues --   -0.30758  -0.30507  -0.30488  -0.30415  -0.29507
 Alpha  occ. eigenvalues --   -0.29215  -0.28498  -0.28380  -0.28098  -0.27983
 Alpha  occ. eigenvalues --   -0.27549  -0.27432  -0.26757  -0.26296  -0.26081
 Alpha  occ. eigenvalues --   -0.26025  -0.25372  -0.24141  -0.22648  -0.19919
 Alpha  occ. eigenvalues --   -0.18381
 Alpha virt. eigenvalues --   -0.09419  -0.07974  -0.04563  -0.02094  -0.01158
 Alpha virt. eigenvalues --    0.00017   0.00306   0.00718   0.02012   0.03149
 Alpha virt. eigenvalues --    0.03459   0.03840   0.03864   0.04412   0.04736

 Mulliken charges:
               1
     1  C    0.079509
     2  C   -0.103697
     3  C   -0.094993
     4  C   -0.060758
     5  N   -0.222482
     6  C   -0.117093
     7  C    0.025912
     8  C    0.015594
     9  C    0.026407
    10  C   -0.061621
    11  C    0.064067
    12  C   -0.001363
    13  C    0.172575
    14  O   -0.246806
    15  O   -0.320103
    16  N   -0.093336
    17  C    0.106361
    18  C   -0.098673
    19  C    0.007303
    20  C    0.036639
    21  C    0.150553
    22  C   -0.089049
    23  C   -0.035423
    24  N   -0.204667
    25  C    0.049295
    26  C   -0.114716
    27  C   -0.041819
    28  C   -0.050055
    29  C   -0.055684
    30  C    0.118337
    31  C   -0.094110
    32  N    0.004399
    33  C    0.110531
    34  C   -0.220300
    35  C    0.022344
    36  C    0.092701
    37  C    0.149029
    38  C    0.076958
    39  O   -0.132655
    40  C    0.078584
    41  C    0.203367
    42  O   -0.263263
    43  O   -0.308499
    44  C    0.149991
    45  C    0.242666
    46  C   -0.072819
    47  C   -0.073835
    48  C    0.005611
    49  C    0.028978
    50  C    0.014117
    51  C    0.010023
    52  C   -0.037370
    53  C   -0.105262
    54  C   -0.017908
    55  C    0.095521
    56  C    0.000635
    57  C   -0.069209
    58  C    0.039448
    59  C   -0.068856
    60  C   -0.010388
    61  C   -0.030303
    62  C   -0.088957
    63  C    0.082568
    64  C    0.043773
    65  H   -0.013443
    66  H    0.031567
    67  H   -0.008731
    68  H    0.007064
    69  H    0.000785
    70  H    0.028243
    71  H    0.023885
    72  H    0.065538
    73  H    0.040128
    74  H    0.015640
    75  H    0.044318
    76  H    0.034143
    77  H    0.002702
    78  H    0.017643
    79  H    0.010896
    80  H   -0.004875
    81  H    0.047077
    82  H    0.044286
    83  H    0.056042
    84  H    0.054520
    85  H    0.030903
    86  H    0.008542
    87  H   -0.027500
    88  H    0.031929
    89  H    0.031468
    90  H    0.007101
    91  H    0.029734
    92  H   -0.018482
    93  H    0.025305
    94  H   -0.042315
    95  H    0.044195
    96  H    0.050052
    97  H    0.044374
    98  H    0.002307
    99  H    0.027744
   100  H   -0.020272
   101  H    0.028210
   102  H    0.045988
   103  H    0.041116
   104  H    0.004859
   105  H    0.017473
   106  H    0.010415
   107  H   -0.002233
   108  H    0.006350
   109  H    0.005429
   110  H   -0.007960
   111  H    0.051622
   112  H    0.038414
   113  H    0.043723
   114  H   -0.002643
   115  H   -0.010015
   116  H   -0.009698
   117  H   -0.025211
   118  H   -0.005475
   119  H   -0.008655
   120  H   -0.001258
   121  H    0.011074
   122  H    0.023587
   123  H    0.006213
   124  H    0.013301
   125  H   -0.028876
   126  H    0.010901
   127  H    0.013814
   128  H    0.013289
   129  H    0.028031
   130  H    0.000467
   131  H    0.015784
   132  H   -0.026434
   133  H   -0.011779
   134  H    0.010329
   135  H   -0.030255
   136  H    0.013011
   137  H    0.157144
   138  H    0.139714
 Sum of Mulliken charges =   0.00000

 Dipole moment (field-independent basis, Debye):
    X=              4.1269    Y=              2.9288    Z=              1.0097  Tot=              5.1603
 Quadrupole moment (field-independent basis, Debye-Ang):
   XX=           -367.6669   YY=           -381.2253   ZZ=           -399.6291
   XY=            -13.7942   XZ=             -2.8926   YZ=             -3.1986

 Normal termination of Gaussian 09 at Fri Aug  2 18:53:30 2019.
