 Gaussian 09, Revision D.01,
 Gaussian 09:  ES64L-G09RevD.01 24-Apr-2013

 --------------------------
 # td=(NStates=1) B3LYP/SVP
 --------------------------

 --
 TD
 --
 Symbolic Z-matrix:
 Charge =  0 Multiplicity = 1

                         Standard orientation:
 ---------------------------------------------------------------------
 Center     Atomic      Atomic             Coordinates (Angstroms)
 Number     Number       Type             X           Y           Z
 ---------------------------------------------------------------------
      1          6           0       -5.013214   -1.931603    0.573137
      2          6           0       -4.682974    2.747626    1.353071
      3          6           0       -9.269091    3.393718   -0.303038
      4          6           0       -9.776271   -1.406230   -0.949807
      5          7           0       -5.064383    0.523594    0.705891
      6          6           0       -4.401576   -0.726847    0.709622
      7          6           0       -3.019054   -0.534914    1.253434
      8          6           0       -2.911432    0.877363    1.672206
      9          6           0       -4.201210    1.459636    1.269273
     10          6           0       -2.916963    0.873066    3.301000
     11          6           0       -1.965077   -0.824779    0.113676
     12          6           0       -0.480970   -0.814633    0.577539
     13          6           0        0.425619   -1.071360   -0.622340
     14          8           0        0.084057   -1.564834   -1.700424
     15          8           0        1.690087   -0.857751   -0.301561
     16          7           0       -6.992862    2.705471    0.460848
     17          6           0       -5.923661    3.385662    0.934691
     18          6           0       -6.221801    4.748285    0.994565
     19          6           0       -7.497891    4.937771    0.499122
     20          6           0       -7.960382    3.561432    0.097670
     21          6           0       -5.352224    5.783742    1.482802
     22          6           0       -8.143315    6.185465    0.530582
     23          6           0       -8.986374    6.684748   -0.421599
     24          7           0       -9.163133    0.962205   -0.402085
     25          6           0       -9.870203    2.100922   -0.479613
     26          6           0      -11.337829    1.892607   -0.800485
     27          6           0      -11.407005    0.514259   -0.987844
     28          6           0      -10.003168   -0.126159   -0.772160
     29          6           0      -12.378320    2.936625   -0.991003
     30          6           0      -12.577397   -0.279964   -1.514926
     31          6           0      -12.714088   -0.238100   -3.093207
     32          7           0       -7.452844   -1.248038   -0.232970
     33          6           0       -8.481162   -1.981091   -0.765039
     34          6           0       -8.130052   -3.335829   -0.626726
     35          6           0       -6.793071   -3.407959   -0.217234
     36          6           0       -6.363652   -2.094937    0.059437
     37          6           0       -9.015717   -4.552158   -0.974988
     38          6           0       -5.619244   -4.240435    0.084542
     39          8           0       -5.506539   -5.445721   -0.077788
     40          6           0       -4.446229   -3.341772    0.519074
     41          6           0       -3.986613   -3.802433    1.809849
     42          8           0       -4.002291   -3.235749    2.895003
     43          8           0       -3.130034   -5.029436    1.551110
     44          6           0       -2.353518   -5.483175    2.699825
     45          6           0        2.653389   -1.143288   -1.262422
     46          6           0        3.961270   -0.775403   -0.711208
     47          6           0        4.921087    0.037051   -1.233804
     48          6           0        4.861922    0.644842   -2.576552
     49          6           0        6.177817    0.351891   -0.501648
     50          6           0        7.534847   -0.095449   -1.209679
     51          6           0        8.717514   -0.126673   -0.211977
     52          6           0        9.981340   -0.779151   -0.807849
     53          6           0        9.861456   -2.292869   -0.949124
     54          6           0       11.184407   -0.355670    0.157030
     55          6           0       12.536717   -0.503007   -0.513340
     56          6           0       13.826713   -0.119637    0.372230
     57          6           0       15.150658   -0.250434   -0.228904
     58          6           0       15.442711   -1.775073   -0.651426
     59          6           0       16.139858    0.543707    0.539717
     60          6           0       17.534614    0.635622    0.002091
     61          6           0       18.488446    1.624029    0.713717
     62          6           0       19.934900    1.807913    0.167589
     63          6           0       19.879682    2.329597   -1.266965
     64          6           0       20.746887    2.669902    1.128859
     65          1           0       -4.118395    3.583989    1.937446
     66          1           0       -9.955946    4.302074   -0.660597
     67          1           0      -10.645153   -2.015461   -1.261976
     68          1           0       -2.793390   -1.256922    2.084114
     69          1           0       -2.222956    1.352967    1.034689
     70          1           0       -2.013049    0.192678    3.675500
     71          1           0       -2.784699    1.868984    3.832966
     72          1           0       -3.823330    0.393132    3.458333
     73          1           0       -2.196316   -1.856908   -0.338151
     74          1           0       -1.998461   -0.114729   -0.578237
     75          1           0       -0.200527   -0.022901    0.945185
     76          1           0       -0.457245   -1.665885    1.375937
     77          1           0       -4.322139    5.880439    0.934447
     78          1           0       -5.971315    6.667221    1.562716
     79          1           0       -4.900803    5.259875    2.354578
     80          1           0       -7.878426    6.869972    1.348035
     81          1           0       -8.841729    6.148970   -1.534266
     82          1           0       -9.593296    7.612510   -0.475911
     83          1           0      -12.470026    3.484340   -0.141904
     84          1           0      -12.012702    3.588052   -1.991943
     85          1           0      -13.358752    2.309939   -1.155199
     86          1           0      -12.362784   -1.424639   -1.138882
     87          1           0      -13.654235    0.115904   -1.169611
     88          1           0      -13.161753    0.808944   -3.526093
     89          1           0      -11.751260   -0.814602   -3.788139
     90          1           0      -13.628155   -1.063118   -3.180430
     91          1           0      -10.011419   -4.492599   -0.569904
     92          1           0       -8.975258   -4.955629   -2.077174
     93          1           0       -8.627416   -5.569750   -0.253703
     94          1           0       -3.742258   -3.475721   -0.276098
     95          1           0       -1.882747   -6.287818    2.133044
     96          1           0       -1.459579   -4.925112    3.027688
     97          1           0       -3.016424   -5.980138    3.591941
     98          1           0        2.746438   -2.213975   -1.574138
     99          1           0        2.324014   -0.582698   -2.190406
    100          1           0        4.296320   -1.320689    0.057644
    101          1           0        5.230023    1.640939   -2.429422
    102          1           0        5.427529   -0.013607   -3.270993
    103          1           0        3.831195    0.827637   -3.085312
    104          1           0        6.261559    1.465618   -0.369321
    105          1           0        6.363190   -0.160069    0.511753
    106          1           0        7.332098   -1.163797   -1.598784
    107          1           0        7.802240    0.373661   -2.343164
    108          1           0        8.831438    1.130865    0.012076
    109          1           0        8.398037   -0.624998    0.761194
    110          1           0       10.269192   -0.478926   -1.895583
    111          1           0        9.034394   -2.486222   -1.862435
    112          1           0       10.825858   -2.624828   -1.426089
    113          1           0        9.603770   -2.858690   -0.097026
    114          1           0       10.805204    0.717284    0.414097
    115          1           0       11.075740   -1.035355    1.071879
    116          1           0       12.683499   -1.452362   -0.972046
    117          1           0       12.578229    0.067777   -1.387632
    118          1           0       13.653451    0.951058    0.656009
    119          1           0       13.993681   -0.661738    1.269768
    120          1           0       15.256966    0.232328   -1.160113
    121          1           0       14.677310   -2.223876   -1.054237
    122          1           0       16.466475   -1.701519   -1.074487
    123          1           0       15.903317   -2.452250    0.209306
    124          1           0       15.673761    1.502612    0.488351
    125          1           0       16.072832    0.070458    1.615737
    126          1           0       18.125438   -0.381625   -0.087138
    127          1           0       17.344157    0.898758   -1.000913
    128          1           0       17.965896    2.653523    0.772762
    129          1           0       18.576930    1.487230    1.642065
    130          1           0       20.442304    0.711126   -0.041848
    131          1           0       19.617713    3.373695   -1.232408
    132          1           0       21.012088    2.538066   -1.589305
    133          1           0       19.094611    1.671822   -1.950383
    134          1           0       20.670154    2.261109    2.170923
    135          1           0       21.823984    2.647387    0.961524
    136          1           0       20.488356    3.747647    1.229863
    137          1           0       -7.067662    1.674869    0.279369
    138          1           0       -7.616113   -0.159710   -0.090694
 ---------------------------------------------------------------------

 SCF Done:  E(RB3LYP) =  -2733.00051561     A.U. after   17 cycles

 Excitation energies and oscillator strengths:

 Excited State   1:      Singlet-A      2.0640 eV  600.70 nm  f=0.2484  <S**2>=0.000
     235 -> 237       -0.23345
     235 -> 238       -0.22993
     236 -> 237        0.61683
     236 -> 238       -0.10778
 This state for optimization and/or second-order correction.
 Total Energy, E(TD-HF/TD-KS) =  -2732.92466526
 Copying the excited state density for this state as the 1-particle RhoCI density.

 The electronic state is 1-A.
 Alpha  occ. eigenvalues --  -19.18275 -19.15655 -19.14439 -19.12084 -19.11313
 Alpha  occ. eigenvalues --  -14.37794 -14.36745 -14.32231 -14.31313 -10.32148
 Alpha  occ. eigenvalues --  -10.31457 -10.27516 -10.24612 -10.24413 -10.24342
 Alpha  occ. eigenvalues --  -10.23897 -10.23266 -10.23090 -10.22985 -10.22744
 Alpha  occ. eigenvalues --  -10.22656 -10.22296 -10.22296 -10.21880 -10.21647
 Alpha  occ. eigenvalues --  -10.21503 -10.21342 -10.21038 -10.20945 -10.20931
 Alpha  occ. eigenvalues --  -10.20801 -10.20704 -10.20639 -10.20604 -10.20544
 Alpha  occ. eigenvalues --  -10.20534 -10.20502 -10.20448 -10.20307 -10.20204
 Alpha  occ. eigenvalues --  -10.20182 -10.20100 -10.20055 -10.19960 -10.19947
 Alpha  occ. eigenvalues --  -10.19622 -10.19384 -10.19370 -10.19329 -10.19257
 Alpha  occ. eigenvalues --  -10.19242 -10.19176 -10.19104 -10.18807 -10.18647
 Alpha  occ. eigenvalues --  -10.18383 -10.18316 -10.18110 -10.17932 -10.17638
 Alpha  occ. eigenvalues --  -10.17595 -10.17506 -10.17300 -10.17113  -1.11110
 Alpha  occ. eigenvalues --   -1.05648  -1.01735  -0.99936  -0.99901  -0.98146
 Alpha  occ. eigenvalues --   -0.97002  -0.93374  -0.92411  -0.85469  -0.83884
 Alpha  occ. eigenvalues --   -0.83007  -0.82754  -0.81655  -0.81095  -0.80767
 Alpha  occ. eigenvalues --   -0.79965  -0.79719  -0.79132  -0.78836  -0.78223
 Alpha  occ. eigenvalues --   -0.77180  -0.76183  -0.75869  -0.75148  -0.74351
 Alpha  occ. eigenvalues --   -0.73486  -0.73012  -0.72276  -0.71619  -0.71343
 Alpha  occ. eigenvalues --   -0.69586  -0.68278  -0.67962  -0.67835  -0.67463
 Alpha  occ. eigenvalues --   -0.67306  -0.66930  -0.66880  -0.65952  -0.65727
 Alpha  occ. eigenvalues --   -0.64243  -0.63672  -0.62701  -0.62023  -0.61660
 Alpha  occ. eigenvalues --   -0.59803  -0.59229  -0.58593  -0.58213  -0.57331
 Alpha  occ. eigenvalues --   -0.57055  -0.56418  -0.55798  -0.55448  -0.55094
 Alpha  occ. eigenvalues --   -0.54927  -0.54285  -0.53928  -0.53660  -0.53328
 Alpha  occ. eigenvalues --   -0.52183  -0.52001  -0.51604  -0.51146  -0.50734
 Alpha  occ. eigenvalues --   -0.50376  -0.49856  -0.48847  -0.48711  -0.48481
 Alpha  occ. eigenvalues --   -0.48379  -0.47894  -0.47446  -0.47235  -0.47007
 Alpha  occ. eigenvalues --   -0.46665  -0.46348  -0.46236  -0.45886  -0.45696
 Alpha  occ. eigenvalues --   -0.45543  -0.45168  -0.44992  -0.44973  -0.44541
 Alpha  occ. eigenvalues --   -0.44442  -0.44145  -0.43781  -0.43598  -0.43512
 Alpha  occ. eigenvalues --   -0.43458  -0.43065  -0.42817  -0.42786  -0.42644
 Alpha  occ. eigenvalues --   -0.42490  -0.42205  -0.41868  -0.41553  -0.41507
 Alpha  occ. eigenvalues --   -0.41292  -0.40996  -0.40513  -0.40454  -0.40287
 Alpha  occ. eigenvalues --   -0.40163  -0.39899  -0.39614  -0.39482  -0.39158
 Alpha  occ. eigenvalues --   -0.38981  -0.38871  -0.38742  -0.38701  -0.38511
 Alpha  occ. eigenvalues --   -0.38378  -0.38064  -0.37786  -0.37625  -0.37364
 Alpha  occ. eigenvalues --   -0.37334  -0.37162  -0.37030  -0.36882  -0.36630
 Alpha  occ. eigenvalues --   -0.36341  -0.36192  -0.35911  -0.35647  -0.35538
 Alpha  occ. eigenvalues --   -0.35200  -0.35004  -0.34962  -0.34881  -0.34690
 Alpha  occ. eigenvalues --   -0.34543  -0.34488  -0.34179  -0.33770  -0.33613
 Alpha  occ. eigenvalues --   -0.33544  -0.33318  -0.33260  -0.32951  -0.32809
 Alpha  occ. eigenvalues --   -0.32575  -0.31942  -0.31731  -0.31717  -0.30917
 Alpha  occ. eigenvalues --   -0.30829  -0.30620  -0.30470  -0.30361  -0.30256
 Alpha  occ. eigenvalues --   -0.29599  -0.28989  -0.28654  -0.28004  -0.27853
 Alpha  occ. eigenvalues --   -0.27759  -0.27109  -0.27039  -0.26646  -0.25425
 Alpha  occ. eigenvalues --   -0.24552  -0.24156  -0.23864  -0.22969  -0.20188
 Alpha  occ. eigenvalues --   -0.19113
 Alpha virt. eigenvalues --   -0.10858  -0.07211  -0.04280  -0.03171  -0.02022
 Alpha virt. eigenvalues --   -0.00822  -0.00017   0.00165   0.01480   0.02611
 Alpha virt. eigenvalues --    0.03485   0.04210   0.04220   0.04347   0.04704

 Mulliken charges:
               1
     1  C    0.009910
     2  C   -0.073368
     3  C   -0.148106
     4  C   -0.120222
     5  N   -0.246879
     6  C    0.006078
     7  C   -0.113936
     8  C    0.181999
     9  C   -0.063004
    10  C    0.030163
    11  C    0.031604
    12  C    0.151474
    13  C    0.157251
    14  O   -0.260840
    15  O   -0.259750
    16  N   -0.006525
    17  C    0.049655
    18  C   -0.122016
    19  C    0.034460
    20  C    0.136403
    21  C    0.107083
    22  C   -0.086655
    23  C   -0.096110
    24  N   -0.285883
    25  C    0.034421
    26  C   -0.154107
    27  C   -0.051427
    28  C    0.146997
    29  C    0.101277
    30  C   -0.053482
    31  C   -0.115313
    32  N   -0.142697
    33  C    0.102075
    34  C   -0.167883
    35  C    0.073240
    36  C    0.056366
    37  C   -0.001930
    38  C    0.001248
    39  O   -0.166907
    40  C    0.019713
    41  C    0.272047
    42  O   -0.207317
    43  O   -0.391012
    44  C    0.150568
    45  C    0.272796
    46  C   -0.048444
    47  C   -0.148057
    48  C    0.072729
    49  C    0.070111
    50  C   -0.099598
    51  C   -0.003872
    52  C   -0.127924
    53  C    0.006301
    54  C    0.039010
    55  C    0.101167
    56  C    0.061209
    57  C   -0.074858
    58  C    0.069463
    59  C    0.030474
    60  C    0.047088
    61  C    0.134068
    62  C   -0.133677
    63  C   -0.000637
    64  C    0.029558
    65  H   -0.027481
    66  H    0.031689
    67  H   -0.007063
    68  H    0.024166
    69  H   -0.028577
    70  H    0.034978
    71  H    0.034492
    72  H    0.031720
    73  H    0.032605
    74  H   -0.037704
    75  H   -0.073720
    76  H    0.049892
    77  H    0.037235
    78  H    0.018547
    79  H    0.022700
    80  H    0.019045
    81  H    0.054695
    82  H    0.042011
    83  H    0.008544
    84  H    0.058695
    85  H    0.024090
    86  H    0.036081
    87  H    0.037484
    88  H    0.057306
    89  H    0.055577
    90  H    0.031383
    91  H    0.018791
    92  H    0.063765
    93  H    0.044178
    94  H    0.074754
    95  H    0.022633
    96  H    0.025617
    97  H    0.052501
    98  H    0.028182
    99  H    0.011657
   100  H   -0.060241
   101  H    0.003990
   102  H    0.043875
   103  H    0.021787
   104  H    0.019287
   105  H    0.006893
   106  H    0.003964
   107  H    0.021701
   108  H    0.022551
   109  H    0.019671
   110  H    0.003967
   111  H    0.021074
   112  H    0.015448
   113  H    0.009866
   114  H    0.010454
   115  H    0.002365
   116  H   -0.033333
   117  H   -0.038178
   118  H   -0.015092
   119  H   -0.022860
   120  H   -0.044640
   121  H   -0.018348
   122  H   -0.000896
   123  H   -0.008720
   124  H   -0.015482
   125  H   -0.005077
   126  H    0.007473
   127  H   -0.024648
   128  H   -0.022898
   129  H   -0.087950
   130  H    0.011489
   131  H   -0.016016
   132  H    0.008189
   133  H    0.050835
   134  H    0.006986
   135  H    0.003910
   136  H    0.014327
   137  H    0.161397
   138  H    0.196835
 Sum of Mulliken charges =   0.00000

 Dipole moment (field-independent basis, Debye):
    X=              1.5929    Y=              6.6936    Z=              0.6335  Tot=              6.9097
 Quadrupole moment (field-independent basis, Debye-Ang):
   XX=           -336.6814   YY=           -389.5148   ZZ=           -398.3142
   XY=            -34.2685   XZ=              9.9394   YZ=             -0.0929

 Normal termination of Gaussian 09 at Sun Aug  4 00:26:59 2019.
