 Gaussian 09, Revision D.01,
 Gaussian 09:  ES64L-G09RevD.01 24-Apr-2013

 --------------------------
 # td=(NStates=1) B3LYP/SVP
 --------------------------

 --
 TD
 --
 Symbolic Z-matrix:
 Charge =  0 Multiplicity = 1

                         Standard orientation:
 ---------------------------------------------------------------------
 Center     Atomic      Atomic             Coordinates (Angstroms)
 Number     Number       Type             X           Y           Z
 ---------------------------------------------------------------------
      1          6           0       -5.179835   -1.936263    0.512491
      2          6           0       -4.523559    2.783154    1.296924
      3          6           0       -9.110550    3.351518   -0.282199
      4          6           0       -9.817536   -1.272992   -1.091432
      5          7           0       -5.152693    0.388690    0.791256
      6          6           0       -4.495751   -0.769538    0.794533
      7          6           0       -3.019456   -0.689422    1.329825
      8          6           0       -3.059796    0.723318    1.973482
      9          6           0       -4.298082    1.313770    1.259346
     10          6           0       -3.007484    0.798425    3.466860
     11          6           0       -2.018093   -0.877580    0.132092
     12          6           0       -0.556179   -0.998550    0.611449
     13          6           0        0.409827   -1.157559   -0.557949
     14          8           0        0.225518   -1.709970   -1.577188
     15          8           0        1.666178   -0.754962   -0.244135
     16          7           0       -6.908140    2.804589    0.460453
     17          6           0       -5.717859    3.367102    0.967922
     18          6           0       -6.006644    4.879366    0.961838
     19          6           0       -7.385629    5.016641    0.627798
     20          6           0       -7.848562    3.692412    0.290235
     21          6           0       -5.084219    5.872045    1.562718
     22          6           0       -7.954669    6.292827    0.552103
     23          6           0       -8.785894    6.759603   -0.464487
     24          7           0       -9.161694    0.999188   -0.582230
     25          6           0       -9.783056    2.220213   -0.590812
     26          6           0      -11.169042    2.114813   -0.892052
     27          6           0      -11.370910    0.704562   -1.181641
     28          6           0      -10.062416    0.093765   -0.981002
     29          6           0      -12.258587    3.116002   -0.928360
     30          6           0      -12.618675   -0.033533   -1.618191
     31          6           0      -12.647957   -0.303383   -3.090834
     32          7           0       -7.580872   -1.175014   -0.283204
     33          6           0       -8.582839   -2.022506   -0.772382
     34          6           0       -8.270235   -3.362704   -0.806120
     35          6           0       -6.934240   -3.400000   -0.279885
     36          6           0       -6.584172   -2.031806   -0.006558
     37          6           0       -9.115121   -4.431759   -1.208285
     38          6           0       -5.933868   -4.328562    0.066279
     39          8           0       -5.774900   -5.556455    0.099414
     40          6           0       -4.678471   -3.374044    0.522443
     41          6           0       -4.005080   -3.887757    1.730937
     42          8           0       -4.325006   -3.603270    2.889608
     43          8           0       -3.201991   -4.868748    1.405897
     44          6           0       -2.705128   -5.641463    2.563756
     45          6           0        2.680213   -1.129180   -1.162738
     46          6           0        4.020810   -0.654354   -0.542705
     47          6           0        4.953600    0.046828   -1.134773
     48          6           0        4.892192    0.593301   -2.544634
     49          6           0        6.355191    0.293263   -0.434028
     50          6           0        7.465419   -0.517315   -1.052407
     51          6           0        8.799134   -0.169952   -0.195056
     52          6           0       10.089881   -0.907112   -0.777882
     53          6           0        9.876932   -2.403557   -0.668049
     54          6           0       11.305437   -0.300100    0.002060
     55          6           0       12.586571   -0.791160   -0.591158
     56          6           0       13.733333    0.063789    0.044547
     57          6           0       15.230151   -0.292306   -0.429170
     58          6           0       15.490978   -1.779445   -0.356868
     59          6           0       16.244981    0.568008    0.425103
     60          6           0       17.717537    0.716574   -0.275423
     61          6           0       18.484667    1.677398    0.559271
     62          6           0       20.036758    1.791482    0.053185
     63          6           0       20.104768    2.618070   -1.220988
     64          6           0       20.717853    2.561713    1.221935
     65          1           0       -3.697208    3.296128    1.830384
     66          1           0       -9.797526    4.270343   -0.470371
     67          1           0      -10.705205   -2.016849   -1.350284
     68          1           0       -2.948063   -1.454405    2.158128
     69          1           0       -2.115026    1.447695    1.724149
     70          1           0       -2.136271    0.350034    4.012880
     71          1           0       -3.083130    1.773823    3.784546
     72          1           0       -3.768901    0.318349    3.851127
     73          1           0       -2.644366   -1.896357   -0.403303
     74          1           0       -2.456048    0.035954   -0.577322
     75          1           0       -0.369223   -0.109357    1.289575
     76          1           0       -0.465522   -1.991693    1.186596
     77          1           0       -4.361931    6.137209    0.917868
     78          1           0       -5.377182    6.910618    1.603575
     79          1           0       -4.646993    5.449417    2.437946
     80          1           0       -7.544723    6.705960    1.459919
     81          1           0       -8.888000    6.366270   -1.558810
     82          1           0       -9.321438    7.895698   -0.176556
     83          1           0      -12.284226    3.811389   -0.015693
     84          1           0      -12.083266    3.993345   -1.703015
     85          1           0      -13.075638    2.559945   -1.019823
     86          1           0      -13.053688   -1.019069   -1.037747
     87          1           0      -13.523888    0.845813   -1.406836
     88          1           0      -12.449866    0.579266   -3.759399
     89          1           0      -11.779104   -0.889479   -3.333898
     90          1           0      -13.649347   -0.818244   -3.410364
     91          1           0      -10.099083   -4.555105   -0.625637
     92          1           0       -9.438196   -4.336967   -2.189509
     93          1           0       -8.505101   -5.541837   -1.264108
     94          1           0       -4.021982   -3.284431   -0.235580
     95          1           0       -2.062383   -6.582310    2.091998
     96          1           0       -2.185798   -4.889448    3.417498
     97          1           0       -3.743345   -6.248157    3.013263
     98          1           0        2.519955   -2.250988   -1.350358
     99          1           0        2.500675   -0.533132   -2.195987
    100          1           0        4.168243   -0.973727    0.484300
    101          1           0        4.896989    1.644328   -2.502756
    102          1           0        5.505536    0.103040   -3.273093
    103          1           0        3.716723    0.481884   -2.989569
    104          1           0        6.567317    1.363543   -0.521496
    105          1           0        6.311917    0.136288    0.606019
    106          1           0        7.166127   -1.562404   -0.736054
    107          1           0        7.556177   -0.246776   -2.210591
    108          1           0        9.053688    0.909068   -0.319700
    109          1           0        8.624247   -0.357647    1.051892
    110          1           0       10.333472   -0.673974   -1.834655
    111          1           0        9.270098   -2.825777   -1.451585
    112          1           0       10.971986   -2.930327   -0.761766
    113          1           0        9.786779   -2.791815    0.351600
    114          1           0       11.249128    0.727551    0.108472
    115          1           0       11.345193   -0.798583    1.015331
    116          1           0       12.925615   -1.975178   -0.315477
    117          1           0       12.530747   -0.592372   -1.752693
    118          1           0       13.479738    1.108953   -0.232800
    119          1           0       13.723638   -0.083494    1.212607
    120          1           0       15.285163   -0.235793   -1.572223
    121          1           0       14.714161   -2.414826   -0.968432
    122          1           0       16.573350   -1.995256   -0.753814
    123          1           0       15.476559   -2.254310    0.858649
    124          1           0       15.687687    1.588786    0.463712
    125          1           0       16.183904    0.165304    1.351512
    126          1           0       18.217100   -0.373236   -0.197268
    127          1           0       17.588466    1.103614   -1.257725
    128          1           0       18.057896    2.814400    0.636263
    129          1           0       18.499002    1.287524    1.679927
    130          1           0       20.398923    0.871741   -0.044178
    131          1           0       19.859305    3.621315   -1.091982
    132          1           0       21.176967    2.280026   -1.633547
    133          1           0       19.524069    2.333792   -2.146833
    134          1           0       20.640556    1.761345    2.164108
    135          1           0       21.747234    2.776784    0.898374
    136          1           0       20.353364    3.474886    1.493221
    137          1           0       -6.862556    1.798094    0.214773
    138          1           0       -7.777912   -0.167499   -0.356461
 ---------------------------------------------------------------------

 SCF Done:  E(RB3LYP) =  -2732.98883925     A.U. after   18 cycles

 Excitation energies and oscillator strengths:

 Excited State   1:      Singlet-A      2.0204 eV  613.66 nm  f=0.1590  <S**2>=0.000
     235 -> 237       -0.12944
     235 -> 238        0.23338
     236 -> 237        0.64112
     236 -> 238        0.10593
 This state for optimization and/or second-order correction.
 Total Energy, E(TD-HF/TD-KS) =  -2732.91459098
 Copying the excited state density for this state as the 1-particle RhoCI density.

 The electronic state is 1-A.
 Alpha  occ. eigenvalues --  -19.18128 -19.16526 -19.12208 -19.11893 -19.10763
 Alpha  occ. eigenvalues --  -14.37891 -14.37079 -14.33245 -14.29710 -10.30998
 Alpha  occ. eigenvalues --  -10.30288 -10.28033 -10.27790 -10.25234 -10.24990
 Alpha  occ. eigenvalues --  -10.24668 -10.24502 -10.24139 -10.23164 -10.23055
 Alpha  occ. eigenvalues --  -10.22936 -10.22687 -10.22486 -10.21996 -10.21823
 Alpha  occ. eigenvalues --  -10.21693 -10.21325 -10.21298 -10.21253 -10.21242
 Alpha  occ. eigenvalues --  -10.21193 -10.20859 -10.20794 -10.20587 -10.20560
 Alpha  occ. eigenvalues --  -10.20438 -10.20356 -10.20274 -10.20072 -10.19828
 Alpha  occ. eigenvalues --  -10.19824 -10.19657 -10.19623 -10.19499 -10.19493
 Alpha  occ. eigenvalues --  -10.19471 -10.19398 -10.19380 -10.19325 -10.19270
 Alpha  occ. eigenvalues --  -10.19269 -10.19207 -10.19136 -10.19087 -10.18797
 Alpha  occ. eigenvalues --  -10.18452 -10.18385 -10.18378 -10.18222 -10.18206
 Alpha  occ. eigenvalues --  -10.18190 -10.18121 -10.17654 -10.17324  -1.10329
 Alpha  occ. eigenvalues --   -1.09450  -1.01141  -1.00858  -0.99306  -0.98769
 Alpha  occ. eigenvalues --   -0.98381  -0.95723  -0.94086  -0.84197  -0.83136
 Alpha  occ. eigenvalues --   -0.81787  -0.81688  -0.81068  -0.80810  -0.80796
 Alpha  occ. eigenvalues --   -0.80219  -0.79388  -0.79217  -0.78633  -0.77885
 Alpha  occ. eigenvalues --   -0.76420  -0.75878  -0.75531  -0.74781  -0.74173
 Alpha  occ. eigenvalues --   -0.73506  -0.72667  -0.72324  -0.71834  -0.71731
 Alpha  occ. eigenvalues --   -0.70249  -0.69298  -0.68826  -0.67339  -0.67222
 Alpha  occ. eigenvalues --   -0.67082  -0.66706  -0.66068  -0.65492  -0.64568
 Alpha  occ. eigenvalues --   -0.64408  -0.63422  -0.62733  -0.61458  -0.60463
 Alpha  occ. eigenvalues --   -0.59714  -0.58526  -0.58210  -0.57723  -0.56709
 Alpha  occ. eigenvalues --   -0.56325  -0.56100  -0.55701  -0.55253  -0.54870
 Alpha  occ. eigenvalues --   -0.54662  -0.54553  -0.53642  -0.53079  -0.52963
 Alpha  occ. eigenvalues --   -0.52542  -0.51860  -0.51371  -0.51010  -0.50711
 Alpha  occ. eigenvalues --   -0.49942  -0.49558  -0.48922  -0.48190  -0.48065
 Alpha  occ. eigenvalues --   -0.47745  -0.47370  -0.47287  -0.46708  -0.46635
 Alpha  occ. eigenvalues --   -0.46348  -0.46313  -0.46188  -0.45919  -0.45623
 Alpha  occ. eigenvalues --   -0.45407  -0.45286  -0.45136  -0.44990  -0.44677
 Alpha  occ. eigenvalues --   -0.44622  -0.44208  -0.44118  -0.43687  -0.43505
 Alpha  occ. eigenvalues --   -0.43386  -0.43305  -0.43094  -0.42803  -0.42537
 Alpha  occ. eigenvalues --   -0.42340  -0.42290  -0.41904  -0.41798  -0.41473
 Alpha  occ. eigenvalues --   -0.41367  -0.41240  -0.40797  -0.40623  -0.40494
 Alpha  occ. eigenvalues --   -0.40317  -0.40196  -0.40095  -0.39675  -0.39011
 Alpha  occ. eigenvalues --   -0.38977  -0.38612  -0.38543  -0.38320  -0.38202
 Alpha  occ. eigenvalues --   -0.38007  -0.37819  -0.37577  -0.37315  -0.37108
 Alpha  occ. eigenvalues --   -0.37045  -0.36824  -0.36640  -0.36473  -0.36119
 Alpha  occ. eigenvalues --   -0.36040  -0.35987  -0.35857  -0.35522  -0.35297
 Alpha  occ. eigenvalues --   -0.35130  -0.35014  -0.34995  -0.34854  -0.34705
 Alpha  occ. eigenvalues --   -0.34626  -0.34326  -0.34274  -0.33854  -0.33519
 Alpha  occ. eigenvalues --   -0.33227  -0.32888  -0.32655  -0.32557  -0.31843
 Alpha  occ. eigenvalues --   -0.31744  -0.31677  -0.31379  -0.31369  -0.31268
 Alpha  occ. eigenvalues --   -0.31185  -0.30405  -0.30003  -0.29873  -0.29708
 Alpha  occ. eigenvalues --   -0.29494  -0.28694  -0.28236  -0.28076  -0.27936
 Alpha  occ. eigenvalues --   -0.27177  -0.26953  -0.26473  -0.26365  -0.26027
 Alpha  occ. eigenvalues --   -0.25406  -0.24469  -0.23742  -0.22286  -0.20146
 Alpha  occ. eigenvalues --   -0.19026
 Alpha virt. eigenvalues --   -0.10908  -0.07869  -0.05201  -0.03034  -0.00815
 Alpha virt. eigenvalues --    0.00191   0.00600   0.01448   0.01956   0.03579
 Alpha virt. eigenvalues --    0.03581   0.03694   0.04051   0.04126   0.04375

 Mulliken charges:
               1
     1  C    0.020237
     2  C   -0.066618
     3  C   -0.122497
     4  C   -0.105014
     5  N   -0.132675
     6  C   -0.135291
     7  C   -0.027044
     8  C   -0.121125
     9  C   -0.037681
    10  C    0.187911
    11  C   -0.072284
    12  C    0.075131
    13  C    0.158800
    14  O   -0.193103
    15  O   -0.314307
    16  N   -0.029037
    17  C    0.121546
    18  C   -0.164891
    19  C    0.004315
    20  C    0.089576
    21  C    0.193768
    22  C   -0.031711
    23  C   -0.102273
    24  N   -0.252545
    25  C    0.072962
    26  C   -0.122062
    27  C   -0.067607
    28  C    0.087233
    29  C    0.146290
    30  C   -0.058713
    31  C    0.020359
    32  N   -0.020527
    33  C    0.007982
    34  C   -0.058731
    35  C   -0.016093
    36  C    0.084198
    37  C    0.033181
    38  C    0.078227
    39  O   -0.188460
    40  C    0.014292
    41  C    0.175862
    42  O   -0.270203
    43  O   -0.261337
    44  C    0.049004
    45  C    0.200757
    46  C   -0.045168
    47  C   -0.138819
    48  C    0.059134
    49  C    0.091283
    50  C    0.001936
    51  C   -0.041998
    52  C   -0.061317
    53  C    0.028249
    54  C    0.079459
    55  C   -0.074326
    56  C   -0.017789
    57  C   -0.053477
    58  C   -0.094389
    59  C    0.050829
    60  C    0.078854
    61  C   -0.085517
    62  C   -0.020569
    63  C    0.011840
    64  C    0.048286
    65  H   -0.004418
    66  H   -0.016213
    67  H    0.015535
    68  H    0.024663
    69  H    0.006315
    70  H    0.014266
    71  H   -0.027313
    72  H   -0.030355
    73  H    0.054456
    74  H    0.045105
    75  H    0.043469
    76  H    0.059345
    77  H   -0.024036
    78  H   -0.005290
    79  H    0.032668
    80  H    0.018725
    81  H    0.078615
    82  H    0.050739
    83  H    0.019025
    84  H    0.026655
    85  H   -0.035137
    86  H    0.045099
    87  H    0.016731
    88  H    0.012073
    89  H   -0.003031
    90  H    0.029578
    91  H    0.044851
    92  H    0.004542
    93  H    0.062966
    94  H    0.007071
    95  H    0.070120
    96  H    0.084575
    97  H    0.073823
    98  H    0.038562
    99  H    0.032898
   100  H   -0.020430
   101  H    0.011321
   102  H    0.040601
   103  H    0.002654
   104  H   -0.018439
   105  H   -0.027873
   106  H    0.018822
   107  H    0.031976
   108  H   -0.003955
   109  H    0.026904
   110  H   -0.010162
   111  H    0.026664
   112  H   -0.010695
   113  H    0.001056
   114  H   -0.023660
   115  H   -0.008095
   116  H    0.046836
   117  H    0.006276
   118  H    0.002981
   119  H    0.008982
   120  H   -0.004956
   121  H    0.042687
   122  H    0.025592
   123  H    0.004427
   124  H    0.004421
   125  H   -0.028243
   126  H    0.024982
   127  H   -0.005649
   128  H    0.011040
   129  H    0.002999
   130  H   -0.044692
   131  H    0.001740
   132  H    0.018012
   133  H    0.007117
   134  H    0.023173
   135  H   -0.004486
   136  H   -0.011646
   137  H    0.157193
   138  H    0.141544
 Sum of Mulliken charges =   0.00000

 Dipole moment (field-independent basis, Debye):
    X=              2.4840    Y=              5.7966    Z=              0.1554  Tot=              6.3083
 Quadrupole moment (field-independent basis, Debye-Ang):
   XX=           -363.9340   YY=           -384.6205   ZZ=           -395.5333
   XY=            -22.4155   XZ=              6.7847   YZ=              2.1000

 Normal termination of Gaussian 09 at Sun Aug  4 07:10:57 2019.
