 Gaussian 09, Revision D.01,
 Gaussian 09:  ES64L-G09RevD.01 24-Apr-2013

 --------------------------
 # td=(NStates=1) B3LYP/SVP
 --------------------------

 --
 TD
 --
 Symbolic Z-matrix:
 Charge =  0 Multiplicity = 1

                         Standard orientation:
 ---------------------------------------------------------------------
 Center     Atomic      Atomic             Coordinates (Angstroms)
 Number     Number       Type             X           Y           Z
 ---------------------------------------------------------------------
      1          6           0       -5.092226   -1.860413    0.525621
      2          6           0       -4.808768    2.834777    1.361817
      3          6           0       -9.423534    3.177790   -0.304549
      4          6           0       -9.823149   -1.637255   -0.732181
      5          7           0       -5.216455    0.442966    0.877788
      6          6           0       -4.524147   -0.580672    0.759141
      7          6           0       -3.082939   -0.402661    1.196987
      8          6           0       -3.105038    1.036952    1.803715
      9          6           0       -4.519085    1.503652    1.257068
     10          6           0       -2.892236    1.220399    3.262284
     11          6           0       -1.957504   -0.604422    0.100611
     12          6           0       -0.560212   -0.666047    0.437065
     13          6           0        0.390364   -0.908344   -0.742277
     14          8           0        0.009121   -1.287686   -1.791935
     15          8           0        1.653122   -0.711024   -0.250290
     16          7           0       -7.058364    2.629294    0.408413
     17          6           0       -6.044267    3.332671    0.946298
     18          6           0       -6.491987    4.780207    1.009074
     19          6           0       -7.750270    4.829588    0.431814
     20          6           0       -8.165162    3.544094    0.041914
     21          6           0       -5.540833    5.833312    1.443307
     22          6           0       -8.419422    6.155501    0.153563
     23          6           0       -9.276394    6.415094   -0.791041
     24          7           0       -9.265404    0.721543   -0.483351
     25          6           0      -10.072448    1.898466   -0.521053
     26          6           0      -11.411441    1.635060   -0.854990
     27          6           0      -11.551031    0.347204   -1.037040
     28          6           0      -10.195770   -0.208105   -0.726889
     29          6           0      -12.431190    2.654372   -1.045071
     30          6           0      -12.693750   -0.478099   -1.514993
     31          6           0      -12.677721   -0.838390   -3.016119
     32          7           0       -7.512235   -1.228549   -0.068530
     33          6           0       -8.573965   -2.095620   -0.502193
     34          6           0       -8.115020   -3.467767   -0.546913
     35          6           0       -6.733158   -3.384877   -0.167650
     36          6           0       -6.467427   -2.104816    0.136710
     37          6           0       -8.900056   -4.724221   -0.822723
     38          6           0       -5.549728   -4.188811    0.102007
     39          8           0       -5.435444   -5.377572   -0.043842
     40          6           0       -4.399115   -3.223646    0.475980
     41          6           0       -3.874661   -3.640620    1.781440
     42          8           0       -4.148072   -3.203602    2.850662
     43          8           0       -2.911772   -4.653783    1.612084
     44          6           0       -2.391736   -5.239194    2.714598
     45          6           0        2.605986   -0.855609   -1.308231
     46          6           0        3.958852   -0.617726   -0.586656
     47          6           0        4.908675    0.118560   -1.146371
     48          6           0        4.800598    0.925500   -2.395116
     49          6           0        6.257208    0.297306   -0.385511
     50          6           0        7.476617   -0.363249   -1.099666
     51          6           0        8.733127   -0.161549   -0.266018
     52          6           0       10.090044   -0.650909   -0.865695
     53          6           0       10.133326   -2.185200   -1.097956
     54          6           0       11.338378   -0.181729   -0.040600
     55          6           0       12.746824   -0.362750   -0.745481
     56          6           0       13.872023    0.039229    0.330093
     57          6           0       15.268317   -0.103339   -0.466583
     58          6           0       15.563578   -1.575022   -0.791672
     59          6           0       16.347518    0.568588    0.549754
     60          6           0       17.764296    0.611935    0.049235
     61          6           0       18.759420    1.380983    0.810900
     62          6           0       20.142380    1.423755    0.285526
     63          6           0       20.418580    1.994056   -1.136745
     64          6           0       21.083636    2.234840    1.320652
     65          1           0       -3.979935    3.532419    1.767086
     66          1           0      -10.133787    4.079683   -0.362767
     67          1           0      -10.530677   -2.440253   -0.934653
     68          1           0       -2.726021   -1.033070    2.072739
     69          1           0       -2.254299    1.468329    1.317337
     70          1           0       -1.692727    1.021451    3.526244
     71          1           0       -2.868140    2.309839    3.686775
     72          1           0       -3.515045    0.594476    3.874557
     73          1           0       -2.152901   -1.506444   -0.480577
     74          1           0       -2.052011    0.051490   -0.667369
     75          1           0       -0.149828    0.470944    0.858690
     76          1           0       -0.215549   -1.255884    1.311861
     77          1           0       -4.581128    5.606282    0.908789
     78          1           0       -5.956963    6.887903    1.115357
     79          1           0       -5.359831    5.628961    2.442726
     80          1           0       -8.064663    7.130220    0.698294
     81          1           0       -9.557685    5.595160   -1.458799
     82          1           0       -9.799451    7.402376   -0.745517
     83          1           0      -12.790269    3.374184   -0.213334
     84          1           0      -12.077727    3.484893   -1.688516
     85          1           0      -13.340919    2.147830   -1.591310
     86          1           0      -12.737330   -1.561570   -0.963848
     87          1           0      -13.668322    0.176256   -1.399181
     88          1           0      -12.458195    0.106353   -3.654621
     89          1           0      -11.810934   -1.543038   -3.112846
     90          1           0      -13.637706   -1.358692   -3.310112
     91          1           0       -9.747255   -4.877167   -0.167027
     92          1           0       -9.195551   -4.849201   -2.052805
     93          1           0       -8.186040   -5.451363   -0.764834
     94          1           0       -3.575532   -3.411270   -0.238045
     95          1           0       -1.566063   -5.946516    2.290071
     96          1           0       -1.751252   -4.750665    3.476335
     97          1           0       -3.119229   -5.695060    3.278031
     98          1           0        2.387050   -1.785772   -1.716040
     99          1           0        2.469665   -0.136278   -2.110605
    100          1           0        4.345177   -1.101544    0.412601
    101          1           0        4.952562    2.033648   -2.329793
    102          1           0        5.659492    0.537553   -3.001603
    103          1           0        3.768273    0.565555   -2.743683
    104          1           0        6.446296    1.383088   -0.195004
    105          1           0        6.236121   -0.238837    0.471928
    106          1           0        7.446700   -1.400265   -1.437617
    107          1           0        7.524874    0.192980   -2.170331
    108          1           0        8.840394    0.772895   -0.040351
    109          1           0        8.593313   -0.662921    0.669917
    110          1           0       10.191398   -0.088562   -1.793883
    111          1           0        9.141188   -2.737863   -1.555240
    112          1           0       10.964460   -2.630488   -1.787223
    113          1           0       10.225601   -2.517499    0.081112
    114          1           0       11.167318    0.923595    0.042985
    115          1           0       11.410906   -0.807982    1.032641
    116          1           0       12.780636   -1.484321   -1.027140
    117          1           0       13.084584    0.386869   -1.439832
    118          1           0       13.642864    1.047690    0.488401
    119          1           0       13.795854   -0.636336    1.229996
    120          1           0       15.112373    0.442453   -1.361947
    121          1           0       14.651016   -1.853312   -1.494099
    122          1           0       16.594504   -1.739110   -1.540275
    123          1           0       15.961671   -2.333326    0.100768
    124          1           0       15.826193    1.542017    0.728600
    125          1           0       16.423184   -0.001657    1.428834
    126          1           0       18.410243   -0.387819   -0.298065
    127          1           0       17.783153    1.155455   -0.903901
    128          1           0       18.323838    2.417010    0.766379
    129          1           0       19.023348    1.213129    1.912758
    130          1           0       20.638706    0.287579    0.230284
    131          1           0       20.035327    3.057077   -1.194348
    132          1           0       21.405928    2.147207   -1.342082
    133          1           0       19.823891    1.336770   -1.921144
    134          1           0       20.934771    1.801539    2.416283
    135          1           0       22.244550    2.057765    0.957748
    136          1           0       20.750946    3.261430    1.238583
    137          1           0       -7.202251    1.717758    0.342945
    138          1           0       -7.397730   -0.110437    0.103883
 ---------------------------------------------------------------------

 SCF Done:  E(RB3LYP) =  -2733.07008493     A.U. after   16 cycles

 Excitation energies and oscillator strengths:

 Excited State   1:      Singlet-A      2.0491 eV  605.07 nm  f=0.1081  <S**2>=0.000
     235 -> 237        0.10075
     235 -> 238        0.34595
     236 -> 237        0.60215
 This state for optimization and/or second-order correction.
 Total Energy, E(TD-HF/TD-KS) =  -2732.99478223
 Copying the excited state density for this state as the 1-particle RhoCI density.

 The electronic state is 1-A.
 Alpha  occ. eigenvalues --  -19.17960 -19.16570 -19.14016 -19.12894 -19.12351
 Alpha  occ. eigenvalues --  -14.37022 -14.36811 -14.31993 -14.30399 -10.31798
 Alpha  occ. eigenvalues --  -10.31229 -10.27878 -10.24669 -10.24627 -10.23681
 Alpha  occ. eigenvalues --  -10.23405 -10.23000 -10.22883 -10.22861 -10.22749
 Alpha  occ. eigenvalues --  -10.22586 -10.21640 -10.21264 -10.21160 -10.21066
 Alpha  occ. eigenvalues --  -10.21054 -10.20968 -10.20908 -10.20889 -10.20862
 Alpha  occ. eigenvalues --  -10.20811 -10.20738 -10.20555 -10.20481 -10.20320
 Alpha  occ. eigenvalues --  -10.20271 -10.20145 -10.20040 -10.20034 -10.19997
 Alpha  occ. eigenvalues --  -10.19867 -10.19848 -10.19787 -10.19750 -10.19670
 Alpha  occ. eigenvalues --  -10.19642 -10.19478 -10.19408 -10.19377 -10.19324
 Alpha  occ. eigenvalues --  -10.19287 -10.19164 -10.19056 -10.18700 -10.18665
 Alpha  occ. eigenvalues --  -10.18617 -10.18532 -10.18345 -10.18137 -10.18106
 Alpha  occ. eigenvalues --  -10.18088 -10.17895 -10.17878 -10.17013  -1.10354
 Alpha  occ. eigenvalues --   -1.09348  -1.03609  -1.03317  -1.01825  -0.98351
 Alpha  occ. eigenvalues --   -0.97253  -0.96483  -0.93469  -0.85122  -0.82949
 Alpha  occ. eigenvalues --   -0.82689  -0.81659  -0.81485  -0.81202  -0.80732
 Alpha  occ. eigenvalues --   -0.80541  -0.80086  -0.79353  -0.79004  -0.77931
 Alpha  occ. eigenvalues --   -0.77081  -0.76561  -0.76125  -0.75332  -0.74607
 Alpha  occ. eigenvalues --   -0.73533  -0.73215  -0.72583  -0.71875  -0.71146
 Alpha  occ. eigenvalues --   -0.69891  -0.68917  -0.68653  -0.68128  -0.67652
 Alpha  occ. eigenvalues --   -0.67198  -0.66000  -0.65841  -0.65493  -0.65080
 Alpha  occ. eigenvalues --   -0.64615  -0.62454  -0.61885  -0.61017  -0.60650
 Alpha  occ. eigenvalues --   -0.60432  -0.58775  -0.58481  -0.57721  -0.57357
 Alpha  occ. eigenvalues --   -0.56919  -0.56675  -0.56466  -0.55680  -0.55544
 Alpha  occ. eigenvalues --   -0.55049  -0.54298  -0.53797  -0.53414  -0.53165
 Alpha  occ. eigenvalues --   -0.52705  -0.51844  -0.51388  -0.50979  -0.50831
 Alpha  occ. eigenvalues --   -0.50539  -0.49489  -0.49186  -0.49063  -0.48614
 Alpha  occ. eigenvalues --   -0.48211  -0.47913  -0.47539  -0.47494  -0.47096
 Alpha  occ. eigenvalues --   -0.46961  -0.46923  -0.46706  -0.46251  -0.46104
 Alpha  occ. eigenvalues --   -0.45451  -0.45068  -0.44973  -0.44724  -0.44498
 Alpha  occ. eigenvalues --   -0.44417  -0.44282  -0.43880  -0.43823  -0.43812
 Alpha  occ. eigenvalues --   -0.43536  -0.43311  -0.43269  -0.42783  -0.42344
 Alpha  occ. eigenvalues --   -0.42149  -0.42116  -0.41961  -0.41848  -0.41481
 Alpha  occ. eigenvalues --   -0.41308  -0.41260  -0.40861  -0.40601  -0.40522
 Alpha  occ. eigenvalues --   -0.40236  -0.40141  -0.40102  -0.39767  -0.39462
 Alpha  occ. eigenvalues --   -0.39402  -0.39150  -0.39014  -0.38521  -0.38491
 Alpha  occ. eigenvalues --   -0.38311  -0.38135  -0.38095  -0.37827  -0.37765
 Alpha  occ. eigenvalues --   -0.37531  -0.37410  -0.37308  -0.37010  -0.36994
 Alpha  occ. eigenvalues --   -0.36834  -0.36309  -0.36295  -0.36170  -0.35887
 Alpha  occ. eigenvalues --   -0.35730  -0.35502  -0.35243  -0.34907  -0.34593
 Alpha  occ. eigenvalues --   -0.34352  -0.34219  -0.34143  -0.33699  -0.33535
 Alpha  occ. eigenvalues --   -0.33350  -0.33161  -0.33004  -0.32704  -0.32635
 Alpha  occ. eigenvalues --   -0.32281  -0.32163  -0.31800  -0.31586  -0.31113
 Alpha  occ. eigenvalues --   -0.30873  -0.30794  -0.30375  -0.30109  -0.29846
 Alpha  occ. eigenvalues --   -0.29409  -0.29291  -0.28790  -0.28719  -0.27894
 Alpha  occ. eigenvalues --   -0.27830  -0.27568  -0.26694  -0.26330  -0.26068
 Alpha  occ. eigenvalues --   -0.25347  -0.25163  -0.24517  -0.23501  -0.19777
 Alpha  occ. eigenvalues --   -0.19054
 Alpha virt. eigenvalues --   -0.10165  -0.08160  -0.04015  -0.01637  -0.00293
 Alpha virt. eigenvalues --   -0.00109   0.00682   0.00938   0.02282   0.03486
 Alpha virt. eigenvalues --    0.03618   0.03741   0.04178   0.04599   0.04789

 Mulliken charges:
               1
     1  C    0.007805
     2  C   -0.118466
     3  C   -0.094684
     4  C   -0.093252
     5  N   -0.068292
     6  C   -0.070191
     7  C   -0.081703
     8  C   -0.010219
     9  C    0.001981
    10  C    0.013560
    11  C    0.162465
    12  C   -0.075073
    13  C    0.175790
    14  O   -0.191552
    15  O   -0.324458
    16  N   -0.031045
    17  C    0.125753
    18  C   -0.181592
    19  C    0.050536
    20  C    0.103023
    21  C    0.133631
    22  C   -0.076113
    23  C   -0.030606
    24  N   -0.255150
    25  C    0.054047
    26  C   -0.055202
    27  C   -0.057398
    28  C    0.044472
    29  C    0.037280
    30  C   -0.028606
    31  C   -0.012711
    32  N   -0.155151
    33  C    0.144693
    34  C   -0.152460
    35  C    0.015606
    36  C    0.084286
    37  C    0.106905
    38  C    0.017608
    39  O   -0.150919
    40  C   -0.001139
    41  C    0.188370
    42  O   -0.184416
    43  O   -0.307234
    44  C    0.195852
    45  C    0.307350
    46  C   -0.067727
    47  C   -0.197216
    48  C    0.088080
    49  C    0.123159
    50  C   -0.039484
    51  C    0.155116
    52  C   -0.027699
    53  C   -0.081598
    54  C   -0.028765
    55  C   -0.024131
    56  C    0.024844
    57  C   -0.075485
    58  C   -0.083606
    59  C    0.113182
    60  C    0.022137
    61  C    0.055059
    62  C   -0.186661
    63  C    0.046808
    64  C   -0.040801
    65  H    0.011436
    66  H   -0.000603
    67  H   -0.031554
    68  H    0.022876
    69  H   -0.025484
    70  H    0.014876
    71  H    0.020294
    72  H    0.031862
    73  H   -0.005436
    74  H   -0.044827
    75  H    0.030353
    76  H    0.034134
    77  H    0.033759
    78  H    0.043972
    79  H    0.012432
    80  H    0.020748
    81  H    0.026599
    82  H    0.032624
    83  H    0.027948
    84  H    0.004611
    85  H    0.023145
    86  H    0.029449
    87  H    0.017528
    88  H    0.027268
    89  H    0.013130
    90  H    0.030016
    91  H    0.044339
    92  H    0.045073
    93  H    0.005585
    94  H    0.063008
    95  H    0.024007
    96  H    0.002776
    97  H   -0.004022
    98  H    0.001020
    99  H    0.009239
   100  H    0.013791
   101  H    0.036417
   102  H    0.023331
   103  H    0.008096
   104  H    0.012392
   105  H   -0.044967
   106  H   -0.002872
   107  H   -0.007256
   108  H   -0.074588
   109  H   -0.027609
   110  H   -0.021144
   111  H    0.032272
   112  H    0.044078
   113  H    0.022406
   114  H   -0.000761
   115  H    0.020035
   116  H    0.038740
   117  H   -0.006361
   118  H   -0.016270
   119  H    0.012613
   120  H   -0.015495
   121  H    0.036483
   122  H    0.020115
   123  H    0.045027
   124  H   -0.001792
   125  H   -0.016626
   126  H    0.007873
   127  H   -0.020197
   128  H   -0.020549
   129  H   -0.005629
   130  H    0.006878
   131  H   -0.006349
   132  H   -0.015387
   133  H    0.032335
   134  H    0.032918
   135  H    0.033805
   136  H    0.015620
   137  H    0.045790
   138  H    0.232060
 Sum of Mulliken charges =   0.00000

 Dipole moment (field-independent basis, Debye):
    X=              1.6230    Y=              5.4080    Z=             -0.1035  Tot=              5.6472
 Quadrupole moment (field-independent basis, Debye-Ang):
   XX=           -364.9958   YY=           -382.7606   ZZ=           -400.6911
   XY=            -13.9556   XZ=              6.0152   YZ=              0.6918

 Normal termination of Gaussian 09 at Thu Jul 25 16:56:26 2019.
