 Gaussian 09, Revision D.01,
 Gaussian 09:  ES64L-G09RevD.01 24-Apr-2013

 --------------------------
 # td=(NStates=1) B3LYP/SVP
 --------------------------

 --
 TD
 --
 Symbolic Z-matrix:
 Charge =  0 Multiplicity = 1

                         Standard orientation:
 ---------------------------------------------------------------------
 Center     Atomic      Atomic             Coordinates (Angstroms)
 Number     Number       Type             X           Y           Z
 ---------------------------------------------------------------------
      1          6           0       -5.090683   -1.938995    0.348603
      2          6           0       -4.646253    2.813648    1.346471
      3          6           0       -9.240569    3.371225   -0.151859
      4          6           0       -9.807554   -1.337294   -0.955652
      5          7           0       -5.122167    0.432449    0.854738
      6          6           0       -4.508853   -0.799261    0.759192
      7          6           0       -3.013991   -0.701301    1.275244
      8          6           0       -3.020313    0.783336    1.729910
      9          6           0       -4.346699    1.407279    1.367248
     10          6           0       -2.950013    0.861290    3.331752
     11          6           0       -2.071321   -0.886612    0.115370
     12          6           0       -0.581713   -0.885183    0.528365
     13          6           0        0.376339   -1.301218   -0.561008
     14          8           0        0.114844   -1.738953   -1.592029
     15          8           0        1.623802   -0.949114   -0.080900
     16          7           0       -6.884417    2.881855    0.451571
     17          6           0       -5.830955    3.414651    0.965806
     18          6           0       -6.146832    4.891742    1.041040
     19          6           0       -7.459908    5.003224    0.537418
     20          6           0       -7.952302    3.684065    0.235336
     21          6           0       -5.183674    5.928854    1.527652
     22          6           0       -8.045469    6.293330    0.422694
     23          6           0       -8.858646    6.749489   -0.521645
     24          7           0       -9.157342    0.982893   -0.478711
     25          6           0       -9.867513    2.160847   -0.563147
     26          6           0      -11.196444    2.021050   -0.960275
     27          6           0      -11.373261    0.667408   -1.195167
     28          6           0      -10.099269    0.052077   -0.845149
     29          6           0      -12.189330    3.037003   -1.261616
     30          6           0      -12.639872    0.122323   -1.713473
     31          6           0      -12.663863   -0.285674   -3.206223
     32          7           0       -7.501585   -1.307437   -0.255127
     33          6           0       -8.604919   -1.950885   -0.712384
     34          6           0       -8.248592   -3.383679   -0.709533
     35          6           0       -6.860685   -3.356446   -0.329467
     36          6           0       -6.453080   -2.049109    0.037327
     37          6           0       -8.957240   -4.593943   -1.031539
     38          6           0       -5.809466   -4.272642    0.083304
     39          8           0       -5.748495   -5.496212    0.188891
     40          6           0       -4.601179   -3.349676    0.400988
     41          6           0       -3.950961   -3.775862    1.758568
     42          8           0       -4.176524   -3.399371    2.878408
     43          8           0       -3.070551   -4.716619    1.455832
     44          6           0       -2.556592   -5.532084    2.593296
     45          6           0        2.679882   -1.429107   -0.987485
     46          6           0        4.015590   -1.078988   -0.379471
     47          6           0        4.874577   -0.184938   -0.964641
     48          6           0        4.699936    0.533050   -2.183244
     49          6           0        6.201140    0.039308   -0.223556
     50          6           0        7.454658   -0.548871   -0.834739
     51          6           0        8.783261   -0.333336   -0.046049
     52          6           0       10.064310   -0.911561   -0.749671
     53          6           0        9.930658   -2.446854   -0.788473
     54          6           0       11.265925   -0.388306   -0.072537
     55          6           0       12.571495   -0.571651   -0.775860
     56          6           0       13.810390   -0.026502    0.124935
     57          6           0       15.218653   -0.139207   -0.509545
     58          6           0       15.721485   -1.555554   -0.549249
     59          6           0       16.170480    0.663329    0.359635
     60          6           0       17.605304    0.797883   -0.253449
     61          6           0       18.502449    1.856126    0.569263
     62          6           0       19.925836    1.887660    0.156569
     63          6           0       20.020012    2.350645   -1.317094
     64          6           0       20.766944    2.835167    1.039271
     65          1           0       -3.966592    3.384520    1.771854
     66          1           0       -9.938432    4.348560   -0.292170
     67          1           0      -10.553780   -2.001309   -1.391337
     68          1           0       -2.920345   -1.298984    2.097391
     69          1           0       -2.117203    1.245180    1.404383
     70          1           0       -1.981688    0.396002    3.712198
     71          1           0       -2.742803    1.936166    3.620515
     72          1           0       -3.822926    0.338302    3.649947
     73          1           0       -2.230283   -1.898099   -0.250228
     74          1           0       -2.219981   -0.171266   -0.749675
     75          1           0       -0.295218   -0.034448    1.028197
     76          1           0       -0.163112   -1.641513    1.296700
     77          1           0       -4.201394    5.957262    1.168501
     78          1           0       -5.605743    6.832268    1.571684
     79          1           0       -4.886688    5.646805    2.452241
     80          1           0       -7.620516    7.213938    0.967591
     81          1           0       -9.088110    6.086943   -1.338313
     82          1           0       -9.117078    7.781686   -0.742247
     83          1           0      -12.453015    3.476689   -0.294736
     84          1           0      -11.811808    4.005153   -1.856564
     85          1           0      -13.143795    2.376689   -1.550241
     86          1           0      -12.878252   -0.854380   -1.099675
     87          1           0      -13.477230    0.681228   -1.598061
     88          1           0      -12.777922    0.680516   -3.878869
     89          1           0      -11.857570   -0.921728   -3.752138
     90          1           0      -13.495704   -0.958925   -3.717421
     91          1           0       -9.782512   -4.486534   -0.382136
     92          1           0       -9.264171   -4.760852   -1.942517
     93          1           0       -8.254708   -5.374933   -0.847096
     94          1           0       -3.924454   -3.645376   -0.214382
     95          1           0       -1.750017   -6.115526    1.946460
     96          1           0       -1.818123   -4.861274    3.201291
     97          1           0       -3.298765   -6.077524    3.026523
     98          1           0        2.980194   -2.542539   -1.034705
     99          1           0        2.473622   -1.031861   -2.244673
    100          1           0        4.272914   -1.534193    0.489704
    101          1           0        4.836673    1.581068   -2.036129
    102          1           0        5.585282    0.245695   -2.909119
    103          1           0        3.570588    0.639356   -2.645576
    104          1           0        6.316638    1.142133    0.000416
    105          1           0        6.064507   -0.472722    0.769120
    106          1           0        7.284323   -1.625849   -1.017254
    107          1           0        7.501995   -0.087175   -1.966359
    108          1           0        8.935398    0.598042    0.464617
    109          1           0        8.581559   -0.914083    1.043049
    110          1           0        9.984711   -0.498025   -1.787037
    111          1           0        9.140709   -2.894478   -1.461883
    112          1           0       10.866479   -2.916918   -1.046978
    113          1           0        9.577513   -2.860587    0.046289
    114          1           0       10.985009    0.783811    0.320865
    115          1           0       11.337594   -1.043453    0.916945
    116          1           0       12.775008   -1.638795   -1.210874
    117          1           0       12.754627   -0.107662   -1.741512
    118          1           0       13.658716    0.912919    0.331813
    119          1           0       13.622033   -0.335895    1.106743
    120          1           0       15.338401    0.203483   -1.602472
    121          1           0       15.088471   -2.194459   -1.050174
    122          1           0       16.720578   -1.664890   -1.294262
    123          1           0       15.897232   -1.948398    0.484168
    124          1           0       15.918648    1.785640    0.306635
    125          1           0       16.359599    0.266985    1.275295
    126          1           0       18.155689   -0.074556   -0.245253
    127          1           0       17.590952    1.126971   -1.275286
    128          1           0       18.251371    2.996461    0.236223
    129          1           0       18.186266    1.683937    1.696071
    130          1           0       20.157750    0.760366    0.152656
    131          1           0       19.378259    3.303202   -1.513881
    132          1           0       21.208412    2.648382   -1.573900
    133          1           0       19.931922    1.704187   -2.236579
    134          1           0       20.653498    2.487280    2.211288
    135          1           0       21.822118    2.760187    0.980739
    136          1           0       20.135460    3.952102    1.018256
    137          1           0       -7.013312    1.949112    0.533898
    138          1           0       -7.701361   -0.223823   -0.129780
 ---------------------------------------------------------------------

 SCF Done:  E(RB3LYP) =  -2733.01681637     A.U. after   16 cycles

 Excitation energies and oscillator strengths:

 Excited State   1:      Singlet-A      2.1803 eV  568.66 nm  f=0.1240  <S**2>=0.000
     235 -> 237       -0.28306
     235 -> 238       -0.27598
     236 -> 237        0.53418
     236 -> 238       -0.22959
 This state for optimization and/or second-order correction.
 Total Energy, E(TD-HF/TD-KS) =  -2732.93669263
 Copying the excited state density for this state as the 1-particle RhoCI density.

 The electronic state is 1-A.
 Alpha  occ. eigenvalues --  -19.17496 -19.17486 -19.13240 -19.11956 -19.11657
 Alpha  occ. eigenvalues --  -14.36764 -14.36755 -14.31598 -14.30281 -10.30926
 Alpha  occ. eigenvalues --  -10.30848 -10.27235 -10.26081 -10.25686 -10.23943
 Alpha  occ. eigenvalues --  -10.23840 -10.23405 -10.23007 -10.23000 -10.22547
 Alpha  occ. eigenvalues --  -10.21690 -10.21515 -10.21058 -10.20996 -10.20960
 Alpha  occ. eigenvalues --  -10.20622 -10.20600 -10.20537 -10.20442 -10.20365
 Alpha  occ. eigenvalues --  -10.20296 -10.20123 -10.20104 -10.20000 -10.19944
 Alpha  occ. eigenvalues --  -10.19906 -10.19896 -10.19660 -10.19632 -10.19619
 Alpha  occ. eigenvalues --  -10.19605 -10.19485 -10.19424 -10.19407 -10.19371
 Alpha  occ. eigenvalues --  -10.19367 -10.19251 -10.19182 -10.19143 -10.18997
 Alpha  occ. eigenvalues --  -10.18915 -10.18880 -10.18663 -10.18454 -10.18308
 Alpha  occ. eigenvalues --  -10.18103 -10.18031 -10.17964 -10.17789 -10.17599
 Alpha  occ. eigenvalues --  -10.17444 -10.17109 -10.17045 -10.16714  -1.10125
 Alpha  occ. eigenvalues --   -1.09290  -1.02189  -1.01422  -1.01389  -1.00100
 Alpha  occ. eigenvalues --   -0.99147  -0.93657  -0.93294  -0.85639  -0.83021
 Alpha  occ. eigenvalues --   -0.82585  -0.82044  -0.81359  -0.81206  -0.80939
 Alpha  occ. eigenvalues --   -0.80598  -0.80451  -0.79982  -0.79231  -0.77324
 Alpha  occ. eigenvalues --   -0.76877  -0.76363  -0.75848  -0.75353  -0.74275
 Alpha  occ. eigenvalues --   -0.73986  -0.73561  -0.72858  -0.72673  -0.71755
 Alpha  occ. eigenvalues --   -0.70828  -0.69745  -0.69107  -0.68233  -0.67802
 Alpha  occ. eigenvalues --   -0.67457  -0.66469  -0.66200  -0.65603  -0.64760
 Alpha  occ. eigenvalues --   -0.64252  -0.63328  -0.62797  -0.62463  -0.62231
 Alpha  occ. eigenvalues --   -0.60781  -0.59474  -0.59161  -0.58623  -0.57702
 Alpha  occ. eigenvalues --   -0.57271  -0.57040  -0.56423  -0.55496  -0.55411
 Alpha  occ. eigenvalues --   -0.54800  -0.54786  -0.54006  -0.53831  -0.53643
 Alpha  occ. eigenvalues --   -0.52831  -0.52502  -0.51577  -0.51328  -0.50498
 Alpha  occ. eigenvalues --   -0.50312  -0.49442  -0.49277  -0.48974  -0.48287
 Alpha  occ. eigenvalues --   -0.48260  -0.48111  -0.47658  -0.47160  -0.47025
 Alpha  occ. eigenvalues --   -0.46929  -0.46877  -0.46740  -0.46502  -0.46317
 Alpha  occ. eigenvalues --   -0.45878  -0.45688  -0.45580  -0.45184  -0.45105
 Alpha  occ. eigenvalues --   -0.44834  -0.44203  -0.44136  -0.44014  -0.43913
 Alpha  occ. eigenvalues --   -0.43797  -0.43720  -0.43531  -0.43179  -0.42599
 Alpha  occ. eigenvalues --   -0.42436  -0.42211  -0.41879  -0.41655  -0.41420
 Alpha  occ. eigenvalues --   -0.41323  -0.41289  -0.41253  -0.40901  -0.40854
 Alpha  occ. eigenvalues --   -0.40749  -0.40065  -0.39902  -0.39541  -0.39409
 Alpha  occ. eigenvalues --   -0.39154  -0.39098  -0.38587  -0.38517  -0.38363
 Alpha  occ. eigenvalues --   -0.38257  -0.38025  -0.37916  -0.37764  -0.37467
 Alpha  occ. eigenvalues --   -0.37262  -0.37243  -0.37000  -0.36878  -0.36723
 Alpha  occ. eigenvalues --   -0.36561  -0.36263  -0.36081  -0.35835  -0.35738
 Alpha  occ. eigenvalues --   -0.35240  -0.35157  -0.34896  -0.34891  -0.34445
 Alpha  occ. eigenvalues --   -0.34266  -0.34141  -0.33634  -0.33586  -0.33504
 Alpha  occ. eigenvalues --   -0.33188  -0.33029  -0.32950  -0.32725  -0.32258
 Alpha  occ. eigenvalues --   -0.32070  -0.32048  -0.31820  -0.31519  -0.31400
 Alpha  occ. eigenvalues --   -0.31108  -0.30738  -0.30620  -0.30324  -0.30295
 Alpha  occ. eigenvalues --   -0.30061  -0.29923  -0.28752  -0.28449  -0.28266
 Alpha  occ. eigenvalues --   -0.28077  -0.27625  -0.26545  -0.25344  -0.25306
 Alpha  occ. eigenvalues --   -0.24682  -0.23859  -0.23676  -0.22504  -0.20050
 Alpha  occ. eigenvalues --   -0.19201
 Alpha virt. eigenvalues --   -0.10035  -0.07905  -0.04108  -0.01716   0.00012
 Alpha virt. eigenvalues --    0.00383   0.01128   0.01912   0.02709   0.03479
 Alpha virt. eigenvalues --    0.04053   0.04300   0.04497   0.04513   0.04656

 Mulliken charges:
               1
     1  C    0.082583
     2  C    0.012821
     3  C   -0.131151
     4  C   -0.066464
     5  N   -0.182425
     6  C   -0.144245
     7  C    0.070402
     8  C   -0.070047
     9  C    0.017163
    10  C    0.025955
    11  C    0.103480
    12  C    0.018714
    13  C    0.164513
    14  O   -0.151612
    15  O   -0.338820
    16  N    0.119811
    17  C    0.043971
    18  C   -0.182279
    19  C    0.076069
    20  C    0.078661
    21  C    0.284813
    22  C   -0.092489
    23  C   -0.054053
    24  N   -0.263366
    25  C    0.049656
    26  C   -0.123917
    27  C   -0.054135
    28  C    0.069226
    29  C    0.078771
    30  C    0.115728
    31  C   -0.097168
    32  N   -0.025842
    33  C    0.031845
    34  C   -0.138063
    35  C   -0.082184
    36  C    0.060213
    37  C    0.215973
    38  C    0.079689
    39  O   -0.197295
    40  C    0.091337
    41  C    0.153846
    42  O   -0.220802
    43  O   -0.311688
    44  C    0.174886
    45  C    0.165954
    46  C   -0.050636
    47  C   -0.137983
    48  C    0.060719
    49  C    0.052777
    50  C    0.009867
    51  C   -0.013474
    52  C   -0.024001
    53  C    0.091957
    54  C   -0.024275
    55  C    0.022470
    56  C    0.162855
    57  C   -0.067937
    58  C    0.028976
    59  C    0.061747
    60  C    0.037518
    61  C   -0.070552
    62  C   -0.054177
    63  C   -0.063247
    64  C    0.009241
    65  H   -0.109046
    66  H    0.013236
    67  H   -0.022805
    68  H   -0.025379
    69  H   -0.019500
    70  H    0.012643
    71  H    0.015516
    72  H    0.035488
    73  H    0.005396
    74  H    0.029832
    75  H   -0.009575
    76  H    0.024665
    77  H   -0.007091
    78  H   -0.033652
    79  H   -0.026939
    80  H    0.016395
    81  H    0.015448
    82  H    0.024674
    83  H    0.009500
    84  H    0.047748
    85  H    0.025069
    86  H    0.013157
    87  H   -0.024933
    88  H    0.019084
    89  H    0.023724
    90  H    0.013973
    91  H    0.016299
    92  H   -0.018754
    93  H    0.022670
    94  H   -0.032561
    95  H    0.045981
    96  H    0.049950
    97  H    0.046469
    98  H    0.040615
    99  H    0.063707
   100  H   -0.044127
   101  H   -0.002526
   102  H    0.041982
   103  H    0.032535
   104  H    0.007872
   105  H   -0.010627
   106  H   -0.000467
   107  H    0.003466
   108  H   -0.021021
   109  H   -0.014367
   110  H   -0.003088
   111  H    0.004562
   112  H   -0.003240
   113  H   -0.036721
   114  H    0.024897
   115  H    0.009109
   116  H    0.002174
   117  H   -0.022658
   118  H   -0.076761
   119  H   -0.046148
   120  H   -0.001532
   121  H   -0.023169
   122  H    0.016128
   123  H    0.009282
   124  H    0.013052
   125  H   -0.026310
   126  H   -0.025696
   127  H   -0.015451
   128  H   -0.004110
   129  H    0.017368
   130  H    0.002683
   131  H    0.021578
   132  H    0.009432
   133  H    0.027732
   134  H    0.008727
   135  H    0.015103
   136  H    0.037724
   137  H    0.093225
   138  H    0.188505
 Sum of Mulliken charges =   0.00000

 Dipole moment (field-independent basis, Debye):
    X=              2.1520    Y=              3.4863    Z=              0.3180  Tot=              4.1094
 Quadrupole moment (field-independent basis, Debye-Ang):
   XX=           -361.0006   YY=           -379.0903   ZZ=           -396.2346
   XY=            -28.6589   XZ=             10.3621   YZ=              0.6249

 Normal termination of Gaussian 09 at Sat Aug  3 18:59:23 2019.
